Title
55513
    1DOPE     N    1   3.405   5.157  17.822  0.0063 -0.1836 -0.0339
    1DOPE   HN1    2   3.497   5.190  17.855  0.2376  0.6766 -1.4634
    1DOPE   HN2    3   3.327   5.206  17.870  0.1613  0.1936 -0.1623
    1DOPE   HN3    4   3.398   5.054  17.832 -1.9339 -0.3428 -2.0650
    1DOPE   C12    5   3.388   5.178  17.673  0.2242  0.1192  0.5056
    1DOPE  H12A    6   3.472   5.125  17.623 -1.8130 -1.2039 -1.7414
    1DOPE  H12B    7   3.381   5.287  17.652  0.0553  0.1096  0.5128
    1DOPE   C11    8   3.268   5.095  17.615  0.0162  0.1132  0.4743
    1DOPE  H11A    9   3.256   5.115  17.507 -0.6980 -3.1422 -0.1483
    1DOPE  H11B   10   3.175   5.139  17.656 -0.8773  0.9190 -2.2436
    1DOPE     P   11   3.175   4.855  17.651 -0.4644 -0.2222  0.2471
    1DOPE   O13   12   3.123   4.867  17.788  1.1569 -0.2382  0.5125
    1DOPE   O14   13   3.225   4.718  17.610 -0.0855 -0.5681  0.1213
    1DOPE   O11   14   3.067   4.903  17.552  0.5040  0.7290  0.2947
    1DOPE   O12   15   3.288   4.958  17.641 -0.2797 -0.0642 -0.0807
    1DOPE    C1   16   3.075   4.892  17.412 -0.6115 -0.5144  0.1211
    1DOPE    HA   17   3.176   4.859  17.382 -0.2594 -1.1027  1.8599
    1DOPE    HB   18   3.060   4.992  17.365  1.7878  0.3477  1.0185
    1DOPE    C2   19   2.981   4.785  17.370  0.1868 -0.8684 -0.1423
    1DOPE    HS   20   3.020   4.688  17.408  1.7924 -0.3066 -0.2862
    1DOPE   O21   21   2.991   4.778  17.231  0.0060  0.6549 -0.4261
    1DOPE   C21   22   2.925   4.672  17.188 -0.0324 -0.1784 -1.0763
    1DOPE   O22   23   2.890   4.575  17.257  0.1237 -0.4533 -0.1500
    1DOPE   C22   24   2.891   4.700  17.040  0.1042 -0.2695 -0.8238
    1DOPE   H2R   25   2.982   4.722  16.981  2.8307  0.2127  3.1336
    1DOPE   H2S   26   2.811   4.777  17.036 -1.5880 -2.0124 -3.0906
    1DOPE    C3   27   2.839   4.820  17.422  0.4915 -0.2905  0.3595
    1DOPE    HX   28   2.842   4.797  17.531 -2.2417 -0.2112  0.5046
    1DOPE    HY   29   2.766   4.756  17.368  1.3665 -2.0314  1.1565
    1DOPE   O31   30   2.811   4.966  17.409  0.1623  0.2120  0.3502
    1DOPE   C31   31   2.762   5.010  17.293  0.3138 -0.7343 -0.6071
    1DOPE   O32   32   2.740   4.938  17.197 -0.0648  0.4459 -0.4918
    1DOPE   C32   33   2.748   5.164  17.299  0.1744 -0.3105 -0.6259
    1DOPE   H2X   34   2.673   5.189  17.377  0.2660 -0.4261 -0.5011
    1DOPE   H2Y   35   2.849   5.206  17.321  0.4210  1.3553 -4.1817
    1DOPE   C23   36   2.815   4.578  16.985  0.1170 -0.0634  0.5646
    1DOPE   H3R   37   2.728   4.595  16.918 -0.8114  0.9707  1.9811
    1DOPE   H3S   38   2.777   4.522  17.073 -0.7938  0.1230  0.2940
    1DOPE   C24   39   2.907   4.478  16.911 -0.0887 -0.7491 -0.5072
    1DOPE   H4R   40   2.888   4.368  16.911  1.1909 -1.0251  1.1795
    1DOPE   H4S   41   3.003   4.492  16.966 -1.7043  2.4056  1.8551
    1DOPE   C25   42   2.921   4.528  16.764  0.6843 -0.0461 -0.0331
    1DOPE   H5R   43   2.932   4.639  16.764  1.0544  0.0059  2.7823
    1DOPE   H5S   44   2.824   4.511  16.714 -0.0931  1.6508  0.7925
    1DOPE   C26   45   3.037   4.471  16.679 -0.4717  0.0092 -0.1767
    1DOPE   H6R   46   3.036   4.362  16.697 -1.0816 -0.1803 -1.2313
    1DOPE   H6S   47   3.130   4.517  16.718 -1.4229  1.1446  0.8145
    1DOPE   C27   48   3.029   4.484  16.527 -0.2140 -0.2723 -0.0057
    1DOPE   H7R   49   3.046   4.592  16.504  0.4932 -0.6786 -1.5117
    1DOPE   H7S   50   2.925   4.469  16.493 -1.0857  1.7502  1.5223
    1DOPE   C28   51   3.128   4.398  16.447  0.8007  0.3974 -0.1643
    1DOPE   H8R   52   3.225   4.394  16.500  1.5754  2.8434 -1.2446
    1DOPE   H8S   53   3.139   4.458  16.354 -2.4565 -1.9097 -2.2687
    1DOPE   C29   54   3.083   4.262  16.400  0.2916  0.4150 -0.1593
    1DOPE   H9R   55   3.097   4.182  16.474 -1.1675 -1.0352 -1.3966
    1DOPE  C210   56   3.038   4.226  16.285 -0.0622  0.0325  0.6544
    1DOPE  H10R   57   3.018   4.120  16.263  2.5088 -0.2372 -0.7766
    1DOPE  C211   58   3.004   4.313  16.167 -0.7660 -0.0503  0.6579
    1DOPE  H11R   59   3.013   4.423  16.182  0.5174  0.2007 -1.4775
    1DOPE  H11S   60   2.900   4.294  16.132 -0.4502  0.0661 -0.3963
    1DOPE  C212   61   3.093   4.291  16.036 -0.1035  0.1322  0.2056
    1DOPE  H12R   62   3.068   4.188  16.002  0.2905 -0.3061  1.2244
    1DOPE  H12S   63   3.199   4.284  16.069 -0.2985 -0.8877  0.6581
    1DOPE  C213   64   3.078   4.394  15.936 -0.2054 -0.2054 -0.0895
    1DOPE  H13R   65   3.123   4.484  15.982  0.3762 -1.9043  2.9448
    1DOPE  H13S   66   2.970   4.406  15.912 -0.2360  0.9892  0.5884
    1DOPE  C214   67   3.140   4.352  15.804  0.3688 -0.0995  0.1990
    1DOPE  H14R   68   3.094   4.255  15.775 -1.1565  0.3189  1.0832
    1DOPE  H14S   69   3.247   4.324  15.816  0.1910 -0.7124  0.4211
    1DOPE  C215   70   3.116   4.454  15.692  0.0188  0.2666  0.2156
    1DOPE  H15R   71   3.185   4.542  15.690  0.6103 -0.1716 -2.5205
    1DOPE  H15S   72   3.012   4.490  15.701  0.5699  2.3492 -0.9012
    1DOPE  C216   73   3.129   4.402  15.547 -0.5427 -0.0431 -0.6797
    1DOPE  H16R   74   3.105   4.294  15.542  0.1988 -0.1714 -1.6046
    1DOPE  H16S   75   3.231   4.397  15.504  0.0102  3.3594 -0.0643
    1DOPE  C217   76   3.037   4.483  15.453  0.7674  0.6348  0.4249
    1DOPE  H17R   77   3.049   4.591  15.476 -2.4955  0.7077  2.4400
    1DOPE  H17S   78   2.932   4.449  15.463  0.6996  0.6351 -0.2039
    1DOPE  C218   79   3.072   4.461  15.305 -0.5070 -0.2896  0.2426
    1DOPE  H18R   80   3.056   4.358  15.267  0.1958 -1.0259  1.8732
    1DOPE  H18S   81   3.181   4.481  15.295 -0.6592  0.3384 -0.2619
    1DOPE  H18T   82   3.026   4.544  15.247 -1.5887  2.5871  4.6864
    1DOPE   C33   83   2.706   5.226  17.163  0.1205 -0.2989  0.5376
    1DOPE   H3X   84   2.648   5.320  17.180  0.8231 -0.1136  2.0681
    1DOPE   H3Y   85   2.635   5.156  17.114  2.5493 -1.9472 -0.8614
    1DOPE   C34   86   2.824   5.237  17.066 -0.0832 -0.4406 -0.4098
    1DOPE   H4X   87   2.893   5.297  17.129 -1.3459 -1.8595  2.5120
    1DOPE   H4Y   88   2.854   5.132  17.049 -0.9859 -1.0589  1.6047
    1DOPE   C35   89   2.796   5.297  16.928 -0.1184 -0.4252 -0.1543
    1DOPE   H5X   90   2.893   5.326  16.882 -0.0314 -0.4757 -0.0031
    1DOPE   H5Y   91   2.742   5.393  16.942 -1.7389 -1.5329  1.6905
    1DOPE   C36   92   2.730   5.208  16.823 -0.1355  0.6899 -0.2688
    1DOPE   H6X   93   2.635   5.176  16.870  1.0507 -0.2649  1.6142
    1DOPE   H6Y   94   2.793   5.118  16.805  1.4746  1.9609 -1.3277
    1DOPE   C37   95   2.710   5.278  16.689 -0.0699 -0.2188 -0.1113
    1DOPE   H7X   96   2.669   5.377  16.718 -0.7043 -0.4097 -0.3475
    1DOPE   H7Y   97   2.808   5.286  16.638 -1.0524 -0.9779 -2.2230
    1DOPE   C38   98   2.621   5.202  16.596 -0.4633  0.0290  0.2152
    1DOPE   H8X   99   2.529   5.185  16.656 -0.7846  0.2831 -0.1980
    1DOPE   H8Y  100   2.655   5.098  16.575  0.0331  0.1293  0.5242
    1DOPE   C39  101   2.570   5.287  16.480  0.5932 -1.0252 -0.0120
    1DOPE   H9X  102   2.475   5.340  16.491  0.0745 -2.2027  1.4600
    1DOPE  C310  103   2.621   5.294  16.353  0.4252  0.6360  0.8562
    1DOPE  H10X  104   2.581   5.372  16.286  0.5330  0.4398  0.5571
    1DOPE  C311  105   2.749   5.233  16.302 -0.5489 -0.2608 -0.0546
    1DOPE  H11X  106   2.832   5.283  16.356 -1.0702 -0.3317  0.8355
    1DOPE  H11Y  107   2.753   5.124  16.324  0.6499 -0.3972 -0.8188
    1DOPE  C312  108   2.783   5.242  16.152  0.8074 -0.2274  0.8853
    1DOPE  H12X  109   2.881   5.192  16.139  1.0212 -0.2992  2.5357
    1DOPE  H12Y  110   2.795   5.350  16.128 -1.3018  0.2057  1.6058
    1DOPE  C313  111   2.683   5.187  16.051 -0.1333 -0.5419  0.0722
    1DOPE  H13X  112   2.656   5.080  16.067 -0.6207 -0.4696 -0.2432
    1DOPE  H13Y  113   2.588   5.245  16.058  0.1127  0.0675 -1.2642
    1DOPE  C314  114   2.730   5.202  15.899  0.3073  0.3482  0.0866
    1DOPE  H14X  115   2.839   5.180  15.910  0.4638  1.0056 -0.1096
    1DOPE  H14Y  116   2.730   5.308  15.866 -0.3088  0.3829  0.1914
    1DOPE  C315  117   2.672   5.096  15.800  0.5882  0.2387  0.8703
    1DOPE  H15X  118   2.562   5.114  15.793  0.9793  3.0604  0.6231
    1DOPE  H15Y  119   2.680   4.996  15.848 -1.0947 -1.3767 -1.9664
    1DOPE  C316  120   2.736   5.100  15.662  0.9526  1.3638 -0.8548
    1DOPE  H16X  121   2.846   5.085  15.668  0.5976 -1.3002  2.5757
    1DOPE  H16Y  122   2.714   5.200  15.619 -0.7324  2.1064  1.5247
    1DOPE  C317  123   2.674   4.994  15.577  0.1259 -0.4507 -0.2066
    1DOPE  H17X  124   2.720   4.899  15.614 -0.1341 -0.0321  1.2684
    1DOPE  H17Y  125   2.563   4.995  15.585  0.0807  2.4303 -0.3651
    1DOPE  C318  126   2.711   5.016  15.430 -0.3899 -0.4466  0.0548
    1DOPE  H18X  127   2.645   5.095  15.386  1.3438  0.7047 -0.5721
    1DOPE  H18Y  128   2.817   5.047  15.424 -0.7616  0.6916 -1.1034
    1DOPE  H18Z  129   2.705   4.922  15.371 -3.5032 -0.1139 -0.3478
    2DOPE     N  130   3.684   4.784  17.570  0.0250 -0.3788 -0.2798
    2DOPE   HN1  131   3.635   4.712  17.627 -0.6085 -0.9232 -1.4841
    2DOPE   HN2  132   3.768   4.745  17.523  0.3877  1.1696 -0.9682
    2DOPE   HN3  133   3.712   4.853  17.643  0.2659 -0.1075 -0.6290
    2DOPE   C12  134   3.602   4.858  17.471 -0.4681 -0.0011  0.5672
    2DOPE  H12A  135   3.498   4.869  17.507 -1.0872  1.6142 -1.5074
    2DOPE  H12B  136   3.597   4.784  17.389  1.8989  0.4157 -0.0183
    2DOPE   C11  137   3.677   4.987  17.414  0.2864 -0.3380 -0.3333
    2DOPE  H11A  138   3.613   5.029  17.334  0.0295 -1.8990 -0.9857
    2DOPE  H11B  139   3.782   4.971  17.379  1.0198  2.2911  0.4875
    2DOPE     P  140   3.761   5.209  17.543  0.4357 -0.1367  0.3346
    2DOPE   O13  141   3.898   5.181  17.577  0.7422 -1.0151  0.1653
    2DOPE   O14  142   3.693   5.301  17.629  0.0397  0.2882  0.2235
    2DOPE   O11  143   3.773   5.258  17.394  0.2678 -0.3805 -0.1435
    2DOPE   O12  144   3.677   5.078  17.526 -0.4208  0.5333 -0.1911
    2DOPE    C1  145   3.771   5.408  17.388  0.0670  0.9719 -0.2583
    2DOPE    HA  146   3.860   5.456  17.433 -0.1651  1.6819 -0.5444
    2DOPE    HB  147   3.681   5.443  17.443 -0.4222 -0.9901  0.2937
    2DOPE    C2  148   3.751   5.474  17.251 -0.6126  0.0239 -0.1035
    2DOPE    HS  149   3.688   5.564  17.269  0.0824  0.2596  1.2476
    2DOPE   O21  150   3.676   5.387  17.165 -0.5156 -0.5059 -0.2416
    2DOPE   C21  151   3.552   5.377  17.187 -0.0768 -0.3188  1.2712
    2DOPE   O22  152   3.488   5.427  17.279  0.7058 -0.2300  1.1736
    2DOPE   C22  153   3.488   5.268  17.088  0.3026  0.4667 -0.2825
    2DOPE   H2R  154   3.552   5.177  17.087  0.8240  0.8091  0.8446
    2DOPE   H2S  155   3.488   5.317  16.988  0.5766 -0.0971 -0.5661
    2DOPE    C3  156   3.874   5.511  17.175  0.8957  0.0184 -0.3945
    2DOPE    HX  157   3.928   5.427  17.127  2.2029  0.2932  0.5634
    2DOPE    HY  158   3.937   5.556  17.254 -3.2542  3.1055  1.6035
    2DOPE   O31  159   3.839   5.618  17.083  0.8497  0.0953 -0.2313
    2DOPE   C31  160   3.835   5.592  16.949 -0.8305 -0.4716 -0.7290
    2DOPE   O32  161   3.881   5.488  16.902 -0.1484  0.0880  0.1270
    2DOPE   C32  162   3.772   5.701  16.871 -0.8116  0.4847 -0.4603
    2DOPE   H2X  163   3.705   5.743  16.949  0.8200 -1.2378  2.0247
    2DOPE   H2Y  164   3.847   5.774  16.834 -1.5123  1.2359 -0.3985
    2DOPE   C23  165   3.346   5.231  17.135  0.4651 -0.3050  0.5663
    2DOPE   H3R  166   3.300   5.327  17.165  0.0378 -0.6457  1.0270
    2DOPE   H3S  167   3.353   5.163  17.223  0.7864 -0.2450  0.5873
    2DOPE   C24  168   3.249   5.178  17.028 -0.1478 -0.2272  0.2870
    2DOPE   H4R  169   3.247   5.247  16.940  0.8177 -0.6017 -0.0437
    2DOPE   H4S  170   3.149   5.188  17.074  0.6193  1.4751  1.7113
    2DOPE   C25  171   3.285   5.037  16.973  0.3775 -0.0729  0.3516
    2DOPE   H5R  172   3.310   4.969  17.058  2.2781 -0.2668 -0.3228
    2DOPE   H5S  173   3.377   5.052  16.912  0.7238  0.7759  1.0629
    2DOPE   C26  174   3.172   4.972  16.901  0.8561 -0.0897  0.1674
    2DOPE   H6R  175   3.077   4.966  16.958  0.1089  2.6464 -0.6462
    2DOPE   H6S  176   3.202   4.871  16.866 -0.3660 -0.2081 -0.6088
    2DOPE   C27  177   3.142   5.064  16.771  0.6420  0.2153 -0.5417
    2DOPE   H7R  178   3.231   5.069  16.704  0.4359  0.6914 -0.7814
    2DOPE   H7S  179   3.108   5.165  16.801  0.3036 -0.2552  0.7256
    2DOPE   C28  180   3.033   4.983  16.692  0.1191  0.3504  0.5456
    2DOPE   H8R  181   2.943   4.971  16.755 -2.2816 -1.2875 -2.8717
    2DOPE   H8S  182   3.075   4.881  16.678 -0.4636  0.2971 -1.0266
    2DOPE   C29  183   3.000   5.065  16.568  0.4373 -0.1202 -0.6600
    2DOPE   H9R  184   2.976   5.170  16.587  0.4748 -0.1528 -0.4313
    2DOPE  C210  185   3.021   5.026  16.436 -0.3847  0.1126 -1.3167
    2DOPE  H10R  186   2.987   5.096  16.358  1.1594  1.8888 -0.4752
    2DOPE  C211  187   3.080   4.894  16.385  0.2978  0.2577 -0.2091
    2DOPE  H11R  188   3.047   4.817  16.459 -2.1813  0.9982 -0.4250
    2DOPE  H11S  189   3.190   4.880  16.379  0.8363  2.4376  2.6644
    2DOPE  C212  190   3.024   4.857  16.246 -0.2988  0.6143 -0.2800
    2DOPE  H12R  191   2.917   4.889  16.244 -0.1762  1.0225 -0.4296
    2DOPE  H12S  192   3.023   4.746  16.243  1.5842  0.5332  0.6127
    2DOPE  C213  193   3.114   4.908  16.129 -0.1468  0.4339  0.1383
    2DOPE  H13R  194   3.204   4.843  16.137 -0.4741 -0.0160  0.2030
    2DOPE  H13S  195   3.135   5.016  16.141 -0.4693  1.0429 -3.5369
    2DOPE  C214  196   3.051   4.856  15.995  1.4137 -0.1148 -0.8129
    2DOPE  H14R  197   2.946   4.890  15.990  0.9302 -1.2961  0.5777
    2DOPE  H14S  198   3.051   4.745  16.003  1.9580  0.0184  2.7595
    2DOPE  C215  199   3.135   4.894  15.873 -0.9320  0.1973 -0.3632
    2DOPE  H15R  200   3.228   4.834  15.863 -1.2010 -0.1082 -1.1019
    2DOPE  H15S  201   3.168   5.001  15.869 -0.0692 -0.1002 -3.1338
    2DOPE  C216  202   3.064   4.876  15.742  0.3399 -0.7495  0.8246
    2DOPE  H16R  203   2.970   4.934  15.731  0.8978 -0.1881 -1.5685
    2DOPE  H16S  204   3.046   4.771  15.710  2.7874 -0.0798 -3.5522
    2DOPE  C217  205   3.148   4.934  15.629  0.1693 -0.2323  0.9325
    2DOPE  H17R  206   3.244   4.879  15.637  0.3292  0.3300  4.4891
    2DOPE  H17S  207   3.172   5.037  15.663  3.9563 -0.5020 -0.4678
    2DOPE  C218  208   3.081   4.919  15.493 -0.6277 -0.2530 -0.0847
    2DOPE  H18R  209   3.135   4.973  15.411 -0.9614 -0.5112 -0.4797
    2DOPE  H18S  210   2.976   4.949  15.513 -0.2133  0.7325  0.7111
    2DOPE  H18T  211   3.073   4.815  15.455  1.1629  0.0186 -1.3417
    2DOPE   C33  212   3.684   5.643  16.757  0.0565  0.2989  0.1497
    2DOPE   H3X  213   3.615   5.723  16.725 -0.8130 -0.3385  0.3937
    2DOPE   H3Y  214   3.624   5.554  16.786  0.3147 -0.2273 -0.8875
    2DOPE   C34  215   3.755   5.621  16.628 -0.5129 -0.1941 -0.2912
    2DOPE   H4X  216   3.804   5.710  16.583  1.3013 -1.1395 -0.2630
    2DOPE   H4Y  217   3.825   5.538  16.652 -0.9443 -0.8092 -1.1360
    2DOPE   C35  218   3.661   5.579  16.519 -0.2742 -0.1781 -0.5056
    2DOPE   H5X  219   3.567   5.639  16.520  0.5161  1.1321  0.9387
    2DOPE   H5Y  220   3.627   5.476  16.542  0.8491 -0.5769 -0.5775
    2DOPE   C36  221   3.724   5.588  16.376 -0.7162  0.1002 -0.5498
    2DOPE   H6X  222   3.824   5.541  16.393 -1.5954 -2.1048 -1.1338
    2DOPE   H6Y  223   3.744   5.692  16.341  2.3157  0.4292  1.6953
    2DOPE   C37  224   3.646   5.520  16.264  0.4184  0.6834  0.3282
    2DOPE   H7X  225   3.610   5.425  16.309  1.5661 -0.2522 -0.6694
    2DOPE   H7Y  226   3.551   5.577  16.254  0.1948  0.7070  2.2364
    2DOPE   C38  227   3.722   5.510  16.139  0.6752  0.3945  0.4079
    2DOPE   H8X  228   3.822   5.465  16.156  0.7205  0.2697 -0.1621
    2DOPE   H8Y  229   3.728   5.610  16.091 -0.8211 -0.3104 -1.3978
    2DOPE   C39  230   3.655   5.416  16.036 -0.0256  0.5760  0.4770
    2DOPE   H9X  231   3.682   5.310  16.042 -0.6385  0.2495 -1.8160
    2DOPE  C310  232   3.603   5.451  15.917  0.5218 -0.1779 -0.4994
    2DOPE  H10X  233   3.551   5.373  15.858 -0.7761 -0.8823  1.4706
    2DOPE  C311  234   3.581   5.589  15.858  0.4700  0.8332 -0.3672
    2DOPE  H11X  235   3.485   5.581  15.802 -0.3118 -5.2166  1.1531
    2DOPE  H11Y  236   3.565   5.670  15.932  0.4436  1.0653 -0.6251
    2DOPE  C312  237   3.693   5.633  15.762 -0.1238  0.5163 -0.1389
    2DOPE  H12X  238   3.732   5.554  15.694  1.5287  0.0201  1.3009
    2DOPE  H12Y  239   3.782   5.662  15.822 -0.0719 -2.0279  1.1444
    2DOPE  C313  240   3.665   5.753  15.670  0.6610  0.1867  1.0768
    2DOPE  H13X  241   3.579   5.724  15.606 -0.0904  0.5315  1.8985
    2DOPE  H13Y  242   3.640   5.847  15.724  0.4442  1.2312 -0.7855
    2DOPE  C314  243   3.769   5.778  15.566 -0.2518 -0.6073  0.1037
    2DOPE  H14X  244   3.805   5.686  15.515 -2.1564 -0.6874 -1.2288
    2DOPE  H14Y  245   3.861   5.821  15.611  1.5638 -3.5994 -0.4873
    2DOPE  C315  246   3.734   5.876  15.459  0.2674 -0.1644 -0.0805
    2DOPE  H15X  247   3.747   5.975  15.507 -1.0662 -0.0507  0.0811
    2DOPE  H15Y  248   3.629   5.863  15.426  0.7229 -0.2853 -1.5716
    2DOPE  C316  249   3.830   5.873  15.340  0.2026 -0.3108 -0.3822
    2DOPE  H16X  250   3.795   5.807  15.258  1.4044 -0.5975 -0.6836
    2DOPE  H16Y  251   3.930   5.848  15.382  0.0742  2.7425  2.0477
    2DOPE  C317  252   3.853   6.015  15.278 -0.0825  0.2250 -0.0207
    2DOPE  H17X  253   3.757   6.063  15.247 -0.5165  0.7354  2.0184
    2DOPE  H17Y  254   3.887   6.083  15.358  2.6025 -2.4996  1.3247
    2DOPE  C318  255   3.955   6.026  15.169  0.6366 -0.0300 -0.3673
    2DOPE  H18X  256   3.928   6.116  15.109 -0.6583 -0.2097 -0.0908
    2DOPE  H18Y  257   4.054   6.056  15.209  0.7359 -0.2862 -0.4191
    2DOPE  H18Z  258   3.948   5.936  15.105 -0.0054 -1.4504  1.5882
    3DOPE     N  259   1.166   5.014  17.019 -0.6819 -0.1543 -0.1447
    3DOPE   HN1  260   1.105   5.043  16.939  0.3932 -0.2059 -1.0170
    3DOPE   HN2  261   1.232   5.091  17.044  1.1443 -1.3935 -0.9045
    3DOPE   HN3  262   1.226   4.940  16.977 -0.2050  0.0962  0.0888
    3DOPE   C12  263   1.091   4.966  17.141  0.6181  0.3294  0.4333
    3DOPE  H12A  264   1.128   4.867  17.175  0.5401 -0.0931 -0.6786
    3DOPE  H12B  265   0.985   4.948  17.111  0.7684 -0.9598  0.6064
    3DOPE   C11  266   1.086   5.081  17.243  0.3767  0.4249 -0.4515
    3DOPE  H11A  267   1.048   5.039  17.339 -0.0555  2.7445  0.4513
    3DOPE  H11B  268   1.020   5.158  17.197  0.3898  0.8309  0.2128
    3DOPE     P  269   1.244   5.267  17.352  0.1188  0.2065  0.4920
    3DOPE   O13  270   1.272   5.227  17.491 -0.1424 -0.1001  0.0715
    3DOPE   O14  271   1.121   5.352  17.328  0.2029 -0.1160  0.1680
    3DOPE   O11  272   1.367   5.337  17.285 -0.1157 -0.4122 -0.3204
    3DOPE   O12  273   1.217   5.128  17.274  0.2693 -0.2336 -0.0845
    3DOPE    C1  274   1.369   5.468  17.231  0.4618 -0.3960 -0.0796
    3DOPE    HA  275   1.472   5.510  17.238  0.5548 -0.6146 -0.1497
    3DOPE    HB  276   1.317   5.535  17.304  1.0105 -1.0967  0.9760
    3DOPE    C2  277   1.314   5.464  17.084  0.5702 -0.4812 -1.2642
    3DOPE    HS  278   1.218   5.411  17.095  0.2033  0.4945  0.6559
    3DOPE   O21  279   1.418   5.405  17.004 -0.1431  0.0628  0.3377
    3DOPE   C21  280   1.427   5.274  16.986  0.1270 -0.4201 -0.2411
    3DOPE   O22  281   1.354   5.189  17.042 -1.3579  0.0183  0.1089
    3DOPE   C22  282   1.549   5.245  16.895 -0.1147 -0.4376  0.0153
    3DOPE   H2R  283   1.603   5.167  16.954 -1.1694 -1.3276 -0.1484
    3DOPE   H2S  284   1.612   5.334  16.877  1.2241 -1.3382  0.0606
    3DOPE    C3  285   1.268   5.605  17.031  0.0415  0.0818 -0.1665
    3DOPE    HX  286   1.348   5.681  17.046 -1.2293  0.9953  2.8667
    3DOPE    HY  287   1.183   5.640  17.094 -0.8661  2.0914 -2.3738
    3DOPE   O31  288   1.217   5.587  16.897 -0.0394 -0.9288 -0.0828
    3DOPE   C31  289   1.087   5.575  16.878 -0.1073  0.7291 -0.0042
    3DOPE   O32  290   1.000   5.579  16.964 -0.6067 -0.4996  0.0410
    3DOPE   C32  291   1.057   5.538  16.735 -0.2001 -0.8378  0.3921
    3DOPE   H2X  292   0.963   5.593  16.714  0.4027  1.3118  2.8125
    3DOPE   H2Y  293   1.140   5.578  16.672  1.3875 -2.3653  1.4216
    3DOPE   C23  294   1.512   5.195  16.750 -0.2332 -0.1168  0.6199
    3DOPE   H3R  295   1.443   5.261  16.693  0.3795 -1.5350 -1.9085
    3DOPE   H3S  296   1.458   5.098  16.759 -1.1226  0.3261  0.1634
    3DOPE   C24  297   1.632   5.202  16.649  0.3648  0.3861  0.3983
    3DOPE   H4R  298   1.719   5.148  16.692  0.8198  0.9109  0.1440
    3DOPE   H4S  299   1.665   5.308  16.641 -0.1352  0.5084 -0.1625
    3DOPE   C25  300   1.593   5.154  16.502  0.1317 -0.0682 -0.5826
    3DOPE   H5R  301   1.507   5.216  16.471  0.2034  1.0029  1.2169
    3DOPE   H5S  302   1.583   5.043  16.510  2.5094 -0.2316  4.8271
    3DOPE   C26  303   1.712   5.174  16.407  0.7967  0.7068  0.0570
    3DOPE   H6R  304   1.804   5.118  16.435  0.8318  0.3613 -0.7158
    3DOPE   H6S  305   1.737   5.281  16.419  0.3833  0.5823  2.3805
    3DOPE   C27  306   1.677   5.137  16.260  0.5644  0.1662 -0.1563
    3DOPE   H7R  307   1.576   5.178  16.234  0.1147 -0.6810  0.2114
    3DOPE   H7S  308   1.682   5.026  16.256  1.1571  0.1686  0.4104
    3DOPE   C28  309   1.779   5.193  16.160 -0.2534  0.6198 -0.2608
    3DOPE   H8R  310   1.878   5.145  16.170 -1.0336 -0.6461  1.9997
    3DOPE   H8S  311   1.798   5.295  16.200 -0.8205  0.5912  0.0918
    3DOPE   C29  312   1.729   5.220  16.016 -0.0946  0.2148 -0.0478
    3DOPE   H9R  313   1.622   5.207  15.991  0.4916  0.6152 -3.2260
    3DOPE  C210  314   1.798   5.249  15.904 -0.5664  0.2934 -0.3885
    3DOPE  H10R  315   1.745   5.287  15.815 -3.1193 -0.8727  0.5665
    3DOPE  C211  316   1.946   5.247  15.901 -0.0904  0.0735 -0.8502
    3DOPE  H11R  317   1.970   5.257  16.009  0.6169 -0.0151 -0.9963
    3DOPE  H11S  318   1.993   5.329  15.843 -0.2681  1.3449  0.7254
    3DOPE  C212  319   1.981   5.109  15.841 -0.2676 -0.4421  0.8147
    3DOPE  H12R  320   1.917   5.033  15.890 -1.7957 -0.8538 -1.6119
    3DOPE  H12S  321   2.089   5.100  15.862  0.0947  0.8834 -0.3001
    3DOPE  C213  322   1.958   5.111  15.688  0.8478 -0.4413 -0.3068
    3DOPE  H13R  323   2.039   5.176  15.646  0.5817  0.1740  0.1252
    3DOPE  H13S  324   1.859   5.153  15.662  1.4465  0.2837 -1.5290
    3DOPE  C214  325   1.970   4.977  15.629  0.0859  0.6219 -0.0061
    3DOPE  H14R  326   1.884   4.919  15.666 -2.0048  2.1727 -2.1370
    3DOPE  H14S  327   2.065   4.932  15.667 -0.5158  1.2945  2.4720
    3DOPE  C215  328   1.981   4.972  15.475  0.8462  0.0595  0.3918
    3DOPE  H15R  329   1.900   5.029  15.424 -1.3101 -3.7703 -0.9466
    3DOPE  H15S  330   1.965   4.864  15.450  3.4736 -0.2928 -0.1074
    3DOPE  C216  331   2.128   4.996  15.429 -0.0540 -0.0667 -0.2390
    3DOPE  H16R  332   2.195   4.929  15.487 -1.9123 -1.9454 -0.1416
    3DOPE  H16S  333   2.143   5.104  15.450 -1.8301  0.5269 -1.7205
    3DOPE  C217  334   2.138   4.971  15.275  0.3465 -0.0885  0.4199
    3DOPE  H17R  335   2.227   5.023  15.234 -1.6663  2.0509 -1.5065
    3DOPE  H17S  336   2.052   5.011  15.218  0.2825 -0.7019  0.0735
    3DOPE  C218  337   2.161   4.823  15.234 -0.4907  1.0362  0.4299
    3DOPE  H18R  338   2.249   4.776  15.281 -0.7297 -0.0627 -0.2029
    3DOPE  H18S  339   2.169   4.811  15.124  0.2204  1.5764  0.4168
    3DOPE  H18T  340   2.075   4.761  15.268  0.3306  0.9386  2.4360
    3DOPE   C33  341   1.023   5.386  16.703 -0.5726  0.2849 -0.0296
    3DOPE   H3X  342   0.938   5.371  16.773 -1.4330  1.0976 -0.8653
    3DOPE   H3Y  343   1.113   5.330  16.738 -0.4984 -1.7400 -3.0510
    3DOPE   C34  344   0.984   5.353  16.561 -0.4860  0.0966  0.1518
    3DOPE   H4X  345   0.918   5.263  16.556  0.1166 -0.3797  0.5297
    3DOPE   H4Y  346   0.939   5.446  16.522 -0.0501 -1.5197 -5.0959
    3DOPE   C35  347   1.114   5.335  16.476  0.2985 -0.1964  0.0625
    3DOPE   H5X  348   1.192   5.263  16.507  2.0573 -0.1231 -3.5975
    3DOPE   H5Y  349   1.164   5.435  16.475 -1.3629  0.6952  1.2292
    3DOPE   C36  350   1.068   5.320  16.333 -0.2543 -0.2259 -0.1130
    3DOPE   H6X  351   1.000   5.405  16.312  1.2533  0.5768 -2.1189
    3DOPE   H6Y  352   1.003   5.231  16.331  0.2610 -0.6670  1.6381
    3DOPE   C37  353   1.186   5.322  16.232  0.4079  0.2996  0.1299
    3DOPE   H7X  354   1.246   5.413  16.250  2.8425 -1.4307  1.3715
    3DOPE   H7Y  355   1.248   5.231  16.246  0.4663 -0.3650 -3.4952
    3DOPE   C38  356   1.145   5.309  16.080  0.2166  0.6605  0.2900
    3DOPE   H8X  357   1.090   5.213  16.082  0.8023  0.3321  0.8725
    3DOPE   H8Y  358   1.235   5.303  16.014  0.4771 -0.9288  0.7685
    3DOPE   C39  359   1.058   5.421  16.039 -0.5324  0.2857 -0.2064
    3DOPE   H9X  360   1.025   5.480  16.126  0.7805 -0.1013  0.5802
    3DOPE  C310  361   1.031   5.464  15.913 -0.4716  0.6380  0.4708
    3DOPE  H10X  362   0.986   5.564  15.903 -2.6494 -0.4058 -1.2035
    3DOPE  C311  363   1.068   5.388  15.783  0.0798  0.8292  0.0722
    3DOPE  H11X  364   1.085   5.281  15.810  0.4191  1.0067  0.5754
    3DOPE  H11Y  365   0.981   5.389  15.714  1.3798  0.3991 -1.6579
    3DOPE  C312  366   1.188   5.445  15.711  0.0535 -0.4911  0.5258
    3DOPE  H12X  367   1.268   5.455  15.787  0.7492 -1.2521 -0.0853
    3DOPE  H12Y  368   1.171   5.549  15.675 -0.5589 -1.0317 -0.8043
    3DOPE  C313  369   1.236   5.355  15.591  0.1356  0.3058  0.1855
    3DOPE  H13X  370   1.345   5.375  15.578  0.0144  0.5198 -0.5049
    3DOPE  H13Y  371   1.210   5.250  15.616 -1.3553  0.8938  1.2238
    3DOPE  C314  372   1.150   5.373  15.464  0.4526 -0.2740 -0.3104
    3DOPE  H14X  373   1.144   5.480  15.437 -0.6977 -0.0255  0.8566
    3DOPE  H14Y  374   1.048   5.335  15.487  0.7887 -0.0659  1.7419
    3DOPE  C315  375   1.204   5.279  15.353  0.0438  0.2379  0.1608
    3DOPE  H15X  376   1.175   5.179  15.391 -0.3297  0.2095 -0.1997
    3DOPE  H15Y  377   1.315   5.294  15.353  0.1849 -0.5072  1.9056
    3DOPE  C316  378   1.144   5.293  15.217  0.6068  0.6763 -0.4181
    3DOPE  H16X  379   1.035   5.276  15.228  0.8027 -1.4388 -1.2209
    3DOPE  H16Y  380   1.174   5.211  15.149  0.9379 -0.5540  1.1536
    3DOPE  C317  381   1.150   5.437  15.160 -0.2154  0.7084  0.2061
    3DOPE  H17X  382   1.110   5.508  15.236 -1.6089 -1.5437  1.7089
    3DOPE  H17Y  383   1.255   5.473  15.164 -0.1343  0.7489 -1.5528
    3DOPE  C318  384   1.098   5.454  15.016 -0.1433  0.6622 -0.0170
    3DOPE  H18X  385   1.106   5.563  14.991  0.5711  1.1288  2.0515
    3DOPE  H18Y  386   1.152   5.391  14.943 -1.5583 -1.1866  0.4706
    3DOPE  H18Z  387   0.991   5.426  15.010 -0.3375  1.5081 -0.7942
    4DOPE     N  388   3.312   3.905  17.422  1.1221  0.2224 -0.5027
    4DOPE   HN1  389   3.333   3.822  17.482 -0.2207  0.5894  0.5402
    4DOPE   HN2  390   3.375   3.910  17.340  1.1402 -0.7558 -0.5612
    4DOPE   HN3  391   3.324   3.986  17.487 -0.6085  0.8941 -0.9458
    4DOPE   C12  392   3.171   3.899  17.381  0.4214 -0.9976  0.1595
    4DOPE  H12A  393   3.157   3.822  17.303 -0.0339 -1.5905  0.8136
    4DOPE  H12B  394   3.147   4.003  17.350  1.8040 -0.5202  0.6286
    4DOPE   C11  395   3.075   3.904  17.507  0.7874  0.1209  0.0406
    4DOPE  H11A  396   2.970   3.920  17.473  0.7653 -0.0562  0.0254
    4DOPE  H11B  397   3.099   3.997  17.562 -1.2767 -0.1630  1.5522
    4DOPE     P  398   3.001   3.652  17.558  0.1908 -0.0741 -0.0327
    4DOPE   O13  399   2.866   3.664  17.623 -0.3308  0.7509 -0.0440
    4DOPE   O14  400   3.093   3.539  17.600  0.0159  0.0845  0.3346
    4DOPE   O11  401   2.987   3.653  17.405 -0.2295 -0.4618  0.0527
    4DOPE   O12  402   3.085   3.788  17.586 -0.1664 -0.3839 -0.0262
    4DOPE    C1  403   2.927   3.535  17.349 -0.1793 -0.3881  0.3781
    4DOPE    HA  404   2.834   3.507  17.404 -0.2697  1.0007  0.9713
    4DOPE    HB  405   2.999   3.451  17.353  1.9293  1.3317 -0.0066
    4DOPE    C2  406   2.893   3.572  17.196  0.5736  1.1029  1.2539
    4DOPE    HS  407   2.852   3.482  17.146  2.8456  0.6517  0.0471
    4DOPE   O21  408   3.010   3.617  17.132 -0.3652 -0.2199 -0.3001
    4DOPE   C21  409   3.036   3.559  17.019  0.0046  0.2583  0.5721
    4DOPE   O22  410   2.975   3.465  16.965  0.3560 -0.3721 -0.5395
    4DOPE   C22  411   3.163   3.631  16.966  0.1622 -0.4709 -0.0332
    4DOPE   H2R  412   3.247   3.596  17.030 -0.2007  0.9769  1.3089
    4DOPE   H2S  413   3.152   3.738  16.994 -3.1375 -0.9176  0.8252
    4DOPE    C3  414   2.801   3.696  17.196  0.0674  0.1693  0.1291
    4DOPE    HX  415   2.848   3.781  17.250 -1.9380  0.7844  1.0006
    4DOPE    HY  416   2.718   3.679  17.268 -0.0972 -0.8180 -0.2731
    4DOPE   O31  417   2.751   3.733  17.061 -0.0481  0.0870  0.4774
    4DOPE   C31  418   2.650   3.664  17.015 -0.3451  0.8396 -0.1458
    4DOPE   O32  419   2.595   3.579  17.088  0.4287 -0.2266 -0.1936
    4DOPE   C32  420   2.638   3.682  16.866  0.1001 -0.1878  0.0369
    4DOPE   H2X  421   2.530   3.691  16.839  0.1301  0.4530  0.1253
    4DOPE   H2Y  422   2.669   3.786  16.843  1.3314 -0.2102  1.4601
    4DOPE   C23  423   3.197   3.602  16.820  0.6538  0.3200  1.0323
    4DOPE   H3R  424   3.122   3.647  16.751  0.8673  0.0393  0.6085
    4DOPE   H3S  425   3.206   3.492  16.810  0.6560  0.3846  0.1863
    4DOPE   C24  426   3.330   3.665  16.788  0.0098 -0.6127  0.2620
    4DOPE   H4R  427   3.421   3.611  16.822  0.3818 -0.2431 -0.1271
    4DOPE   H4S  428   3.328   3.768  16.831  0.7356  0.5143 -2.2032
    4DOPE   C25  429   3.349   3.688  16.638 -0.3175  0.3122 -0.0086
    4DOPE   H5R  430   3.354   3.796  16.613 -0.0069  0.5488  1.0316
    4DOPE   H5S  431   3.259   3.641  16.593  2.2434 -3.0381 -2.1410
    4DOPE   C26  432   3.466   3.613  16.565 -1.1510 -0.3951  0.1311
    4DOPE   H6R  433   3.456   3.504  16.549 -0.8431 -0.4325  0.1729
    4DOPE   H6S  434   3.553   3.616  16.634 -1.0797 -1.3286  0.0955
    4DOPE   C27  435   3.504   3.695  16.438 -0.2374  0.2318  0.3957
    4DOPE   H7R  436   3.545   3.795  16.464  1.0620  0.2464 -1.4993
    4DOPE   H7S  437   3.418   3.707  16.369  0.1277  1.9532  0.1889
    4DOPE   C28  438   3.619   3.635  16.359 -0.0356  0.7196  0.1521
    4DOPE   H8R  439   3.706   3.646  16.427  0.5426 -1.1192 -0.2472
    4DOPE   H8S  440   3.627   3.705  16.273  1.2420  1.9871  1.2481
    4DOPE   C29  441   3.588   3.488  16.320 -0.3420 -1.2247 -0.5189
    4DOPE   H9R  442   3.598   3.422  16.407  2.3212 -0.1594  0.0669
    4DOPE  C210  443   3.557   3.439  16.195  0.1448 -0.4283  0.4025
    4DOPE  H10R  444   3.527   3.334  16.181 -0.6443 -0.1148 -0.3036
    4DOPE  C211  445   3.548   3.532  16.075  0.6835  0.1214 -0.6013
    4DOPE  H11R  446   3.500   3.628  16.103 -0.1217 -0.8965  1.7975
    4DOPE  H11S  447   3.473   3.492  16.003  1.8002  0.0216 -1.7331
    4DOPE  C212  448   3.680   3.553  16.011 -0.5401 -0.5236 -0.3935
    4DOPE  H12R  449   3.720   3.452  15.991  2.4874  0.3247  0.8735
    4DOPE  H12S  450   3.755   3.602  16.076 -2.7642  3.0507 -0.2098
    4DOPE  C213  451   3.670   3.624  15.876  0.0743 -0.0872  0.2780
    4DOPE  H13R  452   3.646   3.732  15.884  1.7999  0.5084 -1.6090
    4DOPE  H13S  453   3.591   3.591  15.806  0.7766  2.2635 -1.7772
    4DOPE  C214  454   3.806   3.629  15.799  0.9614 -0.1487 -0.3857
    4DOPE  H14R  455   3.848   3.527  15.795  1.1376 -0.0872 -0.1462
    4DOPE  H14S  456   3.877   3.696  15.853  2.0097 -0.7665 -0.9686
    4DOPE  C215  457   3.789   3.682  15.653 -0.0358  0.0821 -0.7131
    4DOPE  H15R  458   3.892   3.680  15.611  0.5048 -0.5739  0.5770
    4DOPE  H15S  459   3.753   3.787  15.648  0.4759  0.3522  0.6732
    4DOPE  C216  460   3.687   3.602  15.568 -0.0538  0.0906 -0.3560
    4DOPE  H16R  461   3.582   3.610  15.605 -0.3368 -1.9383 -0.5829
    4DOPE  H16S  462   3.707   3.493  15.567 -0.8888 -0.1121 -2.8051
    4DOPE  C217  463   3.687   3.639  15.415 -0.3646 -0.2300 -0.9519
    4DOPE  H17R  464   3.618   3.575  15.356 -0.4424 -0.9191 -0.1240
    4DOPE  H17S  465   3.792   3.621  15.383 -0.4839 -0.6575 -1.1129
    4DOPE  C218  466   3.647   3.781  15.390 -0.0875 -0.1136 -0.3186
    4DOPE  H18R  467   3.728   3.850  15.421  0.0965  0.7447 -2.5307
    4DOPE  H18S  468   3.555   3.811  15.445  0.1500 -1.6386  0.9769
    4DOPE  H18T  469   3.633   3.805  15.282 -1.3091  2.4028  0.3187
    4DOPE   C33  470   2.714   3.582  16.772  0.0662  0.4741 -0.1212
    4DOPE   H3X  471   2.693   3.477  16.802 -0.7856  0.3648 -1.0300
    4DOPE   H3Y  472   2.825   3.590  16.777  0.0359  1.7606 -1.0353
    4DOPE   C34  473   2.677   3.595  16.626  0.0965 -0.3400  0.7311
    4DOPE   H4X  474   2.571   3.626  16.613  0.5569  1.0653  0.0472
    4DOPE   H4Y  475   2.736   3.675  16.576  0.4577  0.5719  2.5571
    4DOPE   C35  476   2.710   3.470  16.539  1.1791 -0.5309  0.2173
    4DOPE   H5X  477   2.643   3.384  16.559  1.0692 -1.0414 -2.1318
    4DOPE   H5Y  478   2.805   3.445  16.592  1.1160  0.4800  0.8344
    4DOPE   C36  479   2.723   3.507  16.395  0.5518 -0.3090 -0.1333
    4DOPE   H6X  480   2.729   3.415  16.334  1.6065  1.9422 -3.7974
    4DOPE   H6Y  481   2.817   3.564  16.377  0.1880 -0.2611 -2.1467
    4DOPE   C37  482   2.601   3.586  16.342 -0.0872  0.3698  0.4933
    4DOPE   H7X  483   2.509   3.531  16.373 -0.7806 -0.1205 -2.2076
    4DOPE   H7Y  484   2.599   3.686  16.390 -1.0968  0.3408  0.5388
    4DOPE   C38  485   2.602   3.612  16.189 -0.0519  0.3117  0.0334
    4DOPE   H8X  486   2.697   3.665  16.164 -0.6577  1.7879  0.7492
    4DOPE   H8Y  487   2.521   3.684  16.165  0.9990  1.1008 -1.3115
    4DOPE   C39  488   2.586   3.483  16.108 -0.0876 -0.5729 -0.0929
    4DOPE   H9X  489   2.525   3.400  16.148  0.4534 -1.9076 -1.9132
    4DOPE  C310  490   2.668   3.438  16.011  0.1531  0.4784  0.1943
    4DOPE  H10X  491   2.625   3.349  15.963 -1.7261  0.3482  1.9896
    4DOPE  C311  492   2.792   3.494  15.943  0.9577  0.2343  0.1161
    4DOPE  H11X  493   2.845   3.562  16.013  0.8236  0.2000  0.2521
    4DOPE  H11Y  494   2.855   3.405  15.925  0.9739  0.3503 -0.4334
    4DOPE  C312  495   2.765   3.576  15.809 -0.2777  0.3170 -0.9921
    4DOPE  H12X  496   2.865   3.617  15.782  0.2899 -0.1027  0.3694
    4DOPE  H12Y  497   2.692   3.653  15.840  0.4386 -0.2707  2.6029
    4DOPE  C313  498   2.701   3.506  15.685 -0.1055 -0.0495  0.0565
    4DOPE  H13X  499   2.765   3.419  15.661  0.1693  1.1976 -4.9084
    4DOPE  H13Y  500   2.600   3.469  15.715 -0.8943  0.9850 -1.1942
    4DOPE  C314  501   2.697   3.589  15.553 -0.2090 -0.4461 -0.1533
    4DOPE  H14X  502   2.798   3.587  15.507  0.2877  1.3142  0.7837
    4DOPE  H14Y  503   2.684   3.698  15.570 -0.4471 -0.6684  1.2252
    4DOPE  C315  504   2.594   3.537  15.452  0.3462  0.0015 -0.1724
    4DOPE  H15X  505   2.511   3.499  15.515  0.9540  0.3959  0.9092
    4DOPE  H15Y  506   2.640   3.453  15.395 -1.7444 -2.6128  1.7527
    4DOPE  C316  507   2.567   3.631  15.338  0.2432  0.3411 -0.0107
    4DOPE  H16X  508   2.663   3.631  15.281 -0.8706  0.3504 -1.9521
    4DOPE  H16Y  509   2.549   3.732  15.380 -2.1465 -0.1231  0.2176
    4DOPE  C317  510   2.434   3.608  15.273 -0.3589  0.1966 -0.5629
    4DOPE  H17X  511   2.363   3.595  15.358 -2.0265 -1.8040 -2.1476
    4DOPE  H17Y  512   2.407   3.705  15.225 -1.5806 -1.0234 -2.4694
    4DOPE  C318  513   2.435   3.496  15.168 -0.0838 -0.5415 -0.3560
    4DOPE  H18X  514   2.332   3.473  15.136  0.3963 -1.3728 -1.3902
    4DOPE  H18Y  515   2.488   3.530  15.076 -0.3901  1.2888  0.0972
    4DOPE  H18Z  516   2.484   3.402  15.202  2.5788  0.4981 -1.0672
    5DOPE     N  517   1.012   4.293  17.121 -0.6875 -0.6156 -0.2497
    5DOPE   HN1  518   0.940   4.231  17.079 -0.6266 -2.0491  1.6470
    5DOPE   HN2  519   0.983   4.393  17.115  0.8998 -0.0062  1.3128
    5DOPE   HN3  520   1.098   4.276  17.065 -1.0880  1.8021 -1.7521
    5DOPE   C12  521   1.021   4.263  17.268 -0.5639  0.7890  0.5385
    5DOPE  H12A  522   0.958   4.172  17.277 -0.0233  0.4089  0.5935
    5DOPE  H12B  523   0.977   4.340  17.333 -2.1594  1.3160 -1.0876
    5DOPE   C11  524   1.171   4.236  17.304  0.0068  0.2325  0.1941
    5DOPE  H11A  525   1.193   4.130  17.282 -2.4538 -0.6001  1.4091
    5DOPE  H11B  526   1.183   4.250  17.413 -1.3042  0.3410  0.3390
    5DOPE     P  527   1.395   4.306  17.165  0.3244  0.3488 -0.1171
    5DOPE   O13  528   1.484   4.216  17.239  0.1973  0.2538  0.2162
    5DOPE   O14  529   1.448   4.435  17.115 -0.1893  0.3832  0.1902
    5DOPE   O11  530   1.327   4.229  17.047  0.0520 -0.4308 -0.1533
    5DOPE   O12  531   1.258   4.329  17.240 -0.8056 -0.0555 -0.1052
    5DOPE    C1  532   1.345   4.095  17.010 -0.4409  0.6129 -0.1690
    5DOPE    HA  533   1.261   4.042  16.961  0.0491 -0.1159 -0.2328
    5DOPE    HB  534   1.366   4.037  17.102  1.1639  2.5734  0.7820
    5DOPE    C2  535   1.461   4.087  16.907  0.8808 -0.5652 -0.1344
    5DOPE    HS  536   1.555   4.091  16.966  1.7565 -2.4984 -1.3158
    5DOPE   O21  537   1.444   4.205  16.817  0.0741  0.0729 -0.3826
    5DOPE   C21  538   1.552   4.275  16.794  0.4827 -0.0612  0.5665
    5DOPE   O22  539   1.657   4.261  16.854 -0.1250 -0.1334 -0.2995
    5DOPE   C22  540   1.523   4.371  16.679  0.0165  0.6887 -0.0287
    5DOPE   H2R  541   1.549   4.474  16.712  0.6202  0.1815  1.1165
    5DOPE   H2S  542   1.413   4.372  16.660  0.1675  0.0966 -1.0151
    5DOPE    C3  543   1.473   3.949  16.832  0.4987  0.3699 -0.4637
    5DOPE    HX  544   1.374   3.911  16.798  0.5165  0.9259 -1.1404
    5DOPE    HY  545   1.517   3.876  16.904 -1.2867  0.2363  0.5599
    5DOPE   O31  546   1.541   3.974  16.703 -1.2171  0.1918 -0.1016
    5DOPE   C31  547   1.673   3.966  16.699  0.0787 -0.3487 -0.5034
    5DOPE   O32  548   1.739   3.953  16.799 -0.2834 -0.2274  0.4427
    5DOPE   C32  549   1.731   3.993  16.562 -0.5321  0.1739  1.0781
    5DOPE   H2X  550   1.646   4.031  16.502  0.7588  0.3570 -0.7215
    5DOPE   H2Y  551   1.803   4.078  16.569 -0.7857  0.2497  3.4314
    5DOPE   C23  552   1.592   4.340  16.544  0.7484 -0.2568  0.1729
    5DOPE   H3R  553   1.615   4.233  16.530  1.1507  0.1301 -3.0351
    5DOPE   H3S  554   1.684   4.403  16.538  0.2784  0.3347 -1.8741
    5DOPE   C24  555   1.506   4.367  16.423 -0.2123 -0.1756  0.2800
    5DOPE   H4R  556   1.482   4.476  16.420 -0.4487 -0.2399 -0.2437
    5DOPE   H4S  557   1.412   4.308  16.427  0.1533 -0.7329  0.9192
    5DOPE   C25  558   1.576   4.324  16.285  0.3433 -0.7158 -0.7001
    5DOPE   H5R  559   1.565   4.215  16.265 -1.5513 -0.6253 -0.3540
    5DOPE   H5S  560   1.685   4.341  16.276  0.6515 -2.9373 -1.8148
    5DOPE   C26  561   1.512   4.391  16.161  0.1356 -0.4946  0.0340
    5DOPE   H6R  562   1.544   4.497  16.155 -4.0409  1.1934  2.7381
    5DOPE   H6S  563   1.401   4.389  16.171 -0.0141  0.5997 -1.1019
    5DOPE   C27  564   1.548   4.313  16.026 -0.3556  0.4682 -0.0353
    5DOPE   H7R  565   1.655   4.284  16.035 -1.0654 -1.8134  3.1618
    5DOPE   H7S  566   1.550   4.374  15.934 -0.6297 -0.8987 -0.9763
    5DOPE   C28  567   1.470   4.186  15.983 -0.4035 -0.2530  0.3647
    5DOPE   H8R  568   1.448   4.125  16.074 -1.0703 -0.4422  0.0810
    5DOPE   H8S  569   1.529   4.129  15.909 -0.7759  0.6118 -0.6198
    5DOPE   C29  570   1.342   4.233  15.923  0.0037  0.2030 -0.2194
    5DOPE   H9R  571   1.281   4.290  15.995 -0.5728 -1.7903  0.9575
    5DOPE  C210  572   1.293   4.217  15.799  0.1686  0.0042  0.4011
    5DOPE  H10R  573   1.198   4.266  15.772  0.1662  0.8484  1.8585
    5DOPE  C211  574   1.371   4.148  15.685  0.4278  0.3189  0.2658
    5DOPE  H11R  575   1.309   4.063  15.650  2.2163 -0.9479  0.0669
    5DOPE  H11S  576   1.471   4.112  15.717  0.5502  0.6703  0.2883
    5DOPE  C212  577   1.393   4.254  15.573  0.5559 -0.3624 -0.2050
    5DOPE  H12R  578   1.466   4.213  15.500  0.9256  0.0838 -0.0859
    5DOPE  H12S  579   1.432   4.346  15.620 -0.1553  0.3088 -0.8998
    5DOPE  C213  580   1.267   4.287  15.495 -0.1305 -0.5230 -0.6900
    5DOPE  H13R  581   1.194   4.332  15.566 -1.0334 -3.7436  0.5922
    5DOPE  H13S  582   1.217   4.194  15.461 -0.9850 -0.5439  0.5828
    5DOPE  C214  583   1.296   4.389  15.389 -0.1681 -0.8970  0.0482
    5DOPE  H14R  584   1.354   4.338  15.309 -0.0084  1.0196 -1.1186
    5DOPE  H14S  585   1.364   4.464  15.434 -0.2897  0.3739 -1.7942
    5DOPE  C215  586   1.170   4.457  15.339  0.4037 -0.6392  0.1599
    5DOPE  H15R  587   1.122   4.514  15.421 -2.0803 -1.8060 -0.3904
    5DOPE  H15S  588   1.097   4.383  15.300  1.2188 -0.8933 -0.9477
    5DOPE  C216  589   1.205   4.565  15.234  0.4230 -0.2135  0.1176
    5DOPE  H16R  590   1.247   4.519  15.142  0.9779 -0.5007  0.5059
    5DOPE  H16S  591   1.286   4.619  15.287  1.1527 -1.3037  0.1530
    5DOPE  C217  592   1.087   4.660  15.195  0.2567  0.1670 -0.0861
    5DOPE  H17R  593   1.047   4.711  15.286 -1.7545 -2.8094  0.8543
    5DOPE  H17S  594   1.005   4.600  15.153 -1.8166  0.7821  2.7863
    5DOPE  C218  595   1.142   4.762  15.089  0.5948  0.3106  0.5220
    5DOPE  H18R  596   1.230   4.811  15.135  0.4248  0.0162  1.1678
    5DOPE  H18S  597   1.059   4.836  15.079  1.2918  1.0283 -0.0554
    5DOPE  H18T  598   1.195   4.717  15.002  1.3348  2.6743 -0.3256
    5DOPE   C33  599   1.804   3.863  16.516 -1.1397  0.4187 -0.3797
    5DOPE   H3X  600   1.739   3.773  16.522 -0.1919 -0.2408  0.4639
    5DOPE   H3Y  601   1.889   3.848  16.587 -0.3495  1.8882 -0.9788
    5DOPE   C34  602   1.859   3.867  16.370  0.2395 -0.4292  0.3825
    5DOPE   H4X  603   1.915   3.962  16.360 -1.5026  0.6646  0.5133
    5DOPE   H4Y  604   1.919   3.775  16.354  1.8003  0.3645  1.3915
    5DOPE   C35  605   1.751   3.878  16.264  0.2414 -0.0814 -0.0664
    5DOPE   H5X  606   1.681   3.960  16.289 -0.4079 -0.4895 -0.5206
    5DOPE   H5Y  607   1.673   3.800  16.257 -0.6685  0.9583 -2.3788
    5DOPE   C36  608   1.815   3.899  16.126  1.1694  0.5841  0.1205
    5DOPE   H6X  609   1.847   3.800  16.088 -0.1483  0.6445 -1.2302
    5DOPE   H6Y  610   1.899   3.972  16.133  2.5666 -1.0367  0.8502
    5DOPE   C37  611   1.733   3.958  16.017  0.5712 -0.0992 -0.8103
    5DOPE   H7X  612   1.648   3.890  15.999  0.4377 -1.2319  3.2195
    5DOPE   H7Y  613   1.690   4.050  16.063 -0.1296 -1.0287  0.4317
    5DOPE   C38  614   1.801   4.006  15.885  0.0713 -0.2421  0.2749
    5DOPE   H8X  615   1.866   4.095  15.895 -1.3535  1.1395 -1.9833
    5DOPE   H8Y  616   1.723   4.045  15.816  1.5855  2.1587 -0.1876
    5DOPE   C39  617   1.875   3.892  15.816 -0.5117  0.5888  0.0946
    5DOPE   H9X  618   1.978   3.881  15.852 -0.4080  1.6806  0.1645
    5DOPE  C310  619   1.825   3.797  15.727 -0.3049 -0.2489 -0.8300
    5DOPE  H10X  620   1.887   3.716  15.684  0.1324 -0.2508 -0.2076
    5DOPE  C311  621   1.680   3.800  15.681  0.1607  0.5981 -0.2161
    5DOPE  H11X  622   1.617   3.743  15.753 -3.2618  1.0947 -2.5995
    5DOPE  H11Y  623   1.644   3.905  15.680 -1.0609  0.2211  1.0557
    5DOPE  C312  624   1.661   3.737  15.540  0.4881  0.4420  0.0558
    5DOPE  H12X  625   1.660   3.626  15.533 -3.5221  0.1684  1.8792
    5DOPE  H12Y  626   1.754   3.764  15.487  0.5313 -1.7734 -1.1206
    5DOPE  C313  627   1.536   3.788  15.476  0.6833 -0.0857  1.0592
    5DOPE  H13X  628   1.454   3.740  15.533  1.0483  0.5434  2.1497
    5DOPE  H13Y  629   1.523   3.897  15.494 -1.4068 -0.1464  0.2494
    5DOPE  C314  630   1.539   3.769  15.318  0.3152 -0.3405 -0.4234
    5DOPE  H14X  631   1.545   3.659  15.303 -1.3815 -0.3806 -1.0718
    5DOPE  H14Y  632   1.628   3.817  15.273  0.7184 -0.7675 -0.0892
    5DOPE  C315  633   1.420   3.814  15.238 -0.3352 -0.2127 -0.0276
    5DOPE  H15X  634   1.329   3.750  15.248  0.1155 -1.1350 -1.5218
    5DOPE  H15Y  635   1.430   3.799  15.128 -2.3473  2.7648 -0.7370
    5DOPE  C316  636   1.375   3.961  15.259  0.8512  0.2144 -0.3222
    5DOPE  H16X  637   1.470   4.015  15.235  0.2015  1.7010  0.3459
    5DOPE  H16Y  638   1.352   3.967  15.367  0.6582  0.3626 -0.3710
    5DOPE  C317  639   1.256   4.017  15.181 -0.1045  0.7920  0.3216
    5DOPE  H17X  640   1.244   4.123  15.210 -0.5542  0.6047  0.8363
    5DOPE  H17Y  641   1.284   4.016  15.074  0.3926 -1.1996  0.4387
    5DOPE  C318  642   1.122   3.944  15.197  0.5080  0.4868  0.5845
    5DOPE  H18X  643   1.130   3.839  15.162 -4.5653 -0.4974  1.6319
    5DOPE  H18Y  644   1.099   3.953  15.305  0.4462  0.8360  0.5421
    5DOPE  H18Z  645   1.041   4.000  15.145  0.9955  1.2004  0.5753
    6DOPE     N  646   0.098   5.420  17.466  0.4967  0.3315 -0.1012
    6DOPE   HN1  647   0.119   5.463  17.374  2.0569 -0.8753 -0.3635
    6DOPE   HN2  648   0.023   5.348  17.463  0.3145  0.5293 -0.2710
    6DOPE   HN3  649   0.078   5.500  17.528  1.1878 -0.3139  0.9859
    6DOPE   C12  650   0.224   5.355  17.509 -0.2151  0.2315  0.0678
    6DOPE  H12A  651   0.215   5.249  17.478 -2.3009  0.7224 -1.2335
    6DOPE  H12B  652   0.229   5.378  17.617  0.1481 -0.7437  0.2628
    6DOPE   C11  653   0.346   5.426  17.445  0.1815  0.1868 -0.5590
    6DOPE  H11A  654   0.332   5.407  17.336 -0.2910 -0.8127 -0.3372
    6DOPE  H11B  655   0.442   5.387  17.485  0.4048 -0.5062 -1.7099
    6DOPE     P  656   0.458   5.643  17.556  0.0926 -0.2838 -0.3380
    6DOPE   O13  657   0.514   5.544  17.650  0.4074  0.2961 -0.1673
    6DOPE   O14  658   0.394   5.765  17.606  0.3930 -0.1323  0.3930
    6DOPE   O11  659   0.564   5.668  17.443 -0.5128 -0.0393  0.1180
    6DOPE   O12  660   0.343   5.565  17.474  0.6068  0.1719 -0.1883
    6DOPE    C1  661   0.563   5.794  17.381 -0.5859 -1.0690 -0.0424
    6DOPE    HA  662   0.667   5.812  17.345 -0.4706 -0.4426  0.5784
    6DOPE    HB  663   0.546   5.888  17.438 -1.1026  0.6762 -2.8466
    6DOPE    C2  664   0.475   5.793  17.256 -0.4586  0.5428 -0.2747
    6DOPE    HS  665   0.373   5.791  17.299  0.2696 -1.4670  1.5503
    6DOPE   O21  666   0.509   5.671  17.183  0.2318 -0.3818 -0.0845
    6DOPE   C21  667   0.414   5.604  17.123  0.8975 -0.3641 -0.4429
    6DOPE   O22  668   0.295   5.636  17.121  0.3193 -0.0640 -0.0420
    6DOPE   C22  669   0.472   5.479  17.061  0.0631 -0.3130 -0.4293
    6DOPE   H2R  670   0.391   5.436  16.998 -0.4482  0.5782 -0.4067
    6DOPE   H2S  671   0.498   5.409  17.143 -0.2138 -0.0766 -0.1333
    6DOPE    C3  672   0.480   5.918  17.158  0.2778  0.1464  0.1355
    6DOPE    HX  673   0.581   5.922  17.112 -0.3577  0.2898 -1.2761
    6DOPE    HY  674   0.471   6.013  17.216 -2.5017 -0.2495  0.4841
    6DOPE   O31  675   0.381   5.917  17.050 -0.5705  0.4191 -0.5559
    6DOPE   C31  676   0.259   5.960  17.075 -0.4324 -0.6432 -0.0784
    6DOPE   O32  677   0.209   5.995  17.183 -0.5385  0.2021  0.6432
    6DOPE   C32  678   0.188   5.965  16.939 -0.2749 -0.0825  0.3364
    6DOPE   H2X  679   0.247   5.910  16.862 -2.0254 -0.0286 -1.1078
    6DOPE   H2Y  680   0.096   5.905  16.953  0.0908 -0.4972  1.0280
    6DOPE   C23  681   0.590   5.497  16.963  0.4690  0.4491  0.5451
    6DOPE   H3R  682   0.643   5.401  16.941 -2.4242 -0.5742 -3.0356
    6DOPE   H3S  683   0.665   5.574  16.991  0.6466  1.4301 -2.2624
    6DOPE   C24  684   0.549   5.559  16.829  0.3495  0.8061  0.3847
    6DOPE   H4R  685   0.473   5.638  16.846 -0.4464 -0.4754  3.3776
    6DOPE   H4S  686   0.486   5.486  16.773 -0.7842  2.2427 -0.2828
    6DOPE   C25  687   0.666   5.602  16.735  0.1922 -0.0016  0.2598
    6DOPE   H5R  688   0.764   5.573  16.779  0.7220  1.2560 -0.0356
    6DOPE   H5S  689   0.659   5.713  16.726 -1.6090 -0.1095 -0.0161
    6DOPE   C26  690   0.660   5.549  16.588  0.0096 -0.1853 -0.1205
    6DOPE   H6R  691   0.682   5.440  16.587  1.3914  0.0638  0.3284
    6DOPE   H6S  692   0.736   5.604  16.529 -0.9533  0.8691 -0.4207
    6DOPE   C27  693   0.520   5.581  16.532  0.2055 -0.1088 -0.1709
    6DOPE   H7R  694   0.487   5.673  16.583  2.5923  0.4974  0.4119
    6DOPE   H7S  695   0.445   5.500  16.545  0.2694 -0.0534  0.5882
    6DOPE   C28  696   0.525   5.621  16.377  0.1896 -0.3916  0.4395
    6DOPE   H8R  697   0.573   5.721  16.372 -1.9317  0.7615  1.6034
    6DOPE   H8S  698   0.419   5.649  16.356  0.3531  1.2447  1.5335
    6DOPE   C29  699   0.566   5.527  16.268 -0.9893 -0.0536 -0.1722
    6DOPE   H9R  700   0.532   5.426  16.296 -0.1782 -0.2462  0.1457
    6DOPE  C210  701   0.622   5.558  16.149 -0.7003 -0.7984 -0.4415
    6DOPE  H10R  702   0.642   5.480  16.075  2.1633 -1.0337  0.4899
    6DOPE  C211  703   0.678   5.685  16.095 -0.6769 -0.3962 -0.6302
    6DOPE  H11R  704   0.788   5.669  16.093 -0.9695 -2.9297  0.3860
    6DOPE  H11S  705   0.645   5.766  16.162  1.9094  1.5985 -1.5755
    6DOPE  C212  706   0.632   5.704  15.951 -0.1813  0.0679 -0.0373
    6DOPE  H12R  707   0.642   5.810  15.920 -2.8885  0.9854  1.8575
    6DOPE  H12S  708   0.525   5.677  15.941 -0.4981  0.8210  1.0779
    6DOPE  C213  709   0.699   5.613  15.850  0.3851 -0.0111  0.2491
    6DOPE  H13R  710   0.672   5.508  15.872 -2.1262  0.3558 -0.8339
    6DOPE  H13S  711   0.805   5.646  15.851 -0.1204  1.9376 -1.9946
    6DOPE  C214  712   0.641   5.628  15.709 -0.4150 -0.6553  0.3211
    6DOPE  H14R  713   0.665   5.731  15.673  0.8935 -0.7750  0.7799
    6DOPE  H14S  714   0.531   5.619  15.706 -0.5027  0.3800 -0.0461
    6DOPE  C215  715   0.701   5.537  15.601 -0.0006 -0.2654  0.0316
    6DOPE  H15R  716   0.641   5.445  15.619 -2.4270  1.1873 -0.1694
    6DOPE  H15S  717   0.808   5.527  15.628  0.6100 -0.5200 -2.2661
    6DOPE  C216  718   0.683   5.575  15.461 -0.0954  0.1359 -0.1857
    6DOPE  H16R  719   0.706   5.681  15.438 -1.2157  0.5847  0.7091
    6DOPE  H16S  720   0.577   5.565  15.431 -0.2924 -0.6743  0.7234
    6DOPE  C217  721   0.766   5.493  15.366 -0.5974 -0.2304 -0.4189
    6DOPE  H17R  722   0.729   5.388  15.362  1.8364 -1.1312 -1.1206
    6DOPE  H17S  723   0.869   5.480  15.405 -1.2549  1.6003  2.1889
    6DOPE  C218  724   0.755   5.551  15.223  0.0061  0.8643  0.2359
    6DOPE  H18R  725   0.789   5.485  15.141 -1.4788  3.6143 -2.7843
    6DOPE  H18S  726   0.827   5.635  15.220  0.5949  0.3363 -1.4771
    6DOPE  H18T  727   0.655   5.593  15.202 -0.4620 -0.6397 -0.6810
    6DOPE   C33  728   0.156   6.111  16.893 -0.0549  0.3714 -0.0181
    6DOPE   H3X  729   0.244   6.176  16.911  0.2638  0.3795 -1.5112
    6DOPE   H3Y  730   0.075   6.154  16.956  1.2869  0.8655  1.4454
    6DOPE   C34  731   0.119   6.112  16.746 -0.9880 -0.4419  0.9183
    6DOPE   H4X  732   0.211   6.127  16.686 -1.0440 -1.6100  0.5198
    6DOPE   H4Y  733   0.079   6.013  16.717  0.9656 -1.0566  0.1942
    6DOPE   C35  734   0.028   6.222  16.703  0.7965 -0.8814  0.0854
    6DOPE   H5X  735   0.048   6.322  16.749  0.2255  1.0695 -3.5323
    6DOPE   H5Y  736  -0.078   6.203  16.730 -0.3161  0.3265 -3.0087
    6DOPE   C36  737   0.021   6.240  16.551  0.2877 -0.0132 -0.1892
    6DOPE   H6X  738  -0.006   6.141  16.509 -0.1478 -0.7486  1.7026
    6DOPE   H6Y  739   0.120   6.270  16.512  1.1066 -3.3960 -1.0289
    6DOPE   C37  740  -0.095   6.327  16.517 -0.0580 -0.0667  0.1624
    6DOPE   H7X  741  -0.191   6.284  16.555 -1.3358  2.6021  0.1763
    6DOPE   H7Y  742  -0.084   6.423  16.571 -2.2737 -0.0002  0.5805
    6DOPE   C38  743  -0.111   6.349  16.367 -0.0552  0.1058  0.7526
    6DOPE   H8X  744  -0.209   6.393  16.338 -0.3095 -0.8891  0.0735
    6DOPE   H8Y  745  -0.112   6.248  16.321 -0.5280 -0.6910  2.4423
    6DOPE   C39  746  -0.007   6.427  16.291 -0.1504 -0.7209 -0.7931
    6DOPE   H9X  747   0.026   6.523  16.332  0.9723 -1.4428  0.0564
    6DOPE  C310  748   0.068   6.385  16.184  0.3789  1.0349 -0.0514
    6DOPE  H10X  749   0.140   6.461  16.150 -0.3406  1.6696 -0.1839
    6DOPE  C311  750   0.071   6.244  16.122 -0.3600 -0.4277 -0.2865
    6DOPE  H11X  751   0.169   6.198  16.146 -1.4066 -2.7718 -0.2631
    6DOPE  H11Y  752  -0.005   6.174  16.163 -0.6975  0.1550  0.0927
    6DOPE  C312  753   0.057   6.268  15.970 -0.0611 -0.1218  0.2113
    6DOPE  H12X  754   0.116   6.358  15.941 -0.8045 -0.1682 -1.6167
    6DOPE  H12Y  755  -0.047   6.293  15.940  0.1281  0.9142  0.3685
    6DOPE  C313  756   0.106   6.149  15.884 -0.4179  0.3316 -0.9215
    6DOPE  H13X  757   0.215   6.135  15.899 -0.8253 -1.7868  0.5904
    6DOPE  H13Y  758   0.057   6.061  15.930 -1.5739  0.7541 -1.3112
    6DOPE  C314  759   0.075   6.168  15.736 -0.2336 -0.0097  0.4373
    6DOPE  H14X  760  -0.031   6.200  15.734 -0.9076 -2.0986 -0.6411
    6DOPE  H14Y  761   0.082   6.072  15.680 -0.9574 -1.9617  3.4710
    6DOPE  C315  762   0.158   6.270  15.664 -0.1344  0.1441  0.4615
    6DOPE  H15X  763   0.265   6.264  15.694 -0.4613 -3.1902  1.3994
    6DOPE  H15Y  764   0.118   6.372  15.680 -0.7383  0.4000 -2.1837
    6DOPE  C316  765   0.152   6.253  15.513 -0.4597  1.0134 -0.0977
    6DOPE  H16X  766   0.046   6.268  15.483 -0.1210  0.2177 -1.8490
    6DOPE  H16Y  767   0.180   6.146  15.495 -1.6586  0.7738 -0.6099
    6DOPE  C317  768   0.248   6.340  15.438 -0.3739 -0.4617  0.7110
    6DOPE  H17X  769   0.233   6.447  15.464  2.6012 -0.1785  1.5988
    6DOPE  H17Y  770   0.351   6.312  15.469 -0.1617 -1.4343 -0.7687
    6DOPE  C318  771   0.239   6.315  15.291  0.1129  0.0377 -0.2546
    6DOPE  H18X  772   0.135   6.333  15.257  0.4038  1.9680 -0.2576
    6DOPE  H18Y  773   0.311   6.376  15.232 -0.1822  0.6645  0.0247
    6DOPE  H18Z  774   0.264   6.209  15.274 -1.7526 -0.6939  1.2725
    7DOPE     N  775   3.548   6.034  17.653 -0.3532  0.5163 -0.4056
    7DOPE   HN1  776   3.609   6.016  17.735  0.7052  0.4415 -1.1873
    7DOPE   HN2  777   3.594   5.997  17.567  0.3162  0.5063 -0.0467
    7DOPE   HN3  778   3.532   6.135  17.634 -0.6042  0.3815 -0.9353
    7DOPE   C12  779   3.414   5.977  17.675 -0.2834  0.4757  0.3025
    7DOPE  H12A  780   3.401   5.970  17.785 -1.1424  1.2970  0.2671
    7DOPE  H12B  781   3.403   5.887  17.611  1.7872  1.1085 -1.0540
    7DOPE   C11  782   3.313   6.084  17.630  0.2350 -0.2871 -0.2167
    7DOPE  H11A  783   3.301   6.167  17.703 -0.3883  1.2755 -2.0174
    7DOPE  H11B  784   3.211   6.041  17.617 -0.5175  1.2216  0.4642
    7DOPE     P  785   3.241   6.196  17.397 -0.2072  0.0541  0.2350
    7DOPE   O13  786   3.163   6.304  17.459  0.4294  0.1733  0.1105
    7DOPE   O14  787   3.179   6.076  17.349  0.1008  0.1794 -0.0585
    7DOPE   O11  788   3.329   6.251  17.279 -0.3395 -0.6099  0.1866
    7DOPE   O12  789   3.344   6.147  17.502  0.4745  0.6037  0.7105
    7DOPE    C1  790   3.422   6.361  17.306  0.0173  0.7538 -0.3420
    7DOPE    HA  791   3.522   6.315  17.289  0.6641  1.2312  1.9080
    7DOPE    HB  792   3.412   6.419  17.400  1.3877 -0.4464  0.5984
    7DOPE    C2  793   3.402   6.468  17.195 -0.2387 -0.0408 -0.3975
    7DOPE    HS  794   3.296   6.499  17.204 -0.2504  0.5205 -2.1508
    7DOPE   O21  795   3.427   6.419  17.066  0.3412 -0.3137  0.2052
    7DOPE   C21  796   3.352   6.475  16.970  0.6254  0.0173 -0.5385
    7DOPE   O22  797   3.272   6.567  16.987  0.3987 -0.3817  0.1920
    7DOPE   C22  798   3.369   6.398  16.847  0.3356 -0.4183 -0.3310
    7DOPE   H2R  799   3.295   6.315  16.846 -0.7921  0.5680 -1.1037
    7DOPE   H2S  800   3.473   6.358  16.839  0.6627  0.4282 -0.4491
    7DOPE    C3  801   3.493   6.603  17.226  0.6561 -0.4524 -0.2467
    7DOPE    HX  802   3.454   6.640  17.323  1.0292  1.6927 -0.8556
    7DOPE    HY  803   3.455   6.678  17.153 -0.1296 -1.0061 -0.4279
    7DOPE   O31  804   3.632   6.596  17.231  0.3541 -0.5362  0.0382
    7DOPE   C31  805   3.721   6.630  17.138  0.1042 -0.3818 -0.3410
    7DOPE   O32  806   3.699   6.686  17.038  0.3112 -0.1279 -0.0950
    7DOPE   C32  807   3.857   6.575  17.181 -0.3847 -0.5433 -0.3256
    7DOPE   H2X  808   3.882   6.626  17.277  0.2986 -0.5323 -0.5092
    7DOPE   H2Y  809   3.842   6.471  17.217 -0.1485 -0.1215  1.0586
    7DOPE   C23  810   3.342   6.490  16.713 -0.7862 -0.2763 -0.4294
    7DOPE   H3R  811   3.417   6.573  16.711  0.2480 -1.1897 -0.2516
    7DOPE   H3S  812   3.242   6.538  16.720 -0.3663  0.3791  2.7738
    7DOPE   C24  813   3.362   6.412  16.587 -1.0552 -0.6277  0.0714
    7DOPE   H4R  814   3.292   6.326  16.593 -1.4797 -0.2686  0.3148
    7DOPE   H4S  815   3.461   6.361  16.596 -0.0948  1.2923  0.9542
    7DOPE   C25  816   3.368   6.490  16.456  0.1145  0.3125  0.8389
    7DOPE   H5R  817   3.430   6.580  16.473 -0.3640  0.7895  0.1055
    7DOPE   H5S  818   3.264   6.523  16.434  0.4803 -0.4390 -2.6429
    7DOPE   C26  819   3.416   6.392  16.348 -0.5819  0.5989  0.6239
    7DOPE   H6R  820   3.343   6.318  16.307 -0.0457  0.4681 -0.1044
    7DOPE   H6S  821   3.499   6.330  16.387  0.2153  0.8638 -0.5902
    7DOPE   C27  822   3.467   6.468  16.216  0.1644 -0.4386  0.1966
    7DOPE   H7R  823   3.552   6.530  16.252  0.0164 -0.7854  1.1742
    7DOPE   H7S  824   3.386   6.535  16.179 -1.0050 -1.4030  0.9138
    7DOPE   C28  825   3.521   6.381  16.104  0.0666  0.0568 -0.0016
    7DOPE   H8R  826   3.588   6.309  16.155  0.3506  0.2791 -0.0563
    7DOPE   H8S  827   3.593   6.435  16.040  1.2335 -2.0794 -0.5738
    7DOPE   C29  828   3.416   6.313  16.026 -0.3373  1.4007  0.2218
    7DOPE   H9R  829   3.373   6.229  16.083  1.1788  1.1006  0.9977
    7DOPE  C210  830   3.389   6.326  15.894  0.3676  0.0132  0.4296
    7DOPE  H10R  831   3.297   6.276  15.860 -1.1524  2.2905  0.9412
    7DOPE  C211  832   3.457   6.420  15.799  1.1559 -0.1570  0.3562
    7DOPE  H11R  833   3.496   6.509  15.853 -2.4989  0.8688  1.6108
    7DOPE  H11S  834   3.393   6.449  15.713  2.2594  0.2121 -0.3531
    7DOPE  C212  835   3.572   6.341  15.731  1.2991  0.0085  0.6423
    7DOPE  H12R  836   3.543   6.246  15.682  0.6632  1.3932 -1.8561
    7DOPE  H12S  837   3.641   6.306  15.811  0.2011 -3.0539  0.3701
    7DOPE  C213  838   3.635   6.435  15.623 -0.0744 -0.5214 -0.2633
    7DOPE  H13R  839   3.669   6.531  15.667  2.9324 -1.1362 -1.0015
    7DOPE  H13S  840   3.556   6.470  15.555  0.0831  1.0234  0.3077
    7DOPE  C214  841   3.757   6.383  15.544 -0.6473  0.2799  0.1619
    7DOPE  H14R  842   3.716   6.286  15.507  3.6549 -1.5714 -0.3306
    7DOPE  H14S  843   3.844   6.372  15.612 -0.5485 -2.4615 -0.2857
    7DOPE  C215  844   3.795   6.487  15.441 -0.4673 -0.7002  0.4631
    7DOPE  H15R  845   3.823   6.577  15.499  0.6466 -1.0010  0.4177
    7DOPE  H15S  846   3.717   6.513  15.366 -0.0963 -3.9573 -1.2225
    7DOPE  C216  847   3.918   6.448  15.359  0.1692  0.0095  0.1766
    7DOPE  H16R  848   3.915   6.348  15.312  1.1495 -0.4481  1.0418
    7DOPE  H16S  849   4.012   6.438  15.417  2.1549  0.5333 -2.7165
    7DOPE  C217  850   3.942   6.543  15.244  0.6634  0.7983  0.5981
    7DOPE  H17R  851   3.975   6.635  15.296 -1.0876  0.7474  1.8916
    7DOPE  H17S  852   3.845   6.563  15.195  0.4348  0.4388  0.8979
    7DOPE  C218  853   4.053   6.494  15.155 -0.0325  0.2584  0.0857
    7DOPE  H18R  854   4.026   6.391  15.124 -1.6603  1.2418 -2.0751
    7DOPE  H18S  855   4.155   6.497  15.198  0.1319 -1.1270 -0.1838
    7DOPE  H18T  856   4.047   6.547  15.057 -0.8295 -1.5845 -0.9062
    7DOPE   C33  857   3.962   6.586  17.076 -0.8242 -0.4351 -1.0413
    7DOPE   H3X  858   4.062   6.556  17.115 -0.2652  0.7320 -1.5462
    7DOPE   H3Y  859   3.973   6.691  17.042  0.5805 -0.4750 -0.7900
    7DOPE   C34  860   3.949   6.486  16.958  0.7886 -0.1820  0.5994
    7DOPE   H4X  861   3.948   6.390  17.014  2.5701  0.2193  1.3809
    7DOPE   H4Y  862   3.855   6.496  16.899  0.6594 -0.1024  0.8168
    7DOPE   C35  863   4.063   6.498  16.859  0.2305 -0.2560 -0.0793
    7DOPE   H5X  864   4.158   6.470  16.910 -0.2011 -1.2806  0.1857
    7DOPE   H5Y  865   4.081   6.593  16.803 -1.0498 -0.2823 -0.5749
    7DOPE   C36  866   4.064   6.390  16.745  0.2346  0.0849  0.0484
    7DOPE   H6X  867   4.141   6.406  16.667 -2.6246 -1.2397 -3.3133
    7DOPE   H6Y  868   3.973   6.390  16.682  1.1207 -0.7148 -1.2730
    7DOPE   C37  869   4.087   6.247  16.798 -0.0267  0.1258 -0.1165
    7DOPE   H7X  870   4.192   6.226  16.827 -0.3577 -1.2260  0.1580
    7DOPE   H7Y  871   4.029   6.226  16.890 -0.0779  0.3716 -0.0930
    7DOPE   C38  872   4.042   6.144  16.694  0.4240 -1.4448 -0.1157
    7DOPE   H8X  873   3.938   6.179  16.679  0.6573 -0.5876  0.2025
    7DOPE   H8Y  874   4.028   6.041  16.734 -2.0054 -1.0869  0.0977
    7DOPE   C39  875   4.137   6.156  16.576  0.6155  0.1437 -0.5957
    7DOPE   H9X  876   4.244   6.140  16.595  1.5221  1.3404 -3.9748
    7DOPE  C310  877   4.100   6.170  16.447 -0.3216  0.2641  0.1093
    7DOPE  H10X  878   4.176   6.160  16.369 -0.9599 -0.2403 -0.4567
    7DOPE  C311  879   3.961   6.181  16.397  0.3686 -0.4020  0.4607
    7DOPE  H11X  880   3.888   6.197  16.480 -0.1659  2.2679 -0.4363
    7DOPE  H11Y  881   3.942   6.266  16.329  0.0283 -2.9794 -2.9549
    7DOPE  C312  882   3.923   6.065  16.314  0.3030  0.9243 -0.6351
    7DOPE  H12X  883   3.936   5.971  16.372 -1.4535 -0.0835 -1.7983
    7DOPE  H12Y  884   3.994   6.051  16.230 -0.4519 -0.8937 -1.0091
    7DOPE  C313  885   3.783   6.087  16.264  0.2639  0.0954  0.2428
    7DOPE  H13X  886   3.715   6.051  16.344  0.7181 -0.5090  0.3599
    7DOPE  H13Y  887   3.758   6.194  16.250 -3.0828 -0.5991  0.1575
    7DOPE  C314  888   3.752   6.009  16.134  0.6437  0.2012  0.1401
    7DOPE  H14X  889   3.650   5.965  16.124  1.3980 -1.7866  0.7060
    7DOPE  H14Y  890   3.813   5.916  16.125  0.0463 -0.3076  1.1781
    7DOPE  C315  891   3.774   6.091  15.999  0.2108 -0.4385  0.1979
    7DOPE  H15X  892   3.733   6.194  15.999 -1.5074 -1.0864 -0.6848
    7DOPE  H15Y  893   3.716   6.051  15.914  0.2818 -0.4082  0.1351
    7DOPE  C316  894   3.931   6.096  15.963  0.3174 -0.4000 -0.1394
    7DOPE  H16X  895   3.985   6.001  15.981  0.0578 -0.1706  2.0650
    7DOPE  H16Y  896   3.981   6.180  16.015 -0.5935  0.5097 -0.7063
    7DOPE  C317  897   3.942   6.131  15.809  0.1648  0.0378 -1.2205
    7DOPE  H17X  898   3.871   6.067  15.752 -2.5086 -0.3682  2.1791
    7DOPE  H17Y  899   3.902   6.235  15.804  0.4650  0.2482  0.3393
    7DOPE  C318  900   4.085   6.127  15.763 -0.4479  0.1695 -0.2782
    7DOPE  H18X  901   4.132   6.036  15.806 -1.4871 -0.2395  0.0129
    7DOPE  H18Y  902   4.075   6.135  15.653  0.0078  0.9737 -0.2683
    7DOPE  H18Z  903   4.143   6.216  15.797 -1.5095  0.7284  0.1305
    8DOPE     N  904   5.797   1.110  17.639  0.7964 -0.0183 -0.0508
    8DOPE   HN1  905   5.767   1.122  17.540 -0.4865  2.2445  0.5293
    8DOPE   HN2  906   5.715   1.070  17.689  0.8209 -3.0488 -2.1716
    8DOPE   HN3  907   5.816   1.205  17.677  3.5190 -0.6907  0.4304
    8DOPE   C12  908   5.912   1.016  17.652 -0.6821 -0.2770 -0.5448
    8DOPE  H12A  909   5.864   0.916  17.647  1.6326 -1.4356 -1.7016
    8DOPE  H12B  910   5.960   1.039  17.749  0.9454 -0.2160 -1.3200
    8DOPE   C11  911   6.010   1.032  17.542  0.2109 -0.8594  0.4310
    8DOPE  H11A  912   5.966   1.014  17.442 -0.3432  3.2458 -0.2235
    8DOPE  H11B  913   6.087   0.955  17.566  1.4158  0.7189  1.8839
    8DOPE     P  914   6.187   1.176  17.428  0.3899 -0.0620 -0.4341
    8DOPE   O13  915   6.172   1.075  17.325 -0.7414  0.0618 -0.1003
    8DOPE   O14  916   6.314   1.170  17.504 -0.1754  1.1431  0.1227
    8DOPE   O11  917   6.159   1.320  17.373  0.0565  0.2467  0.3211
    8DOPE   O12  918   6.061   1.165  17.529  0.3560 -0.4080  0.3467
    8DOPE    C1  919   6.030   1.368  17.342  0.5904 -0.2448 -0.1625
    8DOPE    HA  920   6.040   1.478  17.326  0.8208  0.0147  1.5590
    8DOPE    HB  921   5.957   1.361  17.426  0.5128  2.5982  0.1081
    8DOPE    C2  922   5.976   1.306  17.211 -0.4864 -0.0370 -0.5410
    8DOPE    HS  923   5.955   1.198  17.228  0.1280 -0.4208 -2.0440
    8DOPE   O21  924   6.078   1.313  17.112 -0.0553 -0.3454 -0.3357
    8DOPE   C21  925   6.089   1.215  17.025 -0.6476  0.0611  0.7412
    8DOPE   O22  926   6.022   1.112  17.018 -0.1534  0.3985  0.3400
    8DOPE   C22  927   6.187   1.268  16.918  0.2023 -0.1737  0.2896
    8DOPE   H2R  928   6.288   1.266  16.965  0.2936  1.8237  0.2494
    8DOPE   H2S  929   6.160   1.374  16.900 -2.1603 -0.8088 -0.2689
    8DOPE    C3  930   5.848   1.369  17.156 -0.0353 -0.0788 -1.4632
    8DOPE    HX  931   5.867   1.476  17.136 -0.9542  0.0559 -1.6812
    8DOPE    HY  932   5.778   1.364  17.243  1.8573  1.0548  0.2118
    8DOPE   O31  933   5.797   1.317  17.027 -0.1905  0.3772 -0.2038
    8DOPE   C31  934   5.715   1.217  17.031 -0.7287 -0.8035  0.8553
    8DOPE   O32  935   5.648   1.187  17.127 -0.3041  0.2245  0.2620
    8DOPE   C32  936   5.718   1.133  16.899  0.3217  0.1616  0.1224
    8DOPE   H2X  937   5.817   1.082  16.896  0.4921  0.5049 -0.2353
    8DOPE   H2Y  938   5.641   1.053  16.907  0.0913  0.2993 -0.6831
    8DOPE   C23  939   6.189   1.187  16.788 -0.8326 -0.0557  0.1418
    8DOPE   H3R  940   6.100   1.211  16.727 -1.2945 -0.6017  0.5950
    8DOPE   H3S  941   6.199   1.080  16.816  1.1164 -0.0412 -0.3389
    8DOPE   C24  942   6.324   1.209  16.718 -0.1057  0.1288  0.0812
    8DOPE   H4R  943   6.411   1.184  16.782  0.0367 -0.4459 -0.3292
    8DOPE   H4S  944   6.325   1.320  16.716 -1.8374  0.1760  0.5575
    8DOPE   C25  945   6.329   1.142  16.578 -0.5579  0.0840 -0.4060
    8DOPE   H5R  946   6.414   1.185  16.520  1.8545  0.1719  2.8835
    8DOPE   H5S  947   6.234   1.162  16.525 -1.4088 -3.8682 -0.6799
    8DOPE   C26  948   6.350   0.997  16.596  0.5346 -0.4678 -0.7993
    8DOPE   H6R  949   6.254   0.951  16.629  2.1538 -3.4213  0.1894
    8DOPE   H6S  950   6.423   0.963  16.672  0.8671 -3.0209 -2.1421
    8DOPE   C27  951   6.396   0.929  16.465 -0.1057 -0.1528 -0.7810
    8DOPE   H7R  952   6.406   0.821  16.487  0.8096 -0.3235 -1.9008
    8DOPE   H7S  953   6.503   0.959  16.454  0.0021 -0.0132  0.5140
    8DOPE   C28  954   6.315   0.957  16.340 -0.4832 -0.7033  0.3812
    8DOPE   H8R  955   6.330   1.064  16.314 -1.2658 -0.9672 -1.2546
    8DOPE   H8S  956   6.204   0.953  16.347 -0.4960 -1.3485 -0.1530
    8DOPE   C29  957   6.357   0.871  16.224 -0.6151  0.3001  0.9460
    8DOPE   H9R  958   6.307   0.773  16.221 -0.8486  0.4180  0.9722
    8DOPE  C210  959   6.429   0.914  16.113  0.0146 -0.2462 -0.1988
    8DOPE  H10R  960   6.433   0.850  16.024 -0.3420 -0.4981 -0.0341
    8DOPE  C211  961   6.475   1.058  16.091 -0.1095 -0.6663  0.0287
    8DOPE  H11R  962   6.583   1.067  16.112  0.2327 -0.3534 -1.7081
    8DOPE  H11S  963   6.418   1.146  16.129  0.0558  0.5746 -2.3709
    8DOPE  C212  964   6.464   1.089  15.940  0.7570  0.4667 -0.6374
    8DOPE  H12R  965   6.356   1.109  15.927 -0.7651 -3.9173  2.6984
    8DOPE  H12S  966   6.502   1.015  15.866  0.7310  1.0081 -1.1979
    8DOPE  C213  967   6.548   1.210  15.905 -0.1453 -0.0606  0.1668
    8DOPE  H13R  968   6.655   1.181  15.905  0.8133  3.0746  0.3163
    8DOPE  H13S  969   6.538   1.301  15.968 -1.6385  0.2826 -0.5117
    8DOPE  C214  970   6.528   1.257  15.761  0.3197 -0.4115 -0.1948
    8DOPE  H14R  971   6.417   1.267  15.756  0.2530 -1.0386 -0.1043
    8DOPE  H14S  972   6.567   1.176  15.695 -2.1556 -1.0083 -1.0198
    8DOPE  C215  973   6.597   1.398  15.730  0.3936 -0.0772  0.2017
    8DOPE  H15R  974   6.707   1.388  15.748  0.1556 -1.9812  0.8626
    8DOPE  H15S  975   6.561   1.475  15.801 -1.2826 -1.2018  0.6245
    8DOPE  C216  976   6.582   1.440  15.583  0.6292  0.4428 -0.0090
    8DOPE  H16R  977   6.584   1.349  15.520 -0.0175  0.0729  0.4957
    8DOPE  H16S  978   6.664   1.510  15.557 -0.8032  1.4623 -2.0675
    8DOPE  C217  979   6.453   1.525  15.565 -0.0996 -0.6662 -0.5574
    8DOPE  H17R  980   6.476   1.617  15.623  0.0898 -0.6927 -0.5893
    8DOPE  H17S  981   6.375   1.463  15.613  0.7963 -1.0150  0.5132
    8DOPE  C218  982   6.404   1.553  15.421 -0.0165  0.8307 -0.3875
    8DOPE  H18R  983   6.495   1.578  15.362  1.5268 -0.4074  1.3440
    8DOPE  H18S  984   6.339   1.644  15.421  2.6778  3.1278  3.8787
    8DOPE  H18T  985   6.371   1.456  15.378  2.1412  0.6309 -1.7468
    8DOPE   C33  986   5.679   1.209  16.774 -0.9894 -1.1361  0.1384
    8DOPE   H3X  987   5.746   1.293  16.745 -2.5670 -0.1826 -0.8550
    8DOPE   H3Y  988   5.581   1.253  16.800 -1.2847 -1.0628 -1.0706
    8DOPE   C34  989   5.666   1.120  16.652  0.9670 -0.0248  0.5271
    8DOPE   H4X  990   5.762   1.067  16.633  0.2582 -0.8026 -1.0443
    8DOPE   H4Y  991   5.589   1.043  16.672 -0.2446  0.4878 -1.7764
    8DOPE   C35  992   5.605   1.201  16.531 -0.3750  0.1078 -0.1634
    8DOPE   H5X  993   5.677   1.277  16.494 -0.1386 -0.7126 -1.4617
    8DOPE   H5Y  994   5.514   1.254  16.564 -0.6548  0.0415 -0.8134
    8DOPE   C36  995   5.555   1.110  16.416 -0.2078  0.3874 -0.2296
    8DOPE   H6X  996   5.484   1.039  16.464 -0.1018 -1.1411 -2.1938
    8DOPE   H6Y  997   5.641   1.048  16.384  0.9004  1.0235  1.4087
    8DOPE   C37  998   5.486   1.177  16.300 -0.6063  0.4182  0.2448
    8DOPE   H7X  999   5.405   1.243  16.337  0.3235  1.6529  0.1697
    8DOPE   H7Y 1000   5.566   1.241  16.257 -0.5895  0.6116  0.5557
    8DOPE   C38 1001   5.438   1.083  16.189  0.2407  0.5073  0.2161
    8DOPE   H8X 1002   5.383   1.149  16.119  1.7494 -0.2027 -1.7338
    8DOPE   H8Y 1003   5.362   1.014  16.230 -2.0541  3.3301  1.0167
    8DOPE   C39 1004   5.544   1.014  16.114  0.2292 -0.3745  0.5345
    8DOPE   H9X 1005   5.567   0.913  16.153  2.1076 -0.4324 -0.5696
    8DOPE  C310 1006   5.624   1.062  16.019 -0.8270 -0.5723 -0.5289
    8DOPE  H10X 1007   5.706   1.007  15.971  0.0856  0.0669  0.2559
    8DOPE  C311 1008   5.624   1.209  15.983  0.1288 -0.0747 -0.1206
    8DOPE  H11X 1009   5.536   1.265  16.019  0.5383  1.1041 -0.9120
    8DOPE  H11Y 1010   5.715   1.266  16.012 -1.4869  2.3322  0.5121
    8DOPE  C312 1011   5.612   1.218  15.826 -0.5594  0.4746  0.5873
    8DOPE  H12X 1012   5.516   1.173  15.790 -1.0371  0.5598  1.7305
    8DOPE  H12Y 1013   5.695   1.156  15.785 -1.2602 -0.2023  0.1673
    8DOPE  C313 1014   5.619   1.361  15.772  0.8014 -0.2100  0.0954
    8DOPE  H13X 1015   5.520   1.408  15.789  1.4575  1.9630 -1.7032
    8DOPE  H13Y 1016   5.699   1.422  15.818  0.0862  2.3316 -1.8420
    8DOPE  C314 1017   5.643   1.368  15.619 -0.0271  0.3548  0.1370
    8DOPE  H14X 1018   5.568   1.309  15.563  0.5146 -0.2320  0.0186
    8DOPE  H14Y 1019   5.738   1.314  15.597 -0.0774 -0.3659  1.5930
    8DOPE  C315 1020   5.648   1.518  15.566 -0.5352  0.3260  0.6183
    8DOPE  H15X 1021   5.718   1.517  15.480 -0.5853  0.4763  0.5780
    8DOPE  H15Y 1022   5.690   1.589  15.640  2.2699  1.6933 -2.0562
    8DOPE  C316 1023   5.516   1.566  15.499  0.4941  0.0550  0.0517
    8DOPE  H16X 1024   5.443   1.554  15.582 -0.3416 -2.9391 -1.0008
    8DOPE  H16Y 1025   5.483   1.491  15.424 -1.5622  2.0832 -1.1561
    8DOPE  C317 1026   5.531   1.700  15.431  0.3197 -0.4002 -0.0321
    8DOPE  H17X 1027   5.562   1.775  15.507  2.5531 -1.2235 -0.0814
    8DOPE  H17Y 1028   5.615   1.690  15.360  1.1825 -3.1857  1.2376
    8DOPE  C318 1029   5.403   1.752  15.375  1.3093  0.3376 -0.0131
    8DOPE  H18X 1030   5.360   1.671  15.313  1.1916  0.2484  0.1864
    8DOPE  H18Y 1031   5.418   1.844  15.314 -1.6060  0.0488 -1.3032
    8DOPE  H18Z 1032   5.338   1.776  15.461  2.4591 -0.2440  1.0622
    9DOPE     N 1033   0.009   4.576  17.724 -0.3593  0.2737 -0.3759
    9DOPE   HN1 1034  -0.041   4.652  17.674 -0.3370  0.0727 -0.7084
    9DOPE   HN2 1035  -0.019   4.484  17.685 -0.3577 -0.7652  1.9165
    9DOPE   HN3 1036  -0.022   4.570  17.823  0.1877 -1.7054 -0.2840
    9DOPE   C12 1037   0.157   4.603  17.727 -0.0261  0.2969 -0.1193
    9DOPE  H12A 1038   0.209   4.509  17.759  0.0752  0.1606 -0.6822
    9DOPE  H12B 1039   0.180   4.676  17.807  0.2455  0.5217 -0.4007
    9DOPE   C11 1040   0.205   4.651  17.590 -0.0680 -0.1200 -0.3294
    9DOPE  H11A 1041   0.200   4.572  17.512 -0.7281 -1.9013  1.4367
    9DOPE  H11B 1042   0.313   4.671  17.604 -0.4085  2.5291 -0.8310
    9DOPE     P 1043   0.201   4.907  17.529  0.2230  0.3035  0.3516
    9DOPE   O13 1044   0.330   4.929  17.604  0.3739  0.0036 -0.3428
    9DOPE   O14 1045   0.096   5.012  17.523 -0.2653  0.7370 -0.3601
    9DOPE   O11 1046   0.241   4.890  17.375  0.5451 -0.5832 -0.3192
    9DOPE   O12 1047   0.136   4.771  17.560 -0.0001 -0.6035 -0.2787
    9DOPE    C1 1048   0.150   4.820  17.289 -0.0030 -0.3014 -0.0001
    9DOPE    HA 1049   0.050   4.796  17.332  0.3431 -0.4478  0.7524
    9DOPE    HB 1050   0.208   4.731  17.256 -2.5368 -0.4968 -4.6491
    9DOPE    C2 1051   0.127   4.901  17.152 -0.4883  0.1926 -0.4722
    9DOPE    HS 1052   0.068   4.836  17.084 -0.0336 -0.2611 -0.4393
    9DOPE   O21 1053   0.248   4.948  17.089 -0.2872 -0.5983  0.1578
    9DOPE   C21 1054   0.341   4.868  17.055  0.7929 -0.2752  0.1934
    9DOPE   O22 1055   0.336   4.746  17.052  0.3225  0.5294  0.0020
    9DOPE   C22 1056   0.471   4.947  17.030  0.4437  0.6297 -0.7235
    9DOPE   H2R 1057   0.560   4.884  17.052 -0.7686 -0.4405  1.4599
    9DOPE   H2S 1058   0.464   5.029  17.105  1.2621  0.6529 -0.6661
    9DOPE    C3 1059   0.028   5.017  17.179 -0.8715 -0.0499 -0.0878
    9DOPE    HX 1060   0.063   5.076  17.267  1.6783  1.8191 -2.1765
    9DOPE    HY 1061  -0.072   4.974  17.201 -0.6982 -0.7099 -0.5508
    9DOPE   O31 1062   0.024   5.100  17.060  0.1670  0.5137  0.2301
    9DOPE   C31 1063   0.085   5.218  17.055 -0.5128 -0.4019  0.2811
    9DOPE   O32 1064   0.165   5.256  17.140 -0.2593 -0.4343 -0.7873
    9DOPE   C32 1065   0.044   5.280  16.927  0.1030  0.4237 -0.2594
    9DOPE   H2X 1066   0.108   5.237  16.846  0.5506 -2.0428  1.3153
    9DOPE   H2Y 1067  -0.062   5.256  16.904  0.6608 -1.8671 -0.6622
    9DOPE   C23 1068   0.485   5.018  16.892  0.0431  0.2990 -0.0763
    9DOPE   H3R 1069   0.463   4.946  16.811  1.9270 -2.0558  1.3728
    9DOPE   H3S 1070   0.590   5.053  16.892  0.4274 -0.7685  1.2306
    9DOPE   C24 1071   0.388   5.135  16.886  0.0268 -1.3913  0.3581
    9DOPE   H4R 1072   0.395   5.189  16.983 -1.5519 -0.0198 -0.2419
    9DOPE   H4S 1073   0.285   5.098  16.865  0.0502 -0.1681 -2.3015
    9DOPE   C25 1074   0.398   5.227  16.759 -0.5441 -0.6360  1.0381
    9DOPE   H5R 1075   0.506   5.246  16.746 -0.5780 -1.2112 -0.2327
    9DOPE   H5S 1076   0.345   5.322  16.781 -2.6057 -1.7025  0.9178
    9DOPE   C26 1077   0.336   5.163  16.633 -0.6043 -0.5736  1.0563
    9DOPE   H6R 1078   0.234   5.129  16.659  0.0905 -1.1979  3.1348
    9DOPE   H6S 1079   0.404   5.080  16.604  0.1443  0.5727 -0.6458
    9DOPE   C27 1080   0.320   5.268  16.523  0.6294  0.3674  0.2281
    9DOPE   H7R 1081   0.415   5.302  16.475  0.1205 -1.4336 -2.2980
    9DOPE   H7S 1082   0.276   5.356  16.573 -0.4065 -0.3206  0.5430
    9DOPE   C28 1083   0.231   5.218  16.403 -0.1476 -0.6392 -0.7573
    9DOPE   H8R 1084   0.128   5.192  16.435 -0.0033 -0.4756 -0.1469
    9DOPE   H8S 1085   0.282   5.127  16.364  0.0837 -0.8036 -0.0991
    9DOPE   C29 1086   0.232   5.331  16.305 -0.7439 -0.4009  0.5788
    9DOPE   H9R 1087   0.164   5.413  16.332 -1.9257 -0.9868 -0.5092
    9DOPE  C210 1088   0.275   5.329  16.180 -0.0120 -0.6599 -0.1604
    9DOPE  H10R 1089   0.269   5.421  16.120 -0.9048 -1.0888 -0.7458
    9DOPE  C211 1090   0.352   5.225  16.104  0.1284  0.3071 -0.4998
    9DOPE  H11R 1091   0.338   5.138  16.171 -0.9027 -0.8243 -2.0903
    9DOPE  H11S 1092   0.457   5.252  16.080  0.4109  0.0294  0.4024
    9DOPE  C212 1093   0.278   5.179  15.973 -0.2885 -0.5611 -0.4249
    9DOPE  H12R 1094   0.169   5.188  15.992  0.0812 -0.1037  1.8223
    9DOPE  H12S 1095   0.319   5.081  15.940  0.2665 -1.0638  1.5782
    9DOPE  C213 1096   0.311   5.282  15.861  0.0947  0.3916  0.7602
    9DOPE  H13R 1097   0.412   5.327  15.859 -0.2902  1.2706  0.3276
    9DOPE  H13S 1098   0.243   5.370  15.871  1.0232  1.0179  1.7131
    9DOPE  C214 1099   0.303   5.211  15.723  0.3799 -0.3201 -0.4152
    9DOPE  H14R 1100   0.196   5.192  15.696  0.4365 -1.3676  0.0487
    9DOPE  H14S 1101   0.346   5.109  15.729 -0.9978 -0.8519  3.2393
    9DOPE  C215 1102   0.363   5.300  15.615 -0.6076  0.5433  0.2316
    9DOPE  H15R 1103   0.471   5.312  15.638 -0.5825 -0.1593  0.4946
    9DOPE  H15S 1104   0.301   5.392  15.608 -1.6728  0.1057  2.8428
    9DOPE  C216 1105   0.362   5.235  15.478 -0.0897  0.4861 -0.0695
    9DOPE  H16R 1106   0.261   5.200  15.446 -0.0095 -0.4571  0.6536
    9DOPE  H16S 1107   0.436   5.152  15.482 -1.3638 -0.6912 -0.2761
    9DOPE  C217 1108   0.413   5.320  15.361 -0.5280 -0.5808  0.5292
    9DOPE  H17R 1109   0.506   5.374  15.388  0.3470 -2.2862  1.0697
    9DOPE  H17S 1110   0.329   5.389  15.340 -2.2659 -2.3412  1.3669
    9DOPE  C218 1111   0.437   5.236  15.233 -0.0613  0.2759 -0.2817
    9DOPE  H18R 1112   0.451   5.300  15.144 -2.5601  0.4637 -0.5927
    9DOPE  H18S 1113   0.351   5.165  15.236  0.1361  0.0236  2.7617
    9DOPE  H18T 1114   0.531   5.177  15.240 -0.0172  0.0577 -2.2767
    9DOPE   C33 1115   0.067   5.433  16.922 -0.4861  0.4753  0.4995
    9DOPE   H3X 1116   0.176   5.448  16.932 -0.0987 -1.6766 -0.0385
    9DOPE   H3Y 1117   0.018   5.481  17.009 -0.9896  4.0035 -1.5241
    9DOPE   C34 1118   0.017   5.491  16.789 -0.2596  0.0017  0.4002
    9DOPE   H4X 1119   0.029   5.420  16.704 -2.4242  0.3993 -0.3145
    9DOPE   H4Y 1120  -0.090   5.520  16.787 -0.7844 -1.7951  1.0212
    9DOPE   C35 1121   0.098   5.619  16.737 -0.0799 -0.1493  0.8234
    9DOPE   H5X 1122   0.203   5.585  16.727 -0.6157 -1.7949  0.5689
    9DOPE   H5Y 1123   0.082   5.702  16.810 -0.4306  2.1406 -1.6960
    9DOPE   C36 1124   0.037   5.653  16.598 -0.4501  0.0716  0.0804
    9DOPE   H6X 1125  -0.072   5.670  16.611 -0.7156 -1.0994 -0.5282
    9DOPE   H6Y 1126   0.055   5.564  16.535  0.2595  1.4139 -1.6680
    9DOPE   C37 1127   0.105   5.775  16.533  0.9817 -0.0609 -0.1130
    9DOPE   H7X 1128   0.077   5.875  16.574  0.4853  0.7275 -2.2171
    9DOPE   H7Y 1129   0.214   5.757  16.541  0.7929 -0.6443  1.4135
    9DOPE   C38 1130   0.058   5.777  16.383  1.2034 -0.4089  0.8407
    9DOPE   H8X 1131  -0.052   5.781  16.391  1.1312 -0.5880  0.0440
    9DOPE   H8Y 1132   0.073   5.675  16.342  0.8235  0.0693 -0.5411
    9DOPE   C39 1133   0.107   5.889  16.290  0.1145 -0.3489 -0.2965
    9DOPE   H9X 1134   0.066   5.987  16.316  0.2804 -0.8757  2.2384
    9DOPE  C310 1135   0.192   5.871  16.186  0.2019  0.0645  0.2053
    9DOPE  H10X 1136   0.196   5.962  16.124  0.0059  1.8980  2.7575
    9DOPE  C311 1137   0.268   5.744  16.143 -0.2265 -0.0216 -0.5083
    9DOPE  H11X 1138   0.377   5.764  16.143 -0.0555 -0.9480 -0.2034
    9DOPE  H11Y 1139   0.255   5.670  16.225 -0.4967  0.7533  0.1692
    9DOPE  C312 1140   0.234   5.679  16.010 -0.2686  0.1036 -0.0153
    9DOPE  H12X 1141   0.132   5.640  16.030  0.0226  0.0791  1.5756
    9DOPE  H12Y 1142   0.319   5.608  16.000 -0.0340  0.3437  0.2369
    9DOPE  C313 1143   0.238   5.772  15.887  0.4511 -0.3821 -0.0122
    9DOPE  H13X 1144   0.161   5.852  15.892 -0.3507 -1.0777 -0.7564
    9DOPE  H13Y 1145   0.335   5.825  15.897  0.4624 -0.4434  0.2100
    9DOPE  C314 1146   0.232   5.697  15.754 -0.3505 -0.2517 -0.0872
    9DOPE  H14X 1147   0.142   5.631  15.752  0.2599 -1.0817 -1.3420
    9DOPE  H14Y 1148   0.315   5.624  15.755 -0.0733  0.0618  0.1897
    9DOPE  C315 1149   0.242   5.784  15.622  0.4251 -0.8864 -0.7623
    9DOPE  H15X 1150   0.324   5.859  15.628 -0.6616  0.2815  0.4994
    9DOPE  H15Y 1151   0.159   5.858  15.620  1.8626  0.8022 -0.2943
    9DOPE  C316 1152   0.228   5.701  15.499 -0.0924 -0.1106  0.3869
    9DOPE  H16X 1153   0.141   5.632  15.504  0.3977 -0.7998 -0.3793
    9DOPE  H16Y 1154   0.314   5.632  15.497  1.4827  1.6121  2.6118
    9DOPE  C317 1155   0.213   5.782  15.371 -0.1705 -0.2168 -0.7446
    9DOPE  H17X 1156   0.208   5.705  15.291 -0.8114 -0.4313 -0.5038
    9DOPE  H17Y 1157   0.114   5.832  15.371  0.8957  2.0888  1.1217
    9DOPE  C318 1158   0.326   5.885  15.350 -0.1836  0.2410  0.4600
    9DOPE  H18X 1159   0.322   5.963  15.428  0.4850  1.2307 -0.4647
    9DOPE  H18Y 1160   0.430   5.845  15.353 -1.2109 -2.7568 -0.3067
    9DOPE  H18Z 1161   0.311   5.938  15.254  0.8686 -0.8715 -0.3575
   10DOPE     N 1162   2.184   5.594  17.610 -0.5201  0.3343 -0.3879
   10DOPE   HN1 1163   2.272   5.646  17.594 -0.1628 -0.4331 -0.9862
   10DOPE   HN2 1164   2.222   5.514  17.665  0.2553  2.0524  1.7381
   10DOPE   HN3 1165   2.152   5.568  17.515 -1.6460  1.5813 -0.3856
   10DOPE   C12 1166   2.070   5.667  17.683 -0.9346  1.0264 -0.5163
   10DOPE  H12A 1167   2.113   5.714  17.774  1.4246 -1.3317 -0.2838
   10DOPE  H12B 1168   1.997   5.593  17.722  0.5340 -0.3652 -0.3011
   10DOPE   C11 1169   2.009   5.779  17.601 -0.4850 -0.0283 -0.1309
   10DOPE  H11A 1170   1.921   5.818  17.657 -0.6761 -2.3260  1.3052
   10DOPE  H11B 1171   1.974   5.741  17.503  0.0705 -0.3575 -0.2045
   10DOPE     P 1172   2.069   6.015  17.516 -0.1894 -0.1238  0.0711
   10DOPE   O13 1173   2.192   6.086  17.484 -0.4499  0.2271 -0.3391
   10DOPE   O14 1174   1.962   6.090  17.597 -0.1432 -0.2603 -0.1232
   10DOPE   O11 1175   1.997   5.973  17.381 -0.1401  0.5337  0.5517
   10DOPE   O12 1176   2.107   5.880  17.591  0.1573 -0.1231  0.5194
   10DOPE    C1 1177   2.072   5.904  17.282 -0.2366 -0.0373  0.0456
   10DOPE    HA 1178   2.050   5.796  17.295  0.2620 -0.3138 -1.2346
   10DOPE    HB 1179   2.182   5.919  17.290 -0.3061  0.1796  0.6079
   10DOPE    C2 1180   2.042   5.960  17.137  0.4851  0.4265 -0.0196
   10DOPE    HS 1181   2.054   6.071  17.140 -0.4961  0.5275  2.2293
   10DOPE   O21 1182   1.911   5.920  17.098  0.2859 -0.0086 -0.0583
   10DOPE   C21 1183   1.808   5.989  17.124 -0.2797  0.5023  0.9077
   10DOPE   O22 1184   1.806   6.108  17.168 -0.2363  0.4200  0.1523
   10DOPE   C22 1185   1.687   5.895  17.079  0.0748  0.0508  0.0900
   10DOPE   H2R 1186   1.601   5.921  17.143 -0.4423  1.9293 -1.2667
   10DOPE   H2S 1187   1.725   5.792  17.093 -0.0162 -0.0350 -0.2787
   10DOPE    C3 1188   2.144   5.904  17.030  0.0203 -0.0064 -0.0363
   10DOPE    HX 1189   2.165   5.802  17.066 -0.5341  0.6880  2.4808
   10DOPE    HY 1190   2.248   5.943  17.025 -0.0075  0.2298  0.8988
   10DOPE   O31 1191   2.090   5.903  16.893  0.0741 -0.0397  0.4851
   10DOPE   C31 1192   2.113   6.023  16.836  0.8908  0.6928  0.5241
   10DOPE   O32 1193   2.194   6.103  16.875  0.2511 -0.4975 -0.4412
   10DOPE   C32 1194   2.014   6.046  16.715 -0.0220 -0.1447  0.1460
   10DOPE   H2X 1195   1.997   5.945  16.672  0.2183  0.3144 -1.0499
   10DOPE   H2Y 1196   1.919   6.086  16.757  0.4980  2.4324 -0.9608
   10DOPE   C23 1197   1.645   5.913  16.937  0.4209 -0.0984  0.2191
   10DOPE   H3R 1198   1.734   5.896  16.872 -0.7776 -1.5859 -1.1040
   10DOPE   H3S 1199   1.618   6.019  16.915 -0.1295 -0.0273  1.2065
   10DOPE   C24 1200   1.534   5.815  16.884  0.3214  0.4583 -0.7529
   10DOPE   H4R 1201   1.437   5.865  16.905 -0.4152 -0.7529 -1.1823
   10DOPE   H4S 1202   1.530   5.719  16.940 -1.8866  0.9207 -0.0110
   10DOPE   C25 1203   1.540   5.793  16.738 -0.2363  1.1334  0.1155
   10DOPE   H5R 1204   1.639   5.760  16.699 -1.2773 -0.7205 -1.1034
   10DOPE   H5S 1205   1.535   5.889  16.681  1.2463  0.8778 -0.4941
   10DOPE   C26 1206   1.432   5.694  16.688 -0.5369 -0.3408 -0.0738
   10DOPE   H6R 1207   1.332   5.736  16.714 -0.0423  0.6898  0.2060
   10DOPE   H6S 1208   1.448   5.602  16.748  1.3139 -1.2316 -1.8186
   10DOPE   C27 1209   1.435   5.660  16.541 -0.9450 -0.4144  1.0036
   10DOPE   H7R 1210   1.423   5.759  16.493 -1.1275 -0.8092  0.2172
   10DOPE   H7S 1211   1.351   5.591  16.517 -0.2385 -0.6925 -0.7763
   10DOPE   C28 1212   1.564   5.600  16.495 -0.2174  1.1505 -0.4911
   10DOPE   H8R 1213   1.601   5.531  16.573  1.1093 -1.8536 -3.5491
   10DOPE   H8S 1214   1.651   5.669  16.497  1.2780 -0.6611  1.5346
   10DOPE   C29 1215   1.569   5.521  16.365 -0.5694 -0.3544  0.0172
   10DOPE   H9R 1216   1.588   5.413  16.372  1.4664 -0.0409 -0.0037
   10DOPE  C210 1217   1.517   5.563  16.247  0.2909 -0.3037  0.3770
   10DOPE  H10R 1218   1.511   5.499  16.158 -1.2162  1.0036 -0.5215
   10DOPE  C211 1219   1.455   5.701  16.221 -0.5011 -0.2628  0.2294
   10DOPE  H11R 1220   1.507   5.776  16.284 -0.3336  2.7004 -3.1152
   10DOPE  H11S 1221   1.345   5.702  16.236 -0.6660  1.1370 -0.8754
   10DOPE  C212 1222   1.477   5.759  16.081  0.2512 -0.6434 -0.3000
   10DOPE  H12R 1223   1.584   5.774  16.054 -0.0487 -0.3154 -1.3409
   10DOPE  H12S 1224   1.416   5.851  16.085  0.0305 -0.7408  3.8564
   10DOPE  C213 1225   1.424   5.680  15.960  0.1847 -0.2403  0.9114
   10DOPE  H13R 1226   1.315   5.666  15.978  0.2808 -3.2379 -0.2474
   10DOPE  H13S 1227   1.476   5.583  15.944 -0.7512 -0.5211 -0.6871
   10DOPE  C214 1228   1.415   5.748  15.818 -0.0865  0.8015 -0.2007
   10DOPE  H14R 1229   1.370   5.849  15.828 -0.9766  0.5874 -1.7398
   10DOPE  H14S 1230   1.369   5.671  15.752  0.5416 -1.2669  1.6248
   10DOPE  C215 1231   1.557   5.764  15.757  0.5855 -0.1395 -0.2992
   10DOPE  H15R 1232   1.607   5.665  15.766 -0.6061 -0.5860  2.2911
   10DOPE  H15S 1233   1.613   5.836  15.820  0.7628 -0.0478 -0.5570
   10DOPE  C216 1234   1.549   5.825  15.622 -0.5849  0.4695 -0.2801
   10DOPE  H16R 1235   1.656   5.834  15.593 -0.7239 -1.2282 -1.4462
   10DOPE  H16S 1236   1.493   5.921  15.622  0.5086  1.1313  0.4440
   10DOPE  C217 1237   1.490   5.730  15.507  0.1298 -0.2712  0.1528
   10DOPE  H17R 1238   1.380   5.717  15.516  0.2537 -0.9643  0.7880
   10DOPE  H17S 1239   1.542   5.632  15.518  1.2111  0.2655 -0.0066
   10DOPE  C218 1240   1.515   5.774  15.361  0.1955  0.2591 -0.3722
   10DOPE  H18R 1241   1.481   5.880  15.348  0.6514  0.5752  0.8866
   10DOPE  H18S 1242   1.476   5.704  15.284  1.4837  0.2180 -1.0105
   10DOPE  H18T 1243   1.621   5.804  15.350  1.0018 -2.3200 -0.1382
   10DOPE   C33 1244   2.069   6.159  16.614 -0.6419 -0.4659 -0.6116
   10DOPE   H3X 1245   2.146   6.113  16.548 -2.0499 -0.2901 -2.4439
   10DOPE   H3Y 1246   2.109   6.245  16.671 -2.1814 -1.0830  1.5347
   10DOPE   C34 1247   1.957   6.202  16.518  0.0044  0.3678 -0.2747
   10DOPE   H4X 1248   1.878   6.259  16.571  0.7990  2.0077 -0.7955
   10DOPE   H4Y 1249   2.004   6.257  16.434 -2.4894  2.8389 -0.1845
   10DOPE   C35 1250   1.880   6.093  16.446  0.5523  0.3293  0.1562
   10DOPE   H5X 1251   1.796   6.141  16.391  1.7265 -0.5448 -2.5574
   10DOPE   H5Y 1252   1.834   6.025  16.520 -0.9344  1.9822  0.8485
   10DOPE   C36 1253   1.952   6.002  16.338 -1.1863  0.5068  0.0878
   10DOPE   H6X 1254   2.030   5.941  16.390 -2.1788 -0.5720  0.3656
   10DOPE   H6Y 1255   2.008   6.059  16.262 -0.0928  0.9872  1.2217
   10DOPE   C37 1256   1.860   5.909  16.263  0.0724  0.1834 -0.2994
   10DOPE   H7X 1257   1.778   5.871  16.329  1.4499 -1.4922  0.5294
   10DOPE   H7Y 1258   1.809   5.955  16.176 -0.9665 -0.9841 -0.3460
   10DOPE   C38 1259   1.942   5.791  16.203 -0.1914  0.2558 -0.6081
   10DOPE   H8X 1260   1.994   5.759  16.296 -1.8034  0.0179  0.2517
   10DOPE   H8Y 1261   2.014   5.831  16.128  2.9452 -2.3838  0.7224
   10DOPE   C39 1262   1.842   5.689  16.154  0.1529 -0.1758  0.0735
   10DOPE   H9X 1263   1.796   5.626  16.232  0.0702 -4.7128 -3.2386
   10DOPE  C310 1264   1.837   5.652  16.024 -0.8784 -0.1964 -0.5439
   10DOPE  H10X 1265   1.756   5.582  16.005 -2.1139  0.8523  0.6343
   10DOPE  C311 1266   1.909   5.707  15.898  1.3030  0.2338  0.3069
   10DOPE  H11X 1267   1.869   5.806  15.869 -0.8222 -1.3038 -2.5781
   10DOPE  H11Y 1268   2.016   5.723  15.923  1.7952  0.4061 -1.7090
   10DOPE  C312 1269   1.912   5.608  15.780 -0.4622 -0.2114  0.5942
   10DOPE  H12X 1270   1.811   5.564  15.764 -1.0390  1.5207 -0.8670
   10DOPE  H12Y 1271   1.997   5.537  15.782  0.2574  0.0042 -5.0641
   10DOPE  C313 1272   1.940   5.686  15.646  0.7869  0.0408 -0.6286
   10DOPE  H13X 1273   1.861   5.762  15.629  0.2438 -0.4352 -0.2772
   10DOPE  H13Y 1274   2.033   5.744  15.660  0.7924 -0.3898  1.5799
   10DOPE  C314 1275   1.957   5.595  15.518  0.1322 -0.1402  0.4363
   10DOPE  H14X 1276   2.025   5.511  15.544  1.5621  1.2791  1.4711
   10DOPE  H14Y 1277   2.004   5.646  15.431 -3.0067 -0.4737 -1.6216
   10DOPE  C315 1278   1.825   5.547  15.459 -0.2486 -0.4043 -0.4531
   10DOPE  H15X 1279   1.776   5.612  15.384  0.0447 -0.6515 -0.8610
   10DOPE  H15Y 1280   1.749   5.537  15.540 -0.9732 -0.3858 -1.1137
   10DOPE  C316 1281   1.855   5.408  15.396 -0.4955  0.1789 -0.1864
   10DOPE  H16X 1282   1.909   5.345  15.469  0.5426 -3.4525 -3.7496
   10DOPE  H16Y 1283   1.930   5.419  15.315 -2.0383  3.0524 -1.3749
   10DOPE  C317 1284   1.725   5.341  15.350  0.3931  0.7570 -0.1874
   10DOPE  H17X 1285   1.749   5.236  15.322 -2.0680 -0.0192  0.4185
   10DOPE  H17Y 1286   1.661   5.330  15.440  2.5560  1.2503  1.5007
   10DOPE  C318 1287   1.652   5.405  15.236 -0.8119 -0.5176 -0.7260
   10DOPE  H18X 1288   1.561   5.357  15.194 -1.6907  0.4950 -0.0192
   10DOPE  H18Y 1289   1.623   5.509  15.262  1.8275 -0.1750  1.3162
   10DOPE  H18Z 1290   1.727   5.413  15.154  1.3932  0.8366  1.2815
   11DOPE     N 1291   0.429   3.678  16.834 -0.1720 -0.3254 -0.8045
   11DOPE   HN1 1292   0.411   3.618  16.751 -2.8083  1.9822 -2.0710
   11DOPE   HN2 1293   0.341   3.692  16.888  0.0125  1.0858 -0.8459
   11DOPE   HN3 1294   0.451   3.773  16.799 -4.8953  0.2644 -2.8819
   11DOPE   C12 1295   0.550   3.611  16.900  0.2825  0.1849 -0.0816
   11DOPE  H12A 1296   0.644   3.625  16.843  0.0593  2.6077  0.0718
   11DOPE  H12B 1297   0.529   3.502  16.893 -1.4286  0.5385 -0.9446
   11DOPE   C11 1298   0.568   3.650  17.048  0.0020 -0.0834 -0.2916
   11DOPE  H11A 1299   0.664   3.615  17.091  1.0469  1.0698 -1.5993
   11DOPE  H11B 1300   0.492   3.588  17.100 -2.7785  2.5318 -0.9045
   11DOPE     P 1301   0.648   3.898  17.116  0.4326 -0.2337  0.3418
   11DOPE   O13 1302   0.771   3.885  17.040 -0.0364 -0.2048 -0.2864
   11DOPE   O14 1303   0.654   3.893  17.265 -0.4010  0.2706 -0.5293
   11DOPE   O11 1304   0.586   4.041  17.073 -0.3134  1.2781  0.1484
   11DOPE   O12 1305   0.545   3.793  17.060 -0.0270  0.0144 -0.2692
   11DOPE    C1 1306   0.447   4.055  17.072  0.4795  0.1784  0.0917
   11DOPE    HA 1307   0.419   4.123  17.156 -2.7539  2.2857 -2.4458
   11DOPE    HB 1308   0.390   3.962  17.096  1.1729 -0.0536  0.8643
   11DOPE    C2 1309   0.385   4.117  16.943 -0.7800  0.2480  0.1129
   11DOPE    HS 1310   0.301   4.055  16.908 -0.7217 -0.0369  0.4758
   11DOPE   O21 1311   0.482   4.151  16.842  0.4902 -0.1848  0.2051
   11DOPE   C21 1312   0.512   4.050  16.763 -0.5208 -0.2795 -0.0189
   11DOPE   O22 1313   0.465   3.934  16.772 -0.0738 -0.3378  0.2432
   11DOPE   C22 1314   0.613   4.092  16.658 -0.6697 -0.0354 -0.3367
   11DOPE   H2R 1315   0.705   4.106  16.717 -0.1674  0.2540 -1.1761
   11DOPE   H2S 1316   0.579   4.191  16.621  0.7763  0.8231  0.5549
   11DOPE    C3 1317   0.315   4.248  16.991 -0.1785  0.0118 -0.1120
   11DOPE    HX 1318   0.394   4.320  17.022  1.1220 -1.1146 -0.6931
   11DOPE    HY 1319   0.251   4.219  17.077 -1.3902 -1.0248 -1.3178
   11DOPE   O31 1320   0.238   4.318  16.891 -0.1390 -0.1656 -0.0503
   11DOPE   C31 1321   0.124   4.261  16.869 -0.5086 -0.2469  0.3797
   11DOPE   O32 1322   0.078   4.171  16.939 -0.0494  0.6953 -0.8484
   11DOPE   C32 1323   0.059   4.311  16.739 -0.0944  0.4706 -0.5054
   11DOPE   H2X 1324  -0.051   4.299  16.742 -0.2736  1.1167 -2.6702
   11DOPE   H2Y 1325   0.086   4.419  16.728 -0.2450  0.5040 -0.5535
   11DOPE   C23 1326   0.650   3.995  16.553 -0.1787  0.3839  0.2698
   11DOPE   H3R 1327   0.658   3.893  16.596  1.4523 -1.6593 -4.2869
   11DOPE   H3S 1328   0.745   4.017  16.500 -1.3081  2.6256 -0.9630
   11DOPE   C24 1329   0.559   4.006  16.438  0.5663  0.1577  0.0076
   11DOPE   H4R 1330   0.557   4.103  16.382  1.7617  0.6724  0.8298
   11DOPE   H4S 1331   0.454   3.994  16.473  0.8652  0.1318  0.9046
   11DOPE   C25 1332   0.595   3.899  16.333  0.4806  0.1952  0.2670
   11DOPE   H5R 1333   0.573   3.796  16.370 -2.4364 -0.1825 -2.2021
   11DOPE   H5S 1334   0.701   3.904  16.298  0.1849 -1.8648 -1.0654
   11DOPE   C26 1335   0.510   3.913  16.205 -0.5002 -0.3452 -0.0297
   11DOPE   H6R 1336   0.413   3.955  16.240 -0.2614 -1.0487  1.5810
   11DOPE   H6S 1337   0.490   3.820  16.148  0.6431  1.4144 -3.5860
   11DOPE   C27 1338   0.576   4.003  16.105 -0.1724 -0.0021  0.0674
   11DOPE   H7R 1339   0.669   3.951  16.074 -0.0602  1.3383 -2.0752
   11DOPE   H7S 1340   0.602   4.102  16.149 -2.3247  0.7732 -0.3140
   11DOPE   C28 1341   0.490   4.014  15.969  0.2556  0.0239 -0.2168
   11DOPE   H8R 1342   0.396   4.070  15.987  1.4452  1.5651  1.5417
   11DOPE   H8S 1343   0.461   3.911  15.940  2.1250 -0.5019 -0.3453
   11DOPE   C29 1344   0.562   4.061  15.847  0.1980 -0.5202 -0.3181
   11DOPE   H9R 1345   0.657   4.112  15.867 -1.0942  1.1010  2.3514
   11DOPE  C210 1346   0.515   4.054  15.723  0.3683 -0.1096  0.4066
   11DOPE  H10R 1347   0.582   4.075  15.638  1.9445 -0.6781  1.4670
   11DOPE  C211 1348   0.391   3.981  15.677  0.3663  0.0357  0.5554
   11DOPE  H11R 1349   0.312   4.050  15.713  0.6284  1.0236 -0.6564
   11DOPE  H11S 1350   0.367   3.889  15.734 -2.2453  0.7710  0.7893
   11DOPE  C212 1351   0.392   3.957  15.519 -0.2445 -0.2158 -0.7773
   11DOPE  H12R 1352   0.312   3.885  15.490 -0.2443 -0.2232 -0.7595
   11DOPE  H12S 1353   0.491   3.921  15.487  0.0670 -0.1293  0.0516
   11DOPE  C213 1354   0.347   4.091  15.453 -0.1309 -0.1769  0.0017
   11DOPE  H13R 1355   0.412   4.181  15.461  0.0945 -0.3817  0.4801
   11DOPE  H13S 1356   0.247   4.123  15.490 -0.0683 -0.1389  0.1377
   11DOPE  C214 1357   0.320   4.070  15.300 -0.1379 -0.0898  0.5661
   11DOPE  H14R 1358   0.268   3.975  15.274  2.0394 -0.6104 -2.3841
   11DOPE  H14S 1359   0.417   4.060  15.247 -0.9633 -1.4850 -0.7759
   11DOPE  C215 1360   0.218   4.174  15.244 -0.9576 -0.0331 -0.1397
   11DOPE  H15R 1361   0.258   4.276  15.261 -0.3323 -0.6094  2.1915
   11DOPE  H15S 1362   0.125   4.157  15.302 -1.8151  1.6091 -0.9721
   11DOPE  C216 1363   0.197   4.152  15.097  0.2874  0.6067  0.4396
   11DOPE  H16R 1364   0.099   4.204  15.083 -1.1233 -2.4248 -2.4629
   11DOPE  H16S 1365   0.169   4.048  15.071  1.0521 -0.1794  2.6329
   11DOPE  C217 1366   0.311   4.208  15.013  0.0393  0.0595 -0.2515
   11DOPE  H17R 1367   0.401   4.148  15.039 -0.3781  0.1731  1.6138
   11DOPE  H17S 1368   0.333   4.312  15.044  1.4196 -0.6975  1.4839
   11DOPE  C218 1369   0.291   4.204  14.864  0.1562  0.7005 -0.0143
   11DOPE  H18R 1370   0.278   4.100  14.827  2.3944 -0.2919  1.7266
   11DOPE  H18S 1371   0.383   4.235  14.810 -0.0730 -0.8242 -1.3682
   11DOPE  H18T 1372   0.206   4.267  14.831 -0.0678  0.5795  0.3301
   11DOPE   C33 1373   0.105   4.251  16.611 -0.0060 -0.2040  0.3632
   11DOPE   H3X 1374   0.060   4.150  16.608  0.0105 -0.2226  0.6881
   11DOPE   H3Y 1375   0.216   4.242  16.619 -0.1571 -1.4591  1.4349
   11DOPE   C34 1376   0.085   4.339  16.480  0.2981 -0.4958  0.3500
   11DOPE   H4X 1377  -0.020   4.373  16.471  0.4183  0.0186  0.8209
   11DOPE   H4Y 1378   0.153   4.427  16.484  3.2217 -2.6296  1.6507
   11DOPE   C35 1379   0.117   4.265  16.358 -0.3563  0.0015  0.1850
   11DOPE   H5X 1380   0.052   4.175  16.352 -0.7662  0.2974  0.1325
   11DOPE   H5Y 1381   0.223   4.233  16.360  0.5199  2.6362 -0.4619
   11DOPE   C36 1382   0.109   4.366  16.236 -0.4503  0.1645 -0.8347
   11DOPE   H6X 1383   0.165   4.459  16.260  0.1928  0.1203 -2.1030
   11DOPE   H6Y 1384   0.004   4.390  16.208 -0.7833  2.2198  1.7300
   11DOPE   C37 1385   0.177   4.292  16.117 -0.1966 -0.3353  0.4870
   11DOPE   H7X 1386   0.268   4.240  16.154  1.9999  2.2297 -1.0246
   11DOPE   H7Y 1387   0.104   4.220  16.074  0.0308  0.7320 -1.8745
   11DOPE   C38 1388   0.206   4.386  16.005 -0.5569 -0.2268 -0.4479
   11DOPE   H8X 1389   0.282   4.458  16.041  1.5174 -1.6589 -1.7787
   11DOPE   H8Y 1390   0.116   4.446  15.978 -0.5738 -1.0533 -2.3750
   11DOPE   C39 1391   0.253   4.319  15.882 -0.1372  0.7921 -0.2546
   11DOPE   H9X 1392   0.333   4.244  15.890 -0.7931  0.0148 -0.7744
   11DOPE  C310 1393   0.195   4.329  15.765  0.0539  0.4382 -0.4835
   11DOPE  H10X 1394   0.249   4.299  15.674  0.5686  1.1764 -0.4322
   11DOPE  C311 1395   0.085   4.418  15.725  0.0303 -0.3097 -0.4646
   11DOPE  H11X 1396  -0.013   4.389  15.766  0.7781  0.1184  1.7549
   11DOPE  H11Y 1397   0.097   4.516  15.776 -1.8413 -0.2545 -0.0744
   11DOPE  C312 1398   0.079   4.442  15.568  0.6247  0.3585 -0.4835
   11DOPE  H12X 1399   0.093   4.340  15.527 -0.4055 -0.2376  0.6108
   11DOPE  H12Y 1400   0.161   4.514  15.545  0.7960  0.3723  0.1564
   11DOPE  C313 1401  -0.055   4.505  15.529 -0.4080  0.8646  0.1220
   11DOPE  H13X 1402  -0.133   4.430  15.554  0.2851 -0.8146 -2.4068
   11DOPE  H13Y 1403  -0.069   4.598  15.588  1.4009 -0.2515  2.5105
   11DOPE  C314 1404  -0.066   4.529  15.381 -0.6433 -0.5453 -0.4419
   11DOPE  H14X 1405   0.001   4.602  15.332  1.4022 -2.0185  0.0196
   11DOPE  H14Y 1406  -0.168   4.564  15.354  0.5928  2.5886 -1.3947
   11DOPE  C315 1407  -0.044   4.410  15.298 -0.2341 -0.0127  0.1732
   11DOPE  H15X 1408  -0.089   4.323  15.351 -1.6533  1.5847  1.7180
   11DOPE  H15Y 1409   0.065   4.385  15.300  0.5992  3.1289 -0.6101
   11DOPE  C316 1410  -0.097   4.403  15.155 -0.0329 -0.2468  0.3302
   11DOPE  H16X 1411  -0.202   4.438  15.148  0.0176  0.6488  2.9699
   11DOPE  H16Y 1412  -0.095   4.302  15.109  0.7275  0.5157 -1.4322
   11DOPE  C317 1413  -0.022   4.488  15.051 -0.1010  0.7598  0.0657
   11DOPE  H17X 1414  -0.046   4.595  15.066 -2.8121  0.2236  0.1611
   11DOPE  H17Y 1415   0.085   4.482  15.080  0.3358  1.8166 -1.2514
   11DOPE  C318 1416  -0.041   4.453  14.896  0.0159 -0.2575 -0.3499
   11DOPE  H18X 1417  -0.147   4.462  14.863 -0.6058  0.4576  1.6543
   11DOPE  H18Y 1418   0.014   4.532  14.840 -1.7597  1.3553  0.0676
   11DOPE  H18Z 1419  -0.001   4.352  14.876 -0.7294 -0.4986 -0.6571
   12DOPE     N 1420   2.873   0.069  17.124 -0.0419  0.3720 -0.1657
   12DOPE   HN1 1421   2.937   0.133  17.176  0.2089 -0.0836  0.0887
   12DOPE   HN2 1422   2.917   0.002  17.058 -1.6956 -0.1465 -0.7856
   12DOPE   HN3 1423   2.801   0.124  17.072 -1.1498 -0.7422  0.1398
   12DOPE   C12 1424   2.798  -0.017  17.224 -0.3680 -0.1365 -0.9424
   12DOPE  H12A 1425   2.715   0.047  17.260  0.2341  0.3981 -0.4902
   12DOPE  H12B 1426   2.871  -0.028  17.306  1.5113  0.5576 -2.4412
   12DOPE   C11 1427   2.732  -0.150  17.180 -0.3082 -0.4489 -0.5458
   12DOPE  H11A 1428   2.795  -0.215  17.117  1.4434  2.3398 -1.8852
   12DOPE  H11B 1429   2.661  -0.119  17.100  1.3917  0.8379 -1.6286
   12DOPE     P 1430   2.528  -0.249  17.314  0.1509  0.0720 -0.1117
   12DOPE   O13 1431   2.460  -0.122  17.333 -0.0052 -0.1593  0.5496
   12DOPE   O14 1432   2.499  -0.357  17.413 -0.8047  0.6578 -0.0967
   12DOPE   O11 1433   2.484  -0.304  17.177  0.4214  0.4042 -0.1355
   12DOPE   O12 1434   2.685  -0.225  17.292  0.4488  0.1961  0.3573
   12DOPE    C1 1435   2.347  -0.333  17.142 -0.1164 -0.1716 -0.2853
   12DOPE    HA 1436   2.277  -0.302  17.222 -1.1210 -0.1760 -1.1391
   12DOPE    HB 1437   2.334  -0.440  17.115  2.7852 -0.3199 -1.5396
   12DOPE    C2 1438   2.294  -0.246  17.020 -0.8377 -0.2561 -0.3246
   12DOPE    HS 1439   2.187  -0.276  17.017 -1.6558  2.2311  1.2096
   12DOPE   O21 1440   2.363  -0.290  16.903 -0.5602 -0.9922 -0.6034
   12DOPE   C21 1441   2.293  -0.280  16.789 -0.3100 -0.0984  0.2948
   12DOPE   O22 1442   2.175  -0.247  16.784 -0.4271  0.2640  0.1167
   12DOPE   C22 1443   2.390  -0.295  16.674  0.1681 -0.2780  0.5215
   12DOPE   H2R 1444   2.408  -0.405  16.666 -0.4884 -0.2632 -1.6503
   12DOPE   H2S 1445   2.479  -0.231  16.693 -2.0214  3.2167 -0.2671
   12DOPE    C3 1446   2.302  -0.094  17.049 -0.0269  0.0782  0.3392
   12DOPE    HX 1447   2.403  -0.056  17.024 -0.5731  0.4954 -1.3929
   12DOPE    HY 1448   2.289  -0.070  17.156 -0.7258  0.3944  0.1912
   12DOPE   O31 1449   2.190  -0.028  16.988  0.8527 -0.1550  0.7378
   12DOPE   C31 1450   2.217   0.076  16.909 -0.4916  0.1887  0.7466
   12DOPE   O32 1451   2.329   0.124  16.893  0.5966  0.1016  0.0298
   12DOPE   C32 1452   2.085   0.137  16.851  0.1748 -0.8253 -0.4311
   12DOPE   H2X 1453   2.039   0.189  16.937 -1.6086 -0.3070 -1.6532
   12DOPE   H2Y 1454   2.116   0.225  16.791  2.8782 -2.0369 -0.9923
   12DOPE   C23 1455   2.327  -0.235  16.540 -0.2743  0.2417  0.1903
   12DOPE   H3R 1456   2.323  -0.125  16.549  0.0006  0.2322  0.4200
   12DOPE   H3S 1457   2.224  -0.273  16.524  0.3552 -1.0202 -1.1805
   12DOPE   C24 1458   2.411  -0.273  16.416  0.1731 -0.6475  0.9180
   12DOPE   H4R 1459   2.441  -0.380  16.420  0.6823 -0.5098  0.8648
   12DOPE   H4S 1460   2.505  -0.215  16.407 -0.0150 -0.4729 -0.1620
   12DOPE   C25 1461   2.337  -0.253  16.284  0.0288  0.1553  0.8832
   12DOPE   H5R 1462   2.285  -0.155  16.277  0.4812  0.3242 -0.5280
   12DOPE   H5S 1463   2.250  -0.322  16.288  1.0335 -1.1505  0.6615
   12DOPE   C26 1464   2.418  -0.269  16.153  0.4498  0.0653  0.1294
   12DOPE   H6R 1465   2.458  -0.372  16.153 -3.5645 -1.6766 -0.4973
   12DOPE   H6S 1466   2.499  -0.192  16.149 -0.6258  1.2097 -0.5774
   12DOPE   C27 1467   2.335  -0.247  16.022  0.1350 -0.4217 -0.2753
   12DOPE   H7R 1468   2.298  -0.143  16.019 -0.9336 -0.6900  2.0890
   12DOPE   H7S 1469   2.244  -0.311  16.020 -0.1770  0.0316 -1.1623
   12DOPE   C28 1470   2.423  -0.267  15.892 -0.1024 -0.2315 -1.1549
   12DOPE   H8R 1471   2.472  -0.367  15.901  2.8799  1.2814  1.5073
   12DOPE   H8S 1472   2.498  -0.186  15.882 -0.2503 -0.2065 -2.1335
   12DOPE   C29 1473   2.323  -0.266  15.784  0.6405 -0.9890 -0.6006
   12DOPE   H9R 1474   2.229  -0.315  15.813 -0.1309  2.4006  3.6846
   12DOPE  C210 1475   2.341  -0.217  15.661  0.2956  0.3780  0.3855
   12DOPE  H10R 1476   2.272  -0.233  15.577  0.3444  3.2431 -0.3048
   12DOPE  C211 1477   2.475  -0.163  15.607  0.1669 -0.2066 -0.0372
   12DOPE  H11R 1478   2.531  -0.113  15.689 -1.0523  0.1773  0.5924
   12DOPE  H11S 1479   2.453  -0.084  15.532 -1.4840  0.2037  0.8440
   12DOPE  C212 1480   2.563  -0.276  15.545  0.8712 -0.4489  0.2831
   12DOPE  H12R 1481   2.557  -0.358  15.619  1.1689  1.1794  2.1747
   12DOPE  H12S 1482   2.670  -0.247  15.531  2.0119 -3.9704  0.6240
   12DOPE  C213 1483   2.512  -0.343  15.414 -0.2856 -0.3886 -0.2313
   12DOPE  H13R 1484   2.404  -0.363  15.431  0.3158 -1.7762  2.5112
   12DOPE  H13S 1485   2.560  -0.438  15.386 -1.1709  0.1202 -3.9288
   12DOPE  C214 1486   2.526  -0.250  15.300  0.0012 -0.6631  0.2692
   12DOPE  H14R 1487   2.626  -0.256  15.252 -0.7336 -0.1400 -1.4329
   12DOPE  H14S 1488   2.498  -0.145  15.326  0.3596 -0.8166  1.2940
   12DOPE  C215 1489   2.430  -0.295  15.184 -0.6851 -0.1175 -0.8394
   12DOPE  H15R 1490   2.401  -0.207  15.122 -2.2909  0.4706  0.6664
   12DOPE  H15S 1491   2.338  -0.330  15.236 -0.2541  0.6366  0.4889
   12DOPE  C216 1492   2.471  -0.411  15.086 -0.2095  0.3174  0.3026
   12DOPE  H16R 1493   2.532  -0.488  15.137  2.3193  1.6192 -0.5934
   12DOPE  H16S 1494   2.529  -0.362  15.005 -1.3610  2.4538  0.6975
   12DOPE  C217 1495   2.347  -0.476  15.018 -0.2608 -0.0831 -0.1922
   12DOPE  H17R 1496   2.377  -0.526  14.923 -5.1134 -0.5625 -1.7269
   12DOPE  H17S 1497   2.273  -0.393  15.008 -0.1618  0.0083 -0.1728
   12DOPE  C218 1498   2.278  -0.578  15.108  0.2526 -0.1163 -0.9302
   12DOPE  H18R 1499   2.251  -0.552  15.213 -0.0642 -3.6379 -0.0016
   12DOPE  H18S 1500   2.335  -0.673  15.118  0.6137  0.0280 -1.6014
   12DOPE  H18T 1501   2.181  -0.611  15.064 -0.2830  1.2633 -0.8257
   12DOPE   C33 1502   1.987   0.039  16.782 -0.2054 -0.4316  0.0747
   12DOPE   H3X 1503   1.895   0.050  16.844  0.4362  0.4077  0.9154
   12DOPE   H3Y 1504   2.016  -0.066  16.804  1.0512 -0.2618 -0.7006
   12DOPE   C34 1505   1.961   0.075  16.636  0.2248  0.3517  0.8084
   12DOPE   H4X 1506   1.892  -0.000  16.593  0.5622  1.0344 -1.0089
   12DOPE   H4Y 1507   1.916   0.176  16.628 -0.2434  0.0397 -1.0252
   12DOPE   C35 1508   2.090   0.071  16.549  0.3629  0.0972  0.4985
   12DOPE   H5X 1509   2.117  -0.037  16.540  1.3200  0.4641 -1.6679
   12DOPE   H5Y 1510   2.175   0.129  16.591  0.5287  1.0171 -1.0222
   12DOPE   C36 1511   2.061   0.146  16.416  0.7570 -0.3482  0.9525
   12DOPE   H6X 1512   2.040   0.248  16.455  0.6509  0.5210 -1.2415
   12DOPE   H6Y 1513   1.965   0.110  16.372  1.4618 -0.9768 -0.1008
   12DOPE   C37 1514   2.170   0.137  16.307  0.3778  0.3660 -0.4791
   12DOPE   H7X 1515   2.258   0.188  16.351 -0.0871  1.0828 -0.3562
   12DOPE   H7Y 1516   2.206   0.032  16.303  0.2883 -0.0006  3.7333
   12DOPE   C38 1517   2.131   0.208  16.176 -0.2284 -0.2259 -0.0727
   12DOPE   H8X 1518   2.110   0.315  16.196  0.6293 -0.1253  0.3710
   12DOPE   H8Y 1519   2.038   0.161  16.138 -0.8369 -1.6919  2.9852
   12DOPE   C39 1520   2.232   0.199  16.066 -0.5766 -0.5381  0.3701
   12DOPE   H9X 1521   2.314   0.270  16.083 -0.7719 -0.6507  1.9864
   12DOPE  C310 1522   2.212   0.137  15.947 -0.5765  0.3007  0.3674
   12DOPE  H10X 1523   2.288   0.135  15.867 -0.3639  0.1317  0.5704
   12DOPE  C311 1524   2.095   0.050  15.906 -0.2639 -0.0440 -0.0207
   12DOPE  H11X 1525   2.127  -0.056  15.898  1.3445  0.3928  0.3047
   12DOPE  H11Y 1526   2.018   0.053  15.986  0.2424 -0.7467  0.5133
   12DOPE  C312 1527   2.014   0.098  15.788 -0.0208  0.0022 -0.2267
   12DOPE  H12X 1528   2.079   0.108  15.699 -0.8213 -0.3526 -0.8586
   12DOPE  H12Y 1529   1.983   0.199  15.822  1.4117 -0.4515  2.8282
   12DOPE  C313 1530   1.894   0.016  15.748 -0.0113  0.4970 -0.5244
   12DOPE  H13X 1531   1.820   0.010  15.831 -0.7468  0.5802 -1.1661
   12DOPE  H13Y 1532   1.844   0.079  15.671 -1.5864 -1.7890 -1.4574
   12DOPE  C314 1533   1.923  -0.118  15.688  0.1936 -0.0275 -0.2667
   12DOPE  H14X 1534   1.969  -0.184  15.764  1.1001 -1.7730 -2.2405
   12DOPE  H14Y 1535   2.000  -0.107  15.609  2.4208 -0.1653  1.7760
   12DOPE  C315 1536   1.794  -0.175  15.630  0.1978 -0.2964  0.2858
   12DOPE  H15X 1537   1.708  -0.175  15.701 -0.3610  0.1607 -0.3852
   12DOPE  H15Y 1538   1.824  -0.275  15.591  2.7243 -0.1599  1.6379
   12DOPE  C316 1539   1.740  -0.111  15.499 -0.2182 -1.0055  0.1268
   12DOPE  H16X 1540   1.820  -0.119  15.423  0.8525 -1.0134  1.2259
   12DOPE  H16Y 1541   1.710  -0.005  15.515 -0.8264 -0.8795 -1.5877
   12DOPE  C317 1542   1.630  -0.186  15.432 -0.2950  0.0163  0.1405
   12DOPE  H17X 1543   1.642  -0.295  15.418 -0.8686  0.0291 -0.5815
   12DOPE  H17Y 1544   1.541  -0.164  15.494  0.0293 -1.5022  1.1808
   12DOPE  C318 1545   1.602  -0.136  15.291 -0.4569  0.2473  0.0974
   12DOPE  H18X 1546   1.523  -0.196  15.241 -0.8439  1.6197 -1.0130
   12DOPE  H18Y 1547   1.579  -0.027  15.288  1.1345  0.6205  0.5176
   12DOPE  H18Z 1548   1.694  -0.149  15.230  0.4397  0.4432  1.3715
   13DOPE     N 1549   2.306   2.028  17.453  0.0822 -0.0914 -0.1951
   13DOPE   HN1 1550   2.369   2.034  17.370  0.7651  1.4598  0.4090
   13DOPE   HN2 1551   2.366   2.048  17.535 -2.2400  2.6561  0.9896
   13DOPE   HN3 1552   2.276   1.928  17.447  0.9323 -0.3044 -1.2977
   13DOPE   C12 1553   2.175   2.105  17.452  0.1790 -0.5528  0.4304
   13DOPE  H12A 1554   2.203   2.197  17.508  0.3624  1.7222 -3.0744
   13DOPE  H12B 1555   2.100   2.037  17.498  0.0511 -0.8659 -0.2274
   13DOPE   C11 1556   2.133   2.154  17.304 -0.0808  0.4803 -0.6020
   13DOPE  H11A 1557   2.052   2.229  17.319 -0.7817 -0.0118 -1.8079
   13DOPE  H11B 1558   2.087   2.066  17.255 -0.6264  0.8695 -0.7956
   13DOPE     P 1559   2.297   2.344  17.230  0.1208 -0.0052 -0.1883
   13DOPE   O13 1560   2.447   2.344  17.252  0.1847 -0.1693  0.3435
   13DOPE   O14 1561   2.212   2.423  17.325 -0.7786  0.2463  0.4119
   13DOPE   O11 1562   2.260   2.400  17.091 -0.0999 -0.7959 -0.0348
   13DOPE   O12 1563   2.246   2.194  17.227  0.2144  0.7155 -0.4154
   13DOPE    C1 1564   2.305   2.320  16.981  0.2320 -0.1470  0.9589
   13DOPE    HA 1565   2.242   2.229  16.971 -0.3535  0.4000 -0.5211
   13DOPE    HB 1566   2.412   2.290  16.978  0.0969 -0.5766 -1.1552
   13DOPE    C2 1567   2.275   2.377  16.846  0.3116  0.0845  0.1480
   13DOPE    HS 1568   2.324   2.324  16.761 -0.1788 -0.2914  0.0995
   13DOPE   O21 1569   2.304   2.520  16.838  0.2341  0.2117 -0.3455
   13DOPE   C21 1570   2.427   2.541  16.801  0.3493 -1.0054 -0.5676
   13DOPE   O22 1571   2.515   2.461  16.780  0.0175  0.2372 -0.4765
   13DOPE   C22 1572   2.441   2.687  16.768 -0.0585 -0.1152 -0.7132
   13DOPE   H2R 1573   2.549   2.714  16.759  0.1213 -0.1166  1.0690
   13DOPE   H2S 1574   2.408   2.744  16.857 -1.3482  3.8138 -3.4280
   13DOPE    C3 1575   2.123   2.359  16.818  0.1858 -0.8256  0.5091
   13DOPE    HX 1576   2.060   2.414  16.891 -0.2996 -0.4490 -0.1817
   13DOPE    HY 1577   2.099   2.251  16.818 -0.3824 -0.7043  1.3717
   13DOPE   O31 1578   2.090   2.423  16.693  0.2889  0.0425  0.6711
   13DOPE   C31 1579   2.115   2.353  16.581  0.0904  0.0039  0.0693
   13DOPE   O32 1580   2.169   2.245  16.567 -0.2836 -0.6312  0.2761
   13DOPE   C32 1581   2.086   2.438  16.461  0.0243  0.5713 -0.6585
   13DOPE   H2X 1582   1.992   2.487  16.493  0.8432  1.0731  1.1245
   13DOPE   H2Y 1583   2.169   2.512  16.455 -0.9666  1.9580  1.3683
   13DOPE   C23 1584   2.367   2.741  16.643 -0.0218 -0.0002  0.1881
   13DOPE   H3R 1585   2.357   2.851  16.643  2.9936  0.3418  0.5743
   13DOPE   H3S 1586   2.267   2.691  16.643  1.1723 -2.5500 -0.4228
   13DOPE   C24 1587   2.437   2.708  16.503 -0.5951 -0.1815  0.7578
   13DOPE   H4R 1588   2.445   2.598  16.487  1.7616  0.1448 -0.7899
   13DOPE   H4S 1589   2.543   2.741  16.507 -0.9566  1.4526 -1.4795
   13DOPE   C25 1590   2.362   2.782  16.392 -0.5443  0.3132  0.0027
   13DOPE   H5R 1591   2.333   2.885  16.422  0.7562  0.9587 -0.9348
   13DOPE   H5S 1592   2.263   2.729  16.393 -0.3694 -0.0326  0.9745
   13DOPE   C26 1593   2.428   2.793  16.254 -0.3620 -0.8184  0.2738
   13DOPE   H6R 1594   2.527   2.844  16.264 -0.4802 -0.8350  1.8132
   13DOPE   H6S 1595   2.366   2.850  16.182  0.2752 -2.4035 -1.6015
   13DOPE   C27 1596   2.454   2.652  16.202  0.9075 -0.3845 -0.7463
   13DOPE   H7R 1597   2.360   2.596  16.221  0.2955  1.3990  1.9600
   13DOPE   H7S 1598   2.532   2.603  16.264  1.2798 -1.4005 -1.9675
   13DOPE   C28 1599   2.498   2.634  16.056 -0.4576 -0.4254 -0.3269
   13DOPE   H8R 1600   2.587   2.698  16.037 -0.2433 -0.7311 -0.3599
   13DOPE   H8S 1601   2.408   2.661  15.996 -0.6929 -1.1050 -0.2858
   13DOPE   C29 1602   2.524   2.484  16.029  0.4148 -0.4474 -0.6785
   13DOPE   H9R 1603   2.501   2.410  16.107 -0.1801  0.6542  0.2041
   13DOPE  C210 1604   2.560   2.435  15.912 -0.5256  0.1782 -0.7610
   13DOPE  H10R 1605   2.567   2.327  15.895  1.6978  0.4296 -1.7964
   13DOPE  C211 1606   2.598   2.517  15.795 -0.3968 -0.5925 -0.4540
   13DOPE  H11R 1607   2.708   2.526  15.783 -0.6924  3.0207 -1.6928
   13DOPE  H11S 1608   2.551   2.617  15.800 -0.7479 -0.8241  1.6029
   13DOPE  C212 1609   2.543   2.453  15.667  0.4248  0.7433  0.3858
   13DOPE  H12R 1610   2.433   2.469  15.670  0.2606 -0.4462  1.3678
   13DOPE  H12S 1611   2.568   2.345  15.659 -0.4597  0.5575 -0.0299
   13DOPE  C213 1612   2.574   2.537  15.539  0.1400 -0.6573 -0.1507
   13DOPE  H13R 1613   2.685   2.541  15.526  0.1632 -1.0482 -0.0897
   13DOPE  H13S 1614   2.538   2.638  15.566  0.0475 -0.8515  0.4736
   13DOPE  C214 1615   2.508   2.479  15.410 -0.1209 -0.4542  0.6939
   13DOPE  H14R 1616   2.398   2.469  15.427 -0.2748 -1.0793 -0.5484
   13DOPE  H14S 1617   2.552   2.378  15.396 -0.6675 -0.3266 -2.7170
   13DOPE  C215 1618   2.534   2.566  15.288 -0.0992 -0.1083 -0.1642
   13DOPE  H15R 1619   2.640   2.599  15.286 -1.1075  3.5394  0.1609
   13DOPE  H15S 1620   2.477   2.661  15.296  1.5904  0.8743  0.7095
   13DOPE  C216 1621   2.480   2.514  15.153  0.0661  0.4745  0.5250
   13DOPE  H16R 1622   2.370   2.527  15.152 -0.1075 -0.8228 -0.5113
   13DOPE  H16S 1623   2.496   2.404  15.149 -1.1080  0.2853  0.6997
   13DOPE  C217 1624   2.550   2.582  15.042  0.1090 -0.3142  0.1527
   13DOPE  H17R 1625   2.660   2.566  15.040 -0.1126 -1.9723 -0.5354
   13DOPE  H17S 1626   2.542   2.692  15.056 -1.1493 -0.4531  0.6303
   13DOPE  C218 1627   2.493   2.540  14.902  0.8236  0.1775 -0.7318
   13DOPE  H18R 1628   2.568   2.572  14.826  2.0395 -0.5105  0.1352
   13DOPE  H18S 1629   2.397   2.593  14.886  0.8576  0.6277  0.4483
   13DOPE  H18T 1630   2.482   2.432  14.879  1.3371 -0.1593  0.5100
   13DOPE   C33 1631   2.087   2.364  16.326 -0.6695  0.3024 -0.3867
   13DOPE   H3X 1632   1.998   2.300  16.316 -0.5138  0.0677 -0.2773
   13DOPE   H3Y 1633   2.180   2.305  16.314  0.9491  2.8064 -0.9476
   13DOPE   C34 1634   2.076   2.462  16.210  0.0070 -0.1013  0.4807
   13DOPE   H4X 1635   1.969   2.490  16.201 -0.3478 -0.9647  1.6886
   13DOPE   H4Y 1636   2.125   2.561  16.221  1.2670 -0.1983 -3.0113
   13DOPE   C35 1637   2.126   2.397  16.075  0.3535 -0.2703 -0.5610
   13DOPE   H5X 1638   2.081   2.296  16.059  0.4521 -0.0891 -2.1715
   13DOPE   H5Y 1639   2.236   2.377  16.077  0.1574 -1.4434 -0.7528
   13DOPE   C36 1640   2.086   2.485  15.965 -0.3294  0.0693  0.3249
   13DOPE   H6X 1641   2.144   2.580  15.964  0.1378 -0.2022  0.8770
   13DOPE   H6Y 1642   1.976   2.499  15.972 -0.0734  1.3805  2.6507
   13DOPE   C37 1643   2.111   2.414  15.832 -0.2075 -0.8417  0.4568
   13DOPE   H7X 1644   2.220   2.409  15.813 -0.4333  0.7155 -1.5039
   13DOPE   H7Y 1645   2.081   2.307  15.832 -1.4925 -0.5349 -1.3419
   13DOPE   C38 1646   2.051   2.500  15.717  0.2213 -0.5104  0.6194
   13DOPE   H8X 1647   2.121   2.584  15.695 -0.7095  0.2467  0.4532
   13DOPE   H8Y 1648   1.957   2.541  15.762 -0.0743  0.0841 -0.5005
   13DOPE   C39 1649   2.015   2.424  15.587  0.3614 -0.2341 -0.8871
   13DOPE   H9X 1650   2.097   2.426  15.514  3.3048 -0.0514  2.1949
   13DOPE  C310 1651   1.894   2.366  15.557 -0.2879  0.1484  0.9988
   13DOPE  H10X 1652   1.883   2.329  15.454  3.0171 -0.6701  0.8242
   13DOPE  C311 1653   1.782   2.358  15.647  0.7678 -0.0578  0.6451
   13DOPE  H11X 1654   1.753   2.252  15.656 -0.8944  0.0282 -2.4154
   13DOPE  H11Y 1655   1.805   2.394  15.750  0.4448 -3.3590  1.9712
   13DOPE  C312 1656   1.653   2.421  15.590  0.4107  0.0476  0.0761
   13DOPE  H12X 1657   1.671   2.531  15.591  1.7915 -0.1322 -1.0603
   13DOPE  H12Y 1658   1.570   2.415  15.663 -1.1694  2.4518 -1.3755
   13DOPE  C313 1659   1.613   2.365  15.457 -0.0947 -0.1621  0.1239
   13DOPE  H13X 1660   1.674   2.413  15.377 -2.4948 -1.6024 -2.7960
   13DOPE  H13Y 1661   1.634   2.256  15.452 -2.3299 -0.6916  0.9726
   13DOPE  C314 1662   1.467   2.378  15.419  0.0052 -0.3569  0.9447
   13DOPE  H14X 1663   1.443   2.486  15.407 -1.4738 -0.7713 -0.0470
   13DOPE  H14Y 1664   1.410   2.348  15.510  0.2613 -0.4955  1.0619
   13DOPE  C315 1665   1.424   2.307  15.286  0.1355  0.5981 -0.7220
   13DOPE  H15X 1666   1.317   2.288  15.308  0.8961 -1.4638  1.6589
   13DOPE  H15Y 1667   1.468   2.207  15.265  0.5672  1.0807 -2.2392
   13DOPE  C316 1668   1.444   2.389  15.166  0.0249 -0.1725 -0.8517
   13DOPE  H16X 1669   1.404   2.489  15.194  1.8833  0.6077 -0.8075
   13DOPE  H16Y 1670   1.376   2.358  15.084 -0.9608 -0.0260 -0.1010
   13DOPE  C317 1671   1.583   2.397  15.106 -0.9892 -0.0790 -0.4625
   13DOPE  H17X 1672   1.570   2.446  15.007 -0.4709 -0.2374 -0.6137
   13DOPE  H17Y 1673   1.661   2.454  15.161 -1.3903  0.1709 -0.1438
   13DOPE  C318 1674   1.630   2.255  15.072 -0.1032  0.3007 -0.3855
   13DOPE  H18X 1675   1.732   2.264  15.029  0.8243 -0.3296  1.5689
   13DOPE  H18Y 1676   1.625   2.180  15.154 -1.4630  0.2330 -0.5184
   13DOPE  H18Z 1677   1.577   2.214  14.984 -0.4300  0.2990 -0.1884
   14DOPE     N 1678   4.802   4.914  17.893 -0.5431  0.2696  0.0381
   14DOPE   HN1 1679   4.826   4.817  17.921 -0.4693  1.0976  3.2216
   14DOPE   HN2 1680   4.850   4.931  17.802  0.7857  0.2701  0.7329
   14DOPE   HN3 1681   4.850   4.983  17.953 -0.3538  0.7207 -0.6202
   14DOPE   C12 1682   4.656   4.938  17.890 -0.2388 -0.4201 -0.2129
   14DOPE  H12A 1683   4.617   4.893  17.983 -1.3332  0.0795 -0.4083
   14DOPE  H12B 1684   4.620   4.879  17.803 -1.9957  2.2264 -1.4094
   14DOPE   C11 1685   4.629   5.084  17.871  0.1843 -0.2117 -0.1484
   14DOPE  H11A 1686   4.684   5.143  17.947  0.4741 -0.4981 -0.1347
   14DOPE  H11B 1687   4.519   5.094  17.884  0.4266  1.9075  0.7290
   14DOPE     P 1688   4.601   5.180  17.631  0.0990 -0.2316  0.2135
   14DOPE   O13 1689   4.682   5.193  17.508 -0.2458 -0.5412  0.5919
   14DOPE   O14 1690   4.527   5.299  17.676 -0.0026 -0.4483  0.2661
   14DOPE   O11 1691   4.498   5.059  17.609  0.2894  0.3266  0.0518
   14DOPE   O12 1692   4.687   5.128  17.747  0.6686  0.0785 -0.3696
   14DOPE    C1 1693   4.529   4.936  17.542 -0.3267 -0.0668  0.3068
   14DOPE    HA 1694   4.448   4.863  17.564 -0.4521  0.5207  1.9087
   14DOPE    HB 1695   4.623   4.895  17.585 -1.0436 -1.1324  0.9056
   14DOPE    C2 1696   4.535   4.929  17.386  0.6453 -0.4909 -0.0652
   14DOPE    HS 1697   4.633   4.972  17.355  0.6560  0.4453  1.2266
   14DOPE   O21 1698   4.423   5.008  17.327  0.3602 -0.6249 -0.0880
   14DOPE   C21 1699   4.446   5.053  17.203  0.2090  0.6927  0.3114
   14DOPE   O22 1700   4.551   5.048  17.142  0.3044  0.2293  1.3935
   14DOPE   C22 1701   4.315   5.109  17.145 -0.1961 -0.3665  0.2904
   14DOPE   H2R 1702   4.283   5.185  17.219 -0.1306  0.7381 -0.7920
   14DOPE   H2S 1703   4.233   5.034  17.143  0.0198 -0.5881 -0.9868
   14DOPE    C3 1704   4.525   4.781  17.339  0.9464  0.0081  0.3253
   14DOPE    HX 1705   4.426   4.754  17.383  0.2129  0.0365 -1.2496
   14DOPE    HY 1706   4.603   4.716  17.385 -0.1696 -0.4025  1.7286
   14DOPE   O31 1707   4.510   4.769  17.194  0.2978  0.3827  0.5497
   14DOPE   C31 1708   4.616   4.731  17.122 -0.1624  0.2040 -0.6182
   14DOPE   O32 1709   4.724   4.693  17.166  0.5255 -0.8977 -0.1278
   14DOPE   C32 1710   4.583   4.753  16.975 -1.0359  0.1875  0.3837
   14DOPE   H2X 1711   4.475   4.738  16.953 -0.8238 -2.8247  0.8579
   14DOPE   H2Y 1712   4.610   4.859  16.961  1.6677 -0.5408 -0.5292
   14DOPE   C23 1713   4.330   5.169  17.009  0.0304 -0.0028 -0.5606
   14DOPE   H3R 1714   4.342   5.088  16.934 -0.1837 -1.1838  0.6674
   14DOPE   H3S 1715   4.405   5.251  17.004  0.5194 -0.4961 -1.5536
   14DOPE   C24 1716   4.196   5.236  16.967 -0.5692  0.0637  0.6169
   14DOPE   H4R 1717   4.173   5.311  17.045 -1.5537  1.4492 -0.9439
   14DOPE   H4S 1718   4.115   5.162  16.952 -1.1527  0.8384 -0.1676
   14DOPE   C25 1719   4.216   5.326  16.834  0.6488 -0.0075 -0.2851
   14DOPE   H5R 1720   4.296   5.394  16.870 -0.7768  0.0919  3.0405
   14DOPE   H5S 1721   4.114   5.368  16.820  0.3673 -0.1565  1.1338
   14DOPE   C26 1722   4.263   5.250  16.705  0.3380 -0.2666 -0.5513
   14DOPE   H6R 1723   4.197   5.163  16.685 -0.2713 -0.1154  0.6642
   14DOPE   H6S 1724   4.367   5.215  16.721 -0.1280 -2.6077 -2.1028
   14DOPE   C27 1725   4.266   5.353  16.579  0.0285 -0.0338 -0.1837
   14DOPE   H7R 1726   4.357   5.413  16.599 -0.6695  0.3167  2.3207
   14DOPE   H7S 1727   4.169   5.408  16.580  1.5251  2.7359  0.1746
   14DOPE   C28 1728   4.290   5.269  16.452  0.5473  0.5616  0.2133
   14DOPE   H8R 1729   4.209   5.194  16.441  0.4608  0.6303  0.3798
   14DOPE   H8S 1730   4.382   5.206  16.459 -0.2734 -0.8756 -1.2673
   14DOPE   C29 1731   4.302   5.366  16.333  0.0853  0.3123 -0.3094
   14DOPE   H9R 1732   4.365   5.450  16.365 -0.2296  0.0273  1.1189
   14DOPE  C210 1733   4.242   5.369  16.212  0.6900 -0.3275  0.2702
   14DOPE  H10R 1734   4.276   5.434  16.130 -0.8887  0.4435  0.2054
   14DOPE  C211 1735   4.134   5.281  16.167 -0.0338  0.0849 -0.4278
   14DOPE  H11R 1736   4.047   5.296  16.234  1.6474  1.7681  1.5130
   14DOPE  H11S 1737   4.172   5.176  16.169  0.5908  0.2444  3.4160
   14DOPE  C212 1738   4.076   5.320  16.031  0.0434  0.4513  0.7983
   14DOPE  H12R 1739   4.040   5.423  16.009  1.1149  0.5816 -0.4643
   14DOPE  H12S 1740   3.981   5.264  16.027 -0.4678  1.3709 -2.3745
   14DOPE  C213 1741   4.160   5.282  15.907  0.1166  0.7865  0.0813
   14DOPE  H13R 1742   4.173   5.172  15.900 -0.1615  0.8257 -1.4007
   14DOPE  H13S 1743   4.262   5.325  15.922  1.1219 -1.1077 -0.9570
   14DOPE  C214 1744   4.093   5.321  15.770  0.6964 -0.1996 -0.2694
   14DOPE  H14R 1745   4.124   5.425  15.743  1.2558 -0.8935 -2.4874
   14DOPE  H14S 1746   3.982   5.332  15.776  0.6845  0.2569 -1.1221
   14DOPE  C215 1747   4.106   5.224  15.654  0.2221  0.0006 -0.5906
   14DOPE  H15R 1748   4.119   5.118  15.685  0.0379  0.1770  0.1132
   14DOPE  H15S 1749   4.202   5.265  15.617 -0.2876  4.4241  2.1711
   14DOPE  C216 1750   3.999   5.226  15.548 -0.6239 -0.4573 -0.5311
   14DOPE  H16R 1751   3.915   5.208  15.617  1.4248 -0.3821  2.1223
   14DOPE  H16S 1752   4.001   5.138  15.480 -2.1785 -0.5227 -0.5117
   14DOPE  C217 1753   3.981   5.371  15.480 -0.3509 -0.5086 -0.5282
   14DOPE  H17R 1754   4.077   5.398  15.433  1.7928 -0.3200  3.5141
   14DOPE  H17S 1755   3.959   5.445  15.559 -2.2373  0.9215 -2.2920
   14DOPE  C218 1756   3.865   5.387  15.378 -0.1655  0.3517  0.0266
   14DOPE  H18R 1757   3.774   5.344  15.424  1.8348 -1.6884  2.3892
   14DOPE  H18S 1758   3.882   5.331  15.284  2.6054  0.8935  0.1229
   14DOPE  H18T 1759   3.860   5.496  15.356 -0.7348  0.6132  1.3389
   14DOPE   C33 1760   4.663   4.673  16.874 -0.2592 -0.1304 -0.0938
   14DOPE   H3X 1761   4.632   4.567  16.886 -1.6370  0.1341 -1.1282
   14DOPE   H3Y 1762   4.770   4.674  16.903  0.4072 -0.5454 -2.3493
   14DOPE   C34 1763   4.644   4.720  16.727  0.0131  0.0153 -0.5934
   14DOPE   H4X 1764   4.539   4.718  16.691  0.2175  0.1459 -1.2233
   14DOPE   H4Y 1765   4.671   4.828  16.729 -0.7353  0.2031  0.9597
   14DOPE   C35 1766   4.746   4.660  16.638  0.1778  0.7950 -0.3915
   14DOPE   H5X 1767   4.728   4.551  16.651  0.4684  0.8286  0.4117
   14DOPE   H5Y 1768   4.847   4.674  16.683 -0.9506 -2.3203  3.7407
   14DOPE   C36 1769   4.732   4.701  16.488 -0.4074 -0.2165  0.1797
   14DOPE   H6X 1770   4.819   4.661  16.432 -1.4069 -1.7781 -0.3390
   14DOPE   H6Y 1771   4.733   4.812  16.484 -1.3987  0.0238  3.4281
   14DOPE   C37 1772   4.608   4.642  16.419 -0.5600  0.2312 -0.3783
   14DOPE   H7X 1773   4.619   4.536  16.449  3.5830  1.2363  2.4436
   14DOPE   H7Y 1774   4.517   4.683  16.468  0.5258  3.0112 -0.5403
   14DOPE   C38 1775   4.592   4.665  16.268 -0.5694 -0.2321  0.5609
   14DOPE   H8X 1776   4.602   4.774  16.254 -0.3615 -0.4565 -1.2236
   14DOPE   H8Y 1777   4.488   4.639  16.238 -0.8190 -0.1962  1.3785
   14DOPE   C39 1778   4.692   4.603  16.176  0.3011  0.3924  0.0417
   14DOPE   H9X 1779   4.710   4.498  16.203  2.3516  1.2545  2.3943
   14DOPE  C310 1780   4.747   4.656  16.064 -0.2491 -0.5543 -0.8140
   14DOPE  H10X 1781   4.813   4.599  15.998  2.5551  2.1087 -0.5272
   14DOPE  C311 1782   4.730   4.799  16.010 -0.4471 -0.1314  0.0370
   14DOPE  H11X 1783   4.706   4.873  16.088 -2.3484 -0.8058  0.1312
   14DOPE  H11Y 1784   4.827   4.825  15.962  0.2252 -3.5510 -0.7515
   14DOPE  C312 1785   4.624   4.804  15.895  0.5317 -0.4383  0.2820
   14DOPE  H12X 1786   4.574   4.903  15.900  0.5755 -0.4221  0.4023
   14DOPE  H12Y 1787   4.552   4.723  15.916  0.4276 -0.5040 -0.2993
   14DOPE  C313 1788   4.698   4.757  15.770 -0.1354 -0.3010 -0.6396
   14DOPE  H13X 1789   4.789   4.815  15.745 -0.8890  0.9137 -0.6957
   14DOPE  H13Y 1790   4.741   4.657  15.791 -0.0781  0.1101  1.4081
   14DOPE  C314 1791   4.619   4.760  15.640  0.4092  0.4674 -0.3650
   14DOPE  H14X 1792   4.581   4.862  15.623  3.8206  1.8274 -0.6337
   14DOPE  H14Y 1793   4.529   4.696  15.641  1.0330 -0.4826 -1.5581
   14DOPE  C315 1794   4.702   4.710  15.520  0.1214 -0.3623  0.0758
   14DOPE  H15X 1795   4.741   4.608  15.540 -0.3764 -0.0883  2.7948
   14DOPE  H15Y 1796   4.790   4.776  15.506  0.8457 -0.9673  1.6659
   14DOPE  C316 1797   4.620   4.708  15.391  0.6352  0.0440 -0.6549
   14DOPE  H16X 1798   4.552   4.796  15.379  0.2379 -0.1733 -0.0267
   14DOPE  H16Y 1799   4.547   4.624  15.392 -0.7674  1.2135 -0.7251
   14DOPE  C317 1800   4.694   4.719  15.259  0.2135  0.3792 -0.5844
   14DOPE  H17X 1801   4.618   4.727  15.179  1.0714 -0.5903 -1.5290
   14DOPE  H17Y 1802   4.761   4.807  15.259  1.5861 -0.5478  2.0752
   14DOPE  C318 1803   4.780   4.601  15.214  0.2185  0.7911 -0.2145
   14DOPE  H18X 1804   4.872   4.608  15.277  0.9934  1.5154 -1.3926
   14DOPE  H18Y 1805   4.723   4.507  15.232 -0.0129  0.6153 -1.7119
   14DOPE  H18Z 1806   4.807   4.610  15.107  0.1974  1.3029 -0.1777
   15DOPE     N 1807   0.158   3.713  17.445 -0.6282  0.1343  0.4652
   15DOPE   HN1 1808   0.228   3.646  17.408  1.0396  3.0404 -2.0661
   15DOPE   HN2 1809   0.177   3.733  17.545 -0.3836  0.5503  0.3390
   15DOPE   HN3 1810   0.067   3.666  17.428 -0.8606 -0.0605  2.0842
   15DOPE   C12 1811   0.162   3.831  17.351 -0.2993  0.2822 -0.2992
   15DOPE  H12A 1812   0.232   3.909  17.388 -1.1395  0.9015 -0.0039
   15DOPE  H12B 1813   0.062   3.876  17.338 -0.0405  0.8230 -0.4520
   15DOPE   C11 1814   0.197   3.772  17.213  0.8163  0.0057  0.8149
   15DOPE  H11A 1815   0.292   3.715  17.217  1.2014  0.3021 -1.9258
   15DOPE  H11B 1816   0.222   3.864  17.156  1.8837  0.3160  1.7547
   15DOPE     P 1817   0.116   3.602  17.026  0.0223 -0.3138  0.5081
   15DOPE   O13 1818  -0.013   3.546  16.982  0.3797 -0.1014  0.5416
   15DOPE   O14 1819   0.225   3.505  17.054 -0.0040  0.0355  0.1919
   15DOPE   O11 1820   0.161   3.706  16.915  0.4683  0.2915 -0.3918
   15DOPE   O12 1821   0.087   3.696  17.158 -1.1113 -0.5083  0.3654
   15DOPE    C1 1822   0.083   3.822  16.883 -0.3002 -0.3670  0.5394
   15DOPE    HA 1823   0.134   3.918  16.909 -0.4625  0.2070 -1.1657
   15DOPE    HB 1824  -0.011   3.827  16.942 -0.3056 -1.5381  0.6464
   15DOPE    C2 1825   0.046   3.835  16.732  0.2132 -0.3581  0.1824
   15DOPE    HS 1826  -0.035   3.910  16.735  0.3097 -0.2578  0.2891
   15DOPE   O21 1827   0.007   3.702  16.680  0.0130 -0.0880 -0.4677
   15DOPE   C21 1828  -0.110   3.668  16.730 -0.0451  0.2185 -0.0148
   15DOPE   O22 1829  -0.184   3.741  16.797  0.0676  0.3911 -0.4031
   15DOPE   C22 1830  -0.145   3.523  16.680  0.2336 -0.8668  0.0900
   15DOPE   H2R 1831  -0.182   3.462  16.765  0.3003  0.3281  1.0014
   15DOPE   H2S 1832  -0.054   3.479  16.635 -0.1692 -0.1854 -1.4675
   15DOPE    C3 1833   0.165   3.894  16.646  0.0757  0.3291 -0.1447
   15DOPE    HX 1834   0.251   3.826  16.661 -1.5784 -1.5580  1.3625
   15DOPE    HY 1835   0.192   3.995  16.683 -1.2841  0.8806 -0.5662
   15DOPE   O31 1836   0.125   3.918  16.512  0.2702  0.1704  0.5102
   15DOPE   C31 1837   0.177   3.841  16.416 -0.4960 -0.8796  0.5224
   15DOPE   O32 1838   0.247   3.744  16.433 -0.2313 -0.0910  0.6802
   15DOPE   C32 1839   0.132   3.894  16.275  0.4985 -0.0642  0.4618
   15DOPE   H2X 1840   0.024   3.918  16.285  0.8773  0.8438  3.2140
   15DOPE   H2Y 1841   0.192   3.985  16.253  0.4676  0.1653  1.2893
   15DOPE   C23 1842  -0.242   3.528  16.564 -0.0595 -0.5610  0.0241
   15DOPE   H3R 1843  -0.336   3.576  16.598 -1.0902 -1.4097 -1.5102
   15DOPE   H3S 1844  -0.267   3.423  16.537 -2.2417  0.4390 -2.1353
   15DOPE   C24 1845  -0.192   3.603  16.440  0.2000 -0.4180 -0.0305
   15DOPE   H4R 1846  -0.094   3.563  16.408  0.4555  0.7809 -0.7937
   15DOPE   H4S 1847  -0.179   3.713  16.451  0.7665 -0.5871  1.1091
   15DOPE   C25 1848  -0.300   3.578  16.316 -0.1213  0.0344 -0.0271
   15DOPE   H5R 1849  -0.396   3.614  16.361  0.1318 -0.1066  0.6442
   15DOPE   H5S 1850  -0.300   3.469  16.297 -2.2876 -0.0113 -0.0278
   15DOPE   C26 1851  -0.259   3.652  16.186  0.5763  0.0567 -0.2225
   15DOPE   H6R 1852  -0.160   3.612  16.155  0.9479  1.1910 -0.5701
   15DOPE   H6S 1853  -0.255   3.760  16.211 -1.1287  0.0812  0.0857
   15DOPE   C27 1854  -0.378   3.629  16.087 -0.0156 -0.2862 -0.0630
   15DOPE   H7R 1855  -0.473   3.666  16.131  1.1423  2.8856  0.0219
   15DOPE   H7S 1856  -0.388   3.520  16.069 -2.6247 -0.5054  1.9925
   15DOPE   C28 1857  -0.359   3.704  15.955 -0.5764  0.5567  0.2317
   15DOPE   H8R 1858  -0.266   3.655  15.921 -1.6437 -0.2741 -1.6339
   15DOPE   H8S 1859  -0.344   3.811  15.980  2.1777 -0.0739  1.7252
   15DOPE   C29 1860  -0.466   3.677  15.847 -0.6720  0.7369 -0.1778
   15DOPE   H9R 1861  -0.567   3.719  15.857 -1.6295 -1.4287 -0.2098
   15DOPE  C210 1862  -0.460   3.597  15.742  0.0114 -0.4733  0.4096
   15DOPE  H10R 1863  -0.530   3.616  15.659 -1.3401  0.3423  1.7028
   15DOPE  C211 1864  -0.356   3.496  15.703 -0.0893 -0.8178 -0.5298
   15DOPE  H11R 1865  -0.407   3.416  15.646 -1.2026 -0.6130  0.1519
   15DOPE  H11S 1866  -0.322   3.448  15.797 -1.5822 -0.8137  0.0327
   15DOPE  C212 1867  -0.225   3.552  15.639  0.0420  0.4295  0.3677
   15DOPE  H12R 1868  -0.147   3.472  15.635  1.2866  1.6625 -1.6266
   15DOPE  H12S 1869  -0.189   3.643  15.691  0.8168 -0.1073  0.8012
   15DOPE  C213 1870  -0.253   3.615  15.501 -0.5876 -0.4606 -0.0318
   15DOPE  H13R 1871  -0.160   3.662  15.462 -0.7798 -0.9261 -1.0795
   15DOPE  H13S 1872  -0.325   3.700  15.504  0.3355  0.3567 -0.4318
   15DOPE  C214 1873  -0.314   3.520  15.399 -0.3874  0.2553 -0.2359
   15DOPE  H14R 1874  -0.417   3.494  15.434 -0.8466  0.4183 -1.4271
   15DOPE  H14S 1875  -0.258   3.424  15.401  1.2382  1.0466 -3.0405
   15DOPE  C215 1876  -0.312   3.581  15.254  0.6946 -0.0867 -0.3383
   15DOPE  H15R 1877  -0.209   3.589  15.213  0.2108  3.2008 -1.2650
   15DOPE  H15S 1878  -0.369   3.677  15.253  1.6234  0.5130  1.4665
   15DOPE  C216 1879  -0.392   3.476  15.168  0.6494 -0.2681 -0.1587
   15DOPE  H16R 1880  -0.500   3.499  15.183 -0.2312 -3.9983  0.3197
   15DOPE  H16S 1881  -0.383   3.370  15.199  0.1824  0.1455  1.4706
   15DOPE  C217 1882  -0.358   3.468  15.021  0.3995  0.9195 -0.2425
   15DOPE  H17R 1883  -0.251   3.447  14.998 -0.5867 -4.1634 -1.3454
   15DOPE  H17S 1884  -0.381   3.566  14.973 -2.6460 -0.7250 -2.4509
   15DOPE  C218 1885  -0.431   3.356  14.952  0.8182 -0.1751 -0.1008
   15DOPE  H18R 1886  -0.538   3.382  14.939  0.7025  0.4639  1.8124
   15DOPE  H18S 1887  -0.416   3.258  15.002  0.2445  0.0081  0.4428
   15DOPE  H18T 1888  -0.390   3.336  14.850  1.7793  0.2727  0.1839
   15DOPE   C33 1889   0.146   3.774  16.187 -0.5156  0.0145  0.3053
   15DOPE   H3X 1890   0.073   3.691  16.197  1.4227 -1.9144 -0.8932
   15DOPE   H3Y 1891   0.238   3.717  16.208 -0.4641  0.5558  1.6751
   15DOPE   C34 1892   0.134   3.809  16.036  0.3230  0.2308  0.7044
   15DOPE   H4X 1893   0.029   3.836  16.009  0.2374  1.8419  2.4858
   15DOPE   H4Y 1894   0.196   3.899  16.021 -0.5126  0.6805 -0.1147
   15DOPE   C35 1895   0.191   3.690  15.946 -0.1258  0.3207 -0.7547
   15DOPE   H5X 1896   0.157   3.595  15.993 -0.7940  0.4925 -0.8733
   15DOPE   H5Y 1897   0.302   3.693  15.942  0.1154  0.7034  3.0289
   15DOPE   C36 1898   0.148   3.694  15.798 -0.3028 -0.1674 -0.0955
   15DOPE   H6X 1899   0.188   3.792  15.766 -1.8112  0.9559  1.3009
   15DOPE   H6Y 1900   0.038   3.691  15.782 -0.2500 -2.7000 -0.4484
   15DOPE   C37 1901   0.210   3.584  15.716  0.2864  0.4601 -0.6757
   15DOPE   H7X 1902   0.316   3.558  15.737  0.4429  2.1637  0.9045
   15DOPE   H7Y 1903   0.149   3.497  15.747 -1.1698  1.6663 -0.0128
   15DOPE   C38 1904   0.190   3.598  15.566  0.4194 -0.1292 -0.2104
   15DOPE   H8X 1905   0.249   3.683  15.526 -0.5560  0.0554 -1.2890
   15DOPE   H8Y 1906   0.086   3.634  15.547  0.0900 -1.8090 -1.8459
   15DOPE   C39 1907   0.221   3.459  15.500  0.7294 -0.1990  0.5980
   15DOPE   H9X 1908   0.211   3.363  15.552 -1.2527 -0.5301 -0.2912
   15DOPE  C310 1909   0.269   3.452  15.378 -0.5774 -0.1241 -0.4447
   15DOPE  H10X 1910   0.288   3.353  15.334  0.8930 -0.3015  0.5304
   15DOPE  C311 1911   0.282   3.563  15.282 -0.0338  0.3399  0.4311
   15DOPE  H11X 1912   0.301   3.665  15.322  0.2700 -0.2130  1.7151
   15DOPE  H11Y 1913   0.367   3.533  15.217  0.5690 -0.3123  1.4921
   15DOPE  C312 1914   0.145   3.574  15.207 -0.8410  0.1644  0.0024
   15DOPE  H12X 1915   0.071   3.626  15.271 -0.1313  1.4234 -0.1643
   15DOPE  H12Y 1916   0.106   3.472  15.187 -1.4422  0.3129  0.4031
   15DOPE  C313 1917   0.161   3.651  15.075  0.0605  0.4038 -0.4742
   15DOPE  H13X 1918   0.239   3.730  15.082 -0.7498  1.1354  0.9564
   15DOPE  H13Y 1919   0.192   3.572  15.004  0.7760 -0.3582  0.6639
   15DOPE  C314 1920   0.037   3.725  15.029 -0.2760  0.2515  0.6994
   15DOPE  H14X 1921   0.018   3.810  15.097 -0.2678  1.5411 -0.8478
   15DOPE  H14Y 1922  -0.047   3.653  15.040  0.9845 -1.0913  2.1208
   15DOPE  C315 1923   0.051   3.773  14.883  0.0877  0.1201 -0.4359
   15DOPE  H15X 1924   0.066   3.681  14.822 -1.9619 -0.0878 -0.6684
   15DOPE  H15Y 1925   0.146   3.826  14.861  0.3342 -0.7947 -1.6975
   15DOPE  C316 1926  -0.069   3.850  14.839  0.6040  0.3154  0.6243
   15DOPE  H16X 1927  -0.158   3.784  14.851  0.2645  0.8810  1.3313
   15DOPE  H16Y 1928  -0.064   3.857  14.728 -0.0690 -1.5753  0.4382
   15DOPE  C317 1929  -0.085   3.988  14.907  0.4095  0.2268  0.8685
   15DOPE  H17X 1930  -0.090   3.978  15.018  1.7737 -3.2670  0.7243
   15DOPE  H17Y 1931  -0.004   4.056  14.874 -0.5699 -0.0633 -2.4831
   15DOPE  C318 1932  -0.214   4.058  14.866  0.0528  0.3737 -0.0488
   15DOPE  H18X 1933  -0.232   4.059  14.757 -3.4460  0.0618  0.4119
   15DOPE  H18Y 1934  -0.300   4.011  14.918  0.1585 -0.5210 -0.6710
   15DOPE  H18Z 1935  -0.208   4.165  14.897  2.0485  0.4381 -0.5220
   16DOPE     N 1936   5.790   4.203  17.488  0.3283 -0.5919 -0.2186
   16DOPE   HN1 1937   5.810   4.301  17.458 -3.3058 -0.2918 -2.1480
   16DOPE   HN2 1938   5.844   4.148  17.418 -1.2110 -1.4863 -0.7318
   16DOPE   HN3 1939   5.690   4.187  17.464 -0.3999  2.6184  0.1639
   16DOPE   C12 1940   5.823   4.162  17.623  0.1713  0.4299 -0.8168
   16DOPE  H12A 1941   5.760   4.073  17.643 -0.9639  1.2341 -0.6819
   16DOPE  H12B 1942   5.777   4.239  17.689 -1.9031 -2.1690  0.9742
   16DOPE   C11 1943   5.969   4.154  17.659 -0.3641  0.1557  0.3251
   16DOPE  H11A 1944   5.988   4.113  17.761  0.3811 -2.8667 -0.9200
   16DOPE  H11B 1945   6.016   4.254  17.655  2.5953 -1.0738  1.3287
   16DOPE     P 1946   6.039   3.921  17.567 -0.0255 -0.0715 -0.0977
   16DOPE   O13 1947   5.922   3.879  17.647  0.9634  0.1426 -0.5648
   16DOPE   O14 1948   6.172   3.874  17.605 -0.0406  0.5333 -0.4384
   16DOPE   O11 1949   6.009   3.878  17.417 -0.1335 -0.4165  0.3818
   16DOPE   O12 1950   6.044   4.078  17.569 -0.0002  0.8356  0.3920
   16DOPE    C1 1951   6.099   3.834  17.319 -0.9597  0.3978  0.6166
   16DOPE    HA 1952   6.098   3.727  17.291 -0.0976  0.6112 -0.3061
   16DOPE    HB 1953   6.204   3.850  17.353 -1.0079 -1.0645  1.5034
   16DOPE    C2 1954   6.094   3.911  17.187  0.8377 -0.3185  0.0491
   16DOPE    HS 1955   6.138   4.010  17.212 -1.3575  1.1969 -1.7411
   16DOPE   O21 1956   5.965   3.924  17.126 -0.1034 -0.3140 -0.3008
   16DOPE   C21 1957   5.894   4.027  17.182 -0.1940  0.0976 -0.1718
   16DOPE   O22 1958   5.929   4.090  17.280 -0.7001  0.3582  0.3723
   16DOPE   C22 1959   5.761   4.044  17.107  0.4088 -0.2787  0.2625
   16DOPE   H2R 1960   5.683   4.023  17.183  0.1673  0.7931  0.3219
   16DOPE   H2S 1961   5.742   3.968  17.027 -0.2691  1.0537 -0.8896
   16DOPE    C3 1962   6.195   3.858  17.085 -0.3063 -0.6639  0.0164
   16DOPE    HX 1963   6.157   3.754  17.071 -1.1665 -0.6040  1.6497
   16DOPE    HY 1964   6.291   3.841  17.138  0.0623 -0.4950 -0.5919
   16DOPE   O31 1965   6.203   3.931  16.963  0.3484  0.0752  0.3006
   16DOPE   C31 1966   6.311   4.008  16.953 -0.2842 -0.6029  0.3396
   16DOPE   O32 1967   6.402   4.009  17.038 -0.1955 -0.6480 -0.1556
   16DOPE   C32 1968   6.301   4.094  16.824  0.0249 -0.5960 -0.2450
   16DOPE   H2X 1969   6.193   4.097  16.802  0.3383 -1.9281 -2.2313
   16DOPE   H2Y 1970   6.344   4.195  16.840 -2.8238  0.6569  0.0816
   16DOPE   C23 1971   5.739   4.193  17.058 -0.1731 -0.2737 -0.2750
   16DOPE   H3R 1972   5.759   4.261  17.144 -1.8152 -0.1109  0.0070
   16DOPE   H3S 1973   5.631   4.211  17.042 -0.1608 -0.9852 -1.2244
   16DOPE   C24 1974   5.816   4.231  16.935  0.2710 -0.4787 -0.0239
   16DOPE   H4R 1975   5.915   4.244  16.983  0.0635  3.7510 -0.3536
   16DOPE   H4S 1976   5.772   4.326  16.898 -1.8333 -1.0928  0.7520
   16DOPE   C25 1977   5.834   4.122  16.819 -0.2942 -0.6610  0.3571
   16DOPE   H5R 1978   5.752   4.048  16.814 -1.2859  0.4047  0.5323
   16DOPE   H5S 1979   5.918   4.056  16.852  0.6563 -0.0904 -0.8243
   16DOPE   C26 1980   5.853   4.181  16.680 -0.1709 -0.0560  0.3199
   16DOPE   H6R 1981   5.762   4.237  16.647  0.9758  0.8691 -1.4000
   16DOPE   H6S 1982   5.872   4.096  16.612  0.1651  0.8411 -0.7443
   16DOPE   C27 1983   5.967   4.287  16.665 -0.3634 -0.6204 -0.5548
   16DOPE   H7R 1984   6.066   4.237  16.671 -0.1206 -0.0096  1.2862
   16DOPE   H7S 1985   5.958   4.358  16.750 -2.1519 -3.0366  1.4444
   16DOPE   C28 1986   5.966   4.355  16.529 -0.0940  0.9847  0.3059
   16DOPE   H8R 1987   6.036   4.441  16.523  2.3401 -0.8670  0.7379
   16DOPE   H8S 1988   5.869   4.402  16.504 -0.8647 -0.6213  0.1500
   16DOPE   C29 1989   6.010   4.258  16.416  0.5694  0.2317  0.4076
   16DOPE   H9R 1990   6.038   4.156  16.447 -1.3279 -0.0610  1.3211
   16DOPE  C210 1991   6.035   4.295  16.290  0.3598 -0.3186 -0.1561
   16DOPE  H10R 1992   6.066   4.216  16.220  2.5077  0.2956  0.0157
   16DOPE  C211 1993   6.014   4.434  16.231 -0.3537 -0.9909  0.1646
   16DOPE  H11R 1994   6.058   4.512  16.298  1.4136 -0.9901 -0.9453
   16DOPE  H11S 1995   5.905   4.453  16.220 -0.5443 -1.7787  0.6066
   16DOPE  C212 1996   6.077   4.447  16.087  0.4912 -0.1803 -0.0535
   16DOPE  H12R 1997   6.173   4.392  16.075  1.1523  1.3731 -2.7488
   16DOPE  H12S 1998   6.093   4.555  16.071  3.6121 -0.5349  0.0329
   16DOPE  C213 1999   5.983   4.397  15.979 -0.1635  0.1644  0.4717
   16DOPE  H13R 2000   5.909   4.476  15.954  0.1714  0.0489 -1.0245
   16DOPE  H13S 2001   5.928   4.310  16.018  1.2668 -1.1000 -0.2210
   16DOPE  C214 2002   6.059   4.360  15.854  0.4368 -0.3491 -0.6609
   16DOPE  H14R 2003   5.991   4.324  15.774 -1.4495  0.1327  0.6649
   16DOPE  H14S 2004   6.114   4.267  15.880 -1.6302 -1.2797  0.6531
   16DOPE  C215 2005   6.147   4.476  15.799  0.4657 -0.0106  0.5819
   16DOPE  H15R 2006   6.213   4.517  15.879  2.3499  1.1585 -1.4576
   16DOPE  H15S 2007   6.077   4.560  15.782  0.5274  0.4041  2.1516
   16DOPE  C216 2008   6.220   4.434  15.675 -0.3362  0.0163  0.5230
   16DOPE  H16R 2009   6.267   4.334  15.685  0.9255  0.2642 -2.1854
   16DOPE  H16S 2010   6.296   4.513  15.657 -1.0586  0.4554 -0.6948
   16DOPE  C217 2011   6.130   4.449  15.549  0.0358 -0.2608  0.1731
   16DOPE  H17R 2012   6.068   4.540  15.551 -2.2656 -1.7348 -0.3649
   16DOPE  H17S 2013   6.064   4.360  15.540  0.4251 -0.4834 -0.5955
   16DOPE  C218 2014   6.211   4.440  15.421 -0.5071  0.1049  0.0152
   16DOPE  H18R 2015   6.145   4.463  15.335 -0.5671 -0.4234 -0.0841
   16DOPE  H18S 2016   6.251   4.337  15.407  0.4205  0.5812 -0.9423
   16DOPE  H18T 2017   6.289   4.518  15.409 -0.7574  0.4294  0.4487
   16DOPE   C33 2018   6.356   4.014  16.709 -0.3172 -0.1505  0.2034
   16DOPE   H3X 2019   6.303   3.919  16.689 -0.6983  0.4726 -2.0671
   16DOPE   H3Y 2020   6.464   3.990  16.721  0.0232  0.9020 -0.5211
   16DOPE   C34 2021   6.339   4.098  16.581  0.2496 -0.1947  0.4033
   16DOPE   H4X 2022   6.279   4.041  16.507 -0.5419  1.9748 -0.7167
   16DOPE   H4Y 2023   6.277   4.188  16.603 -0.7146 -0.4938 -0.9283
   16DOPE   C35 2024   6.466   4.144  16.506  0.0827  0.1506  0.0439
   16DOPE   H5X 2025   6.543   4.064  16.509  0.8692  0.7060 -2.8142
   16DOPE   H5Y 2026   6.495   4.237  16.560  0.2570  2.3022 -3.4986
   16DOPE   C36 2027   6.443   4.180  16.359  0.1598 -0.1012  0.7765
   16DOPE   H6X 2028   6.522   4.253  16.333 -0.3402  0.4609  0.8138
   16DOPE   H6Y 2029   6.357   4.249  16.346  0.2538  0.0857  1.1358
   16DOPE   C37 2030   6.436   4.058  16.265 -0.2917  0.4826  0.5087
   16DOPE   H7X 2031   6.529   3.998  16.271 -0.0722  0.9069  1.7899
   16DOPE   H7Y 2032   6.367   3.986  16.315 -0.5415  1.0476  0.9966
   16DOPE   C38 2033   6.380   4.093  16.125 -0.5255 -0.1937  0.4877
   16DOPE   H8X 2034   6.280   4.142  16.128  0.0278  1.0221 -0.2973
   16DOPE   H8Y 2035   6.371   3.993  16.077  1.0262  0.0135 -0.2774
   16DOPE   C39 2036   6.471   4.195  16.058 -0.4205  0.5313 -0.3636
   16DOPE   H9X 2037   6.490   4.283  16.120 -1.1755  2.0145 -2.1620
   16DOPE  C310 2038   6.510   4.198  15.930  0.2732 -0.9603  0.4876
   16DOPE  H10X 2039   6.574   4.280  15.895  0.4350 -0.8855  0.9436
   16DOPE  C311 2040   6.489   4.091  15.827 -0.5114  0.0443 -0.0208
   16DOPE  H11X 2041   6.469   3.996  15.883 -2.0046  1.4018  1.8969
   16DOPE  H11Y 2042   6.394   4.124  15.780  0.4756  2.0795 -0.6606
   16DOPE  C312 2043   6.601   4.098  15.723  0.2641 -0.3885 -0.4714
   16DOPE  H12X 2044   6.701   4.076  15.767  1.4926  0.2678 -2.7842
   16DOPE  H12Y 2045   6.611   4.198  15.677 -1.7915 -0.9697 -2.3309
   16DOPE  C313 2046   6.581   3.996  15.607  0.2241  0.0468  0.8408
   16DOPE  H13X 2047   6.583   3.896  15.655 -1.5100  0.9888  3.0422
   16DOPE  H13Y 2048   6.483   4.016  15.560 -0.1445  0.0275  1.5848
   16DOPE  C314 2049   6.687   4.009  15.498 -0.1857  0.2032 -0.1215
   16DOPE  H14X 2050   6.781   3.974  15.546 -0.4923 -1.2481 -0.5132
   16DOPE  H14Y 2051   6.691   4.111  15.454 -0.0517  0.1950 -0.1308
   16DOPE  C315 2052   6.673   3.918  15.369  0.2223 -0.9476 -0.3506
   16DOPE  H15X 2053   6.697   3.810  15.386 -1.2568 -1.1001  0.9094
   16DOPE  H15Y 2054   6.752   3.948  15.297 -0.4997  0.9352 -0.4191
   16DOPE  C316 2055   6.534   3.926  15.311  0.8597  0.1773 -0.1359
   16DOPE  H16X 2056   6.455   3.895  15.382 -0.9326 -0.8821 -2.4450
   16DOPE  H16Y 2057   6.511   3.865  15.221 -4.2648  1.5318 -0.0436
   16DOPE  C317 2058   6.493   4.061  15.262 -0.5202  0.6414  0.4346
   16DOPE  H17X 2059   6.512   4.136  15.341  0.5739  0.7328  0.1121
   16DOPE  H17Y 2060   6.561   4.107  15.187  0.0540 -0.2139  0.4137
   16DOPE  C318 2061   6.350   4.074  15.207 -0.5561  0.0866  0.2335
   16DOPE  H18X 2062   6.304   4.175  15.198 -2.5070 -0.8415 -1.0761
   16DOPE  H18Y 2063   6.342   4.043  15.100  0.0775 -0.5395  0.3608
   16DOPE  H18Z 2064   6.273   4.023  15.268  0.1221  1.5168  2.4164
   17DOPE     N 2065   2.354   1.443  17.239 -0.1650 -0.0062  0.0107
   17DOPE   HN1 2066   2.350   1.516  17.313  0.1249  2.0568 -1.8939
   17DOPE   HN2 2067   2.327   1.352  17.281 -2.0950  1.5185  2.3439
   17DOPE   HN3 2068   2.449   1.436  17.196  0.2265 -0.7633  0.9483
   17DOPE   C12 2069   2.252   1.483  17.137 -0.2538  0.0410 -0.2018
   17DOPE  H12A 2070   2.251   1.411  17.052 -1.1676 -0.1577 -0.0427
   17DOPE  H12B 2071   2.283   1.578  17.088 -0.7721  0.5675  0.4709
   17DOPE   C11 2072   2.113   1.492  17.194  0.1533  0.0553 -0.2690
   17DOPE  H11A 2073   2.067   1.392  17.210 -2.4673  1.4059  1.4424
   17DOPE  H11B 2074   2.037   1.541  17.130 -1.1324  1.1256  1.9652
   17DOPE     P 2075   2.089   1.713  17.340  0.2053  0.2034 -0.4958
   17DOPE   O13 2076   2.190   1.781  17.421  0.2654  0.2784 -0.8452
   17DOPE   O14 2077   1.946   1.736  17.376 -0.4586 -0.2534 -0.4709
   17DOPE   O11 2078   2.106   1.770  17.183 -0.4477 -0.1192 -0.2016
   17DOPE   O12 2079   2.117   1.557  17.319  0.2098 -0.5473 -0.0938
   17DOPE    C1 2080   2.232   1.829  17.148  0.2672  0.3437 -0.1201
   17DOPE    HA 2081   2.314   1.757  17.169 -0.6174 -0.5188  0.4333
   17DOPE    HB 2082   2.256   1.920  17.207  1.9282  0.2677 -0.6292
   17DOPE    C2 2083   2.230   1.884  17.004  0.2075  0.4672 -0.5496
   17DOPE    HS 2084   2.142   1.947  16.979 -1.0844 -1.2028 -0.4504
   17DOPE   O21 2085   2.234   1.770  16.916 -0.1124  0.2188  0.2677
   17DOPE   C21 2086   2.132   1.751  16.842  0.2685  0.1367  0.2951
   17DOPE   O22 2087   2.025   1.805  16.842  0.0002  0.2551 -0.1358
   17DOPE   C22 2088   2.180   1.647  16.733  0.4565 -0.2105 -0.2202
   17DOPE   H2R 2089   2.213   1.558  16.791  1.1081 -0.2331 -0.6178
   17DOPE   H2S 2090   2.274   1.674  16.681  1.3053 -0.5848  1.0448
   17DOPE    C3 2091   2.372   1.958  16.982  0.4171  0.0256 -0.1586
   17DOPE    HX 2092   2.448   1.886  17.020  1.0419  0.9186  0.3325
   17DOPE    HY 2093   2.372   2.048  17.047 -1.3735  0.9494 -1.3551
   17DOPE   O31 2094   2.383   2.008  16.847  0.7696 -0.1489 -0.1093
   17DOPE   C31 2095   2.505   1.997  16.794  0.1355  0.1736 -0.1763
   17DOPE   O32 2096   2.604   1.963  16.851  0.1713 -0.3230 -0.0668
   17DOPE   C32 2097   2.505   2.036  16.648 -0.0716 -0.4006 -0.3443
   17DOPE   H2X 2098   2.419   2.103  16.629 -1.0174 -1.8252 -1.3391
   17DOPE   H2Y 2099   2.601   2.089  16.628 -1.5776  3.8467  2.3259
   17DOPE   C23 2100   2.066   1.624  16.634 -0.6981 -0.1470  0.2237
   17DOPE   H3R 2101   2.018   1.719  16.602 -0.3806 -0.3428 -0.8936
   17DOPE   H3S 2102   1.987   1.571  16.690 -0.5746  0.2609  0.7861
   17DOPE   C24 2103   2.108   1.569  16.495  0.0704  0.8832  0.3654
   17DOPE   H4R 2104   2.027   1.529  16.430 -0.2506  0.0279  1.2625
   17DOPE   H4S 2105   2.162   1.477  16.526 -2.9350 -1.3732 -0.5380
   17DOPE   C25 2106   2.185   1.662  16.397  0.4741  0.1585  0.3170
   17DOPE   H5R 2107   2.255   1.729  16.451 -1.0987  2.3755 -0.2379
   17DOPE   H5S 2108   2.108   1.728  16.352 -0.1494 -0.2635  0.7340
   17DOPE   C26 2109   2.254   1.585  16.282 -0.3477 -0.2170  0.4118
   17DOPE   H6R 2110   2.178   1.520  16.232 -1.0059  0.3870  0.6057
   17DOPE   H6S 2111   2.323   1.505  16.317 -0.5358 -0.8051 -0.5131
   17DOPE   C27 2112   2.314   1.671  16.172  0.2780  0.3030 -0.1231
   17DOPE   H7R 2113   2.405   1.724  16.209 -0.2223  2.1795 -1.4423
   17DOPE   H7S 2114   2.241   1.742  16.128 -0.0000  0.0117 -0.1292
   17DOPE   C28 2115   2.371   1.576  16.057 -0.4888 -0.5528 -0.5021
   17DOPE   H8R 2116   2.291   1.506  16.024  0.3774 -1.5203 -0.5758
   17DOPE   H8S 2117   2.447   1.506  16.096 -0.1807 -0.5296 -1.0499
   17DOPE   C29 2118   2.427   1.662  15.943  0.1491  0.0998  0.1914
   17DOPE   H9R 2119   2.482   1.751  15.975 -1.5760  1.3006 -0.0718
   17DOPE  C210 2120   2.395   1.642  15.812 -0.5102  0.1067 -0.1623
   17DOPE  H10R 2121   2.408   1.723  15.738  1.4882  2.3601  2.4435
   17DOPE  C211 2122   2.320   1.531  15.751  0.5814  0.8296  1.0591
   17DOPE  H11R 2123   2.308   1.442  15.816  1.0493  0.7461  1.0321
   17DOPE  H11S 2124   2.383   1.488  15.670  1.8582  2.5538  1.0835
   17DOPE  C212 2125   2.182   1.565  15.677 -0.0873 -0.1886 -0.2520
   17DOPE  H12R 2126   2.112   1.634  15.729 -0.9973  0.5268 -2.3055
   17DOPE  H12S 2127   2.126   1.469  15.667  1.4375 -1.2143  0.6598
   17DOPE  C213 2128   2.198   1.629  15.536 -0.4263  0.1604 -0.2702
   17DOPE  H13R 2129   2.277   1.573  15.481 -0.6116 -0.2414 -0.1370
   17DOPE  H13S 2130   2.242   1.731  15.542  1.1116 -0.4650 -0.1952
   17DOPE  C214 2131   2.069   1.622  15.459 -0.3329  0.1374 -0.0208
   17DOPE  H14R 2132   1.994   1.688  15.507 -1.1341 -1.4457  0.9716
   17DOPE  H14S 2133   2.030   1.518  15.462 -1.2680  0.3852 -1.8427
   17DOPE  C215 2134   2.077   1.662  15.304 -0.5432 -0.3318 -0.5685
   17DOPE  H15R 2135   2.104   1.769  15.305  0.6733 -0.6019 -1.9150
   17DOPE  H15S 2136   1.972   1.661  15.268 -0.4785 -0.2126 -0.7580
   17DOPE  C216 2137   2.167   1.581  15.218 -0.4131  0.5360  0.5696
   17DOPE  H16R 2138   2.139   1.475  15.237  0.4835 -0.3116 -2.3945
   17DOPE  H16S 2139   2.266   1.603  15.263  0.5846 -2.4902  0.0680
   17DOPE  C217 2140   2.169   1.622  15.069 -0.4810 -0.0633  0.0402
   17DOPE  H17R 2141   2.222   1.717  15.048  0.8932 -0.3135  2.1254
   17DOPE  H17S 2142   2.066   1.645  15.034  0.7440  3.3085 -1.8594
   17DOPE  C218 2143   2.224   1.520  14.974  0.2591  0.0090 -0.4606
   17DOPE  H18R 2144   2.215   1.542  14.866  0.4797  0.4891 -0.3813
   17DOPE  H18S 2145   2.168   1.425  14.988 -0.6556  0.8906  2.6411
   17DOPE  H18T 2146   2.330   1.495  14.995 -0.0661  0.1414  1.5671
   17DOPE   C33 2147   2.484   1.920  16.549  0.3291  0.2921  0.5049
   17DOPE   H3X 2148   2.392   1.863  16.574 -1.4146  2.1539 -1.2440
   17DOPE   H3Y 2149   2.574   1.856  16.564  0.7745  0.5810 -0.8239
   17DOPE   C34 2150   2.498   1.952  16.400 -0.1241 -0.1348  0.0385
   17DOPE   H4X 2151   2.603   1.958  16.366 -0.4196  2.0661 -0.6598
   17DOPE   H4Y 2152   2.458   1.857  16.358 -0.0465 -1.0245  1.9103
   17DOPE   C35 2153   2.426   2.077  16.341  0.4667 -0.0434 -0.2387
   17DOPE   H5X 2154   2.456   2.161  16.407 -1.2412  1.5313 -1.3507
   17DOPE   H5Y 2155   2.316   2.062  16.345  0.1817  1.0322 -2.4985
   17DOPE   C36 2156   2.456   2.121  16.196  0.1469 -0.0102 -0.4952
   17DOPE   H6X 2157   2.561   2.157  16.193  0.0238  0.3940  0.0223
   17DOPE   H6Y 2158   2.381   2.200  16.176 -0.5984 -0.8000 -0.9030
   17DOPE   C37 2159   2.438   2.005  16.100 -0.0453  1.3667  0.4910
   17DOPE   H7X 2160   2.515   1.931  16.131  0.0073  0.3779 -1.7811
   17DOPE   H7Y 2161   2.338   1.960  16.113  0.9705 -0.3660  3.1048
   17DOPE   C38 2162   2.459   2.038  15.951 -0.2019  0.2103  0.2875
   17DOPE   H8X 2163   2.476   1.939  15.903  0.7164  1.1057 -1.3182
   17DOPE   H8Y 2164   2.540   2.113  15.943 -0.5497  0.4415 -1.7709
   17DOPE   C39 2165   2.338   2.096  15.886  0.2664  0.9075 -0.2141
   17DOPE   H9X 2166   2.252   2.123  15.949 -0.2751 -0.9155 -0.1055
   17DOPE  C310 2167   2.325   2.098  15.751 -1.0833 -0.7891  0.2750
   17DOPE  H10X 2168   2.239   2.146  15.702 -0.6572  0.9307  1.1421
   17DOPE  C311 2169   2.432   2.054  15.650  0.7525 -0.1248 -0.2246
   17DOPE  H11X 2170   2.533   2.087  15.681  0.2383  2.3648 -0.9852
   17DOPE  H11Y 2171   2.426   1.946  15.622 -1.1452 -0.0838 -0.1042
   17DOPE  C312 2172   2.414   2.134  15.518  0.4635 -0.0025  0.1974
   17DOPE  H12X 2173   2.507   2.122  15.460  2.0564 -1.7679  2.8977
   17DOPE  H12Y 2174   2.409   2.244  15.528  2.3948  0.0724  0.6854
   17DOPE  C313 2175   2.285   2.087  15.444 -0.1511  0.2045 -0.2863
   17DOPE  H13X 2176   2.276   1.976  15.450 -0.8399  0.2023 -1.1037
   17DOPE  H13Y 2177   2.198   2.120  15.504  1.4824 -0.5112  2.6420
   17DOPE  C314 2178   2.288   2.135  15.303  0.4930 -0.0410  0.1149
   17DOPE  H14X 2179   2.359   2.066  15.253 -0.6160  1.2150 -3.4466
   17DOPE  H14Y 2180   2.332   2.237  15.308 -2.6168  1.3739  2.1206
   17DOPE  C315 2181   2.155   2.137  15.231 -0.2279  0.0715  0.3258
   17DOPE  H15X 2182   2.092   2.213  15.282  0.8690 -0.2774  2.2944
   17DOPE  H15Y 2183   2.105   2.038  15.244 -0.4809  0.1914  0.2695
   17DOPE  C316 2184   2.173   2.169  15.083  0.4327 -0.1189 -0.2851
   17DOPE  H16X 2185   2.267   2.117  15.055  1.8920  0.7396  2.6185
   17DOPE  H16Y 2186   2.178   2.279  15.070 -0.1479 -0.1179 -0.5346
   17DOPE  C317 2187   2.050   2.128  15.005  0.1486  0.3303 -0.1055
   17DOPE  H17X 2188   2.042   2.019  15.026  0.4427  0.4768  0.8256
   17DOPE  H17Y 2189   1.959   2.180  15.042 -0.6433 -1.6524  0.8921
   17DOPE  C318 2190   2.055   2.153  14.857  0.3587 -0.5755  0.1581
   17DOPE  H18X 2191   2.136   2.087  14.820 -0.6928 -0.6863 -2.1210
   17DOPE  H18Y 2192   1.961   2.129  14.802  0.6627  1.0235 -1.1452
   17DOPE  H18Z 2193   2.084   2.255  14.822  1.5811 -0.9309  0.0763
   18DOPE     N 2194   5.206   4.658  17.632 -0.3677 -0.5591  0.2291
   18DOPE   HN1 2195   5.208   4.637  17.530  3.0433 -0.5969  0.1879
   18DOPE   HN2 2196   5.175   4.756  17.646  2.2599  0.0844  2.5684
   18DOPE   HN3 2197   5.304   4.654  17.669  0.1531  1.3511 -0.7850
   18DOPE   C12 2198   5.111   4.574  17.706 -0.5963 -0.4490  0.1725
   18DOPE  H12A 2199   5.017   4.632  17.706 -0.0052  0.5217 -0.0588
   18DOPE  H12B 2200   5.146   4.561  17.811 -1.8500 -2.1241  0.4326
   18DOPE   C11 2201   5.100   4.440  17.631  1.1077 -0.2246  0.0282
   18DOPE  H11A 2202   5.043   4.377  17.702 -1.3103  2.1989  0.3778
   18DOPE  H11B 2203   5.205   4.407  17.616  1.0125  0.6977 -3.6251
   18DOPE     P 2204   5.036   4.359  17.391  0.2215 -0.0051 -0.3991
   18DOPE   O13 2205   4.966   4.420  17.270 -0.8301  0.2847  0.3703
   18DOPE   O14 2206   4.976   4.238  17.447 -0.1139 -0.0114 -0.1390
   18DOPE   O11 2207   5.192   4.333  17.362 -0.1281 -0.6835  0.6185
   18DOPE   O12 2208   5.042   4.470  17.505 -0.1903 -0.3178  0.5647
   18DOPE    C1 2209   5.227   4.214  17.292  0.1158 -0.2685 -0.3854
   18DOPE    HA 2210   5.145   4.138  17.288  0.9994 -1.3191  0.7914
   18DOPE    HB 2211   5.299   4.158  17.355 -0.0900  0.1930  0.2687
   18DOPE    C2 2212   5.292   4.250  17.157 -0.8475 -0.3439  0.4047
   18DOPE    HS 2213   5.385   4.300  17.189  0.2118 -0.9210 -1.5888
   18DOPE   O21 2214   5.208   4.337  17.079 -0.3916 -0.5102 -0.1382
   18DOPE   C21 2215   5.253   4.460  17.069 -0.2388  0.5987  0.2409
   18DOPE   O22 2216   5.345   4.512  17.130 -0.1042  0.2602  0.2130
   18DOPE   C22 2217   5.166   4.532  16.962 -0.4581  0.1820 -0.0664
   18DOPE   H2R 2218   5.058   4.519  16.984 -0.8266 -0.1869 -1.9273
   18DOPE   H2S 2219   5.183   4.489  16.861 -2.3019 -0.6427 -0.0659
   18DOPE    C3 2220   5.337   4.125  17.077  0.1860 -0.0816 -0.0784
   18DOPE    HX 2221   5.248   4.064  17.054  0.6289 -1.1762  1.0066
   18DOPE    HY 2222   5.393   4.060  17.148  0.4135 -1.8410 -1.8008
   18DOPE   O31 2223   5.426   4.145  16.966  0.8561 -0.6166  0.2127
   18DOPE   C31 2224   5.368   4.137  16.846  0.7260  0.7035  0.7768
   18DOPE   O32 2225   5.251   4.116  16.816  0.2952  1.0638  0.1785
   18DOPE   C32 2226   5.476   4.146  16.743  0.0200  0.4041 -0.2283
   18DOPE   H2X 2227   5.465   4.242  16.689  1.2106  0.7105  0.0447
   18DOPE   H2Y 2228   5.573   4.128  16.793  0.6507 -1.1728 -1.8910
   18DOPE   C23 2229   5.192   4.680  16.947  0.1183  0.0427  0.2191
   18DOPE   H3R 2230   5.301   4.697  16.937  0.4553 -1.6111  0.7740
   18DOPE   H3S 2231   5.161   4.731  17.041 -2.2779 -1.4547  0.3199
   18DOPE   C24 2232   5.117   4.757  16.830 -0.3844 -0.7546  0.7112
   18DOPE   H4R 2233   5.148   4.862  16.848 -0.0547 -1.0487  1.9788
   18DOPE   H4S 2234   5.007   4.749  16.848 -1.3302  0.8862 -3.3127
   18DOPE   C25 2235   5.170   4.717  16.691  0.3041  0.5218 -0.3233
   18DOPE   H5R 2236   5.151   4.613  16.657 -1.3599  1.2011 -1.6218
   18DOPE   H5S 2237   5.279   4.738  16.689  0.5029 -0.3676  0.5128
   18DOPE   C26 2238   5.120   4.808  16.580  0.4686 -0.2705 -0.2501
   18DOPE   H6R 2239   5.135   4.913  16.614 -1.8498  0.2660 -0.7088
   18DOPE   H6S 2240   5.012   4.796  16.561  0.5290 -1.2854 -0.0331
   18DOPE   C27 2241   5.182   4.779  16.439  0.2613 -0.7192 -0.1393
   18DOPE   H7R 2242   5.144   4.688  16.389 -1.8083  0.4695 -0.8483
   18DOPE   H7S 2243   5.291   4.759  16.448  0.3098 -1.1568 -1.4163
   18DOPE   C28 2244   5.169   4.898  16.341  0.2986 -0.3430  0.5214
   18DOPE   H8R 2245   5.226   4.874  16.248  0.3900  1.8580 -0.0607
   18DOPE   H8S 2246   5.218   4.984  16.391  1.8001 -2.3121  2.6227
   18DOPE   C29 2247   5.030   4.941  16.300  0.6387 -0.0417  0.1174
   18DOPE   H9R 2248   4.950   4.898  16.362  2.4670 -1.6689  1.4600
   18DOPE  C210 2249   4.998   4.998  16.180  0.6852  0.2337  0.3949
   18DOPE  H10R 2250   4.895   5.023  16.150  0.1220 -0.1909  1.8834
   18DOPE  C211 2251   5.109   5.041  16.086  0.3610  0.0437 -0.4920
   18DOPE  H11R 2252   5.202   5.046  16.146 -0.0156  1.5399  0.0237
   18DOPE  H11S 2253   5.088   5.146  16.057 -1.5071 -0.0193  0.4350
   18DOPE  C212 2254   5.102   4.954  15.962 -0.3265 -0.3775 -0.9824
   18DOPE  H12R 2255   5.000   4.950  15.918 -1.6819  2.5974  1.4930
   18DOPE  H12S 2256   5.128   4.851  15.994  0.4197  0.3729  0.9657
   18DOPE  C213 2257   5.218   5.006  15.864 -0.1792  0.5778 -0.2184
   18DOPE  H13R 2258   5.314   5.007  15.921 -0.7003  1.2751  0.6758
   18DOPE  H13S 2259   5.202   5.107  15.822 -1.7225 -0.2244 -1.6844
   18DOPE  C214 2260   5.231   4.919  15.736 -0.3488 -0.1679 -0.5393
   18DOPE  H14R 2261   5.255   4.819  15.779 -0.1614  0.5019  0.9601
   18DOPE  H14S 2262   5.313   4.965  15.676 -0.5048  0.4370 -0.2925
   18DOPE  C215 2263   5.114   4.916  15.636  0.8389 -0.2295  0.0479
   18DOPE  H15R 2264   5.022   4.879  15.686 -0.0621  2.2888  0.4366
   18DOPE  H15S 2265   5.143   4.850  15.551 -0.9428 -0.9405 -0.0432
   18DOPE  C216 2266   5.093   5.046  15.578 -0.3225 -0.5375  0.5447
   18DOPE  H16R 2267   5.189   5.092  15.547  0.0600 -1.2899  0.5993
   18DOPE  H16S 2268   5.058   5.116  15.656 -2.2512  0.7400 -1.3431
   18DOPE  C217 2269   4.979   5.042  15.472  0.3907  0.2499 -0.0278
   18DOPE  H17R 2270   4.948   5.148  15.468  1.4337  0.6501  1.6285
   18DOPE  H17S 2271   4.891   4.988  15.511  0.5813 -0.3373 -0.3933
   18DOPE  C218 2272   5.014   4.996  15.329  0.8683  0.9059  0.4255
   18DOPE  H18R 2273   5.110   5.036  15.290  0.9817  0.1031 -0.1332
   18DOPE  H18S 2274   4.935   5.034  15.261  0.4547  1.0824  0.9925
   18DOPE  H18T 2275   5.030   4.887  15.318 -0.1249  0.9366 -1.6992
   18DOPE   C33 2276   5.448   4.038  16.637 -0.2268  0.0284 -0.5022
   18DOPE   H3X 2277   5.351   4.058  16.587 -0.9505 -1.8464  0.0800
   18DOPE   H3Y 2278   5.446   3.937  16.684 -1.3044  0.9418  1.4850
   18DOPE   C34 2279   5.553   4.033  16.527  0.6129 -0.3690  0.7747
   18DOPE   H4X 2280   5.651   4.036  16.579  2.2728 -0.6878 -2.1310
   18DOPE   H4Y 2281   5.542   3.932  16.482 -0.8643 -0.9394  2.2970
   18DOPE   C35 2282   5.546   4.139  16.414  0.4190 -0.2606 -0.4197
   18DOPE   H5X 2283   5.561   4.242  16.453 -1.1788 -0.4356  0.7455
   18DOPE   H5Y 2284   5.445   4.124  16.369 -0.4192 -1.1487  1.6295
   18DOPE   C36 2285   5.653   4.102  16.306  0.4759 -0.0764  0.2057
   18DOPE   H6X 2286   5.631   3.999  16.270  2.0620 -0.3760  0.0166
   18DOPE   H6Y 2287   5.748   4.099  16.362 -0.4905 -1.1113  1.8550
   18DOPE   C37 2288   5.663   4.207  16.197 -0.2673  0.3553 -0.3631
   18DOPE   H7X 2289   5.675   4.310  16.239  0.2996  0.1327  0.0303
   18DOPE   H7Y 2290   5.755   4.185  16.139 -0.1736 -0.0899 -0.0479
   18DOPE   C38 2291   5.546   4.197  16.089  0.1280 -0.0033  0.2707
   18DOPE   H8X 2292   5.547   4.288  16.026  4.3275  0.6283  0.9617
   18DOPE   H8Y 2293   5.455   4.199  16.153 -0.2045 -1.7055 -0.0980
   18DOPE   C39 2294   5.548   4.070  16.009  0.4222 -0.2272 -0.0930
   18DOPE   H9X 2295   5.547   3.973  16.061  1.0775  0.6149  1.5930
   18DOPE  C310 2296   5.569   4.070  15.880  0.3400 -0.0956  0.6189
   18DOPE  H10X 2297   5.555   3.973  15.829 -1.3298  0.0526  0.7298
   18DOPE  C311 2298   5.573   4.190  15.789 -0.5516 -0.5787  0.2957
   18DOPE  H11X 2299   5.475   4.242  15.786 -0.5053 -0.5115 -2.1647
   18DOPE  H11Y 2300   5.637   4.271  15.831 -0.3910 -0.7170  0.3186
   18DOPE  C312 2301   5.615   4.168  15.642  0.2044 -0.4500  0.5759
   18DOPE  H12X 2302   5.522   4.133  15.593 -0.0444 -1.3072  1.6187
   18DOPE  H12Y 2303   5.700   4.098  15.627 -1.4056 -2.2015 -0.7992
   18DOPE  C313 2304   5.675   4.299  15.587 -0.0627  0.1360  0.6071
   18DOPE  H13X 2305   5.607   4.385  15.573 -0.1893 -0.3984 -2.8799
   18DOPE  H13Y 2306   5.755   4.330  15.658 -0.4931 -0.6486  1.4621
   18DOPE  C314 2307   5.751   4.288  15.444 -0.6569 -0.5978 -0.4545
   18DOPE  H14X 2308   5.850   4.238  15.459  0.0622  0.7893 -0.3906
   18DOPE  H14Y 2309   5.777   4.395  15.425 -0.1192 -0.8235 -1.0541
   18DOPE  C315 2310   5.684   4.238  15.316  0.1286 -0.1490 -1.0410
   18DOPE  H15X 2311   5.579   4.273  15.324  0.1941 -0.3407  3.2595
   18DOPE  H15Y 2312   5.691   4.128  15.318 -0.3660 -0.2536 -2.9606
   18DOPE  C316 2313   5.751   4.283  15.184 -0.2169 -0.4046 -0.0616
   18DOPE  H16X 2314   5.758   4.391  15.210  1.5640 -0.4753 -0.1193
   18DOPE  H16Y 2315   5.688   4.261  15.095  0.5357 -0.4385 -0.5933
   18DOPE  C317 2316   5.885   4.211  15.182 -0.1109 -0.1778  1.1640
   18DOPE  H17X 2317   5.954   4.247  15.261  1.5190 -2.7889  1.0794
   18DOPE  H17Y 2318   5.880   4.100  15.194 -0.7745 -0.2309  0.4796
   18DOPE  C318 2319   5.956   4.215  15.042 -0.2598 -0.3326  0.4097
   18DOPE  H18X 2320   6.006   4.313  15.028 -1.8102  0.7409  1.9121
   18DOPE  H18Y 2321   6.035   4.138  15.025 -0.2578  0.0468 -1.5606
   18DOPE  H18Z 2322   5.876   4.217  14.964 -0.1660  2.0082  0.3142
   19DOPE     N 2323   5.095   5.439  17.742 -0.3333  0.1790 -0.3848
   19DOPE   HN1 2324   5.134   5.467  17.834 -1.8077  0.3717  0.2163
   19DOPE   HN2 2325   5.050   5.519  17.694 -0.9457  1.2121  1.7930
   19DOPE   HN3 2326   5.012   5.380  17.766 -0.0835 -0.1347 -0.2796
   19DOPE   C12 2327   5.204   5.377  17.653  0.7020  0.1904  0.6726
   19DOPE  H12A 2328   5.288   5.447  17.634  0.9323 -0.0970  0.6155
   19DOPE  H12B 2329   5.161   5.342  17.557 -0.2467  0.4777  0.9820
   19DOPE   C11 2330   5.262   5.252  17.726  0.4525 -0.5718 -0.3741
   19DOPE  H11A 2331   5.321   5.291  17.811  0.1519  0.5432 -0.6703
   19DOPE  H11B 2332   5.329   5.191  17.662  0.3341  1.1897 -2.2602
   19DOPE     P 2333   5.106   5.043  17.682  0.1348 -0.0341  0.2573
   19DOPE   O13 2334   4.962   5.023  17.714  0.1086 -0.8593  1.2301
   19DOPE   O14 2335   5.187   4.920  17.694  0.2573  0.2895  0.2539
   19DOPE   O11 2336   5.116   5.090  17.524  0.0281 -0.1100 -0.0731
   19DOPE   O12 2337   5.162   5.162  17.775  0.0491 -0.7767  0.1079
   19DOPE    C1 2338   5.226   5.038  17.450 -0.0703 -1.2746  0.0676
   19DOPE    HA 2339   5.241   4.929  17.458 -0.7482 -1.5337 -1.7811
   19DOPE    HB 2340   5.320   5.085  17.489 -1.3149  1.7889 -0.3308
   19DOPE    C2 2341   5.225   5.094  17.300  0.9313  1.2620 -0.2412
   19DOPE    HS 2342   5.232   5.204  17.313  1.2702  1.2069  0.0755
   19DOPE   O21 2343   5.103   5.051  17.237  0.4196 -0.2863 -0.9057
   19DOPE   C21 2344   5.024   5.142  17.179 -0.2109  0.4675 -0.4824
   19DOPE   O22 2345   5.036   5.261  17.192  0.0702  0.5064  0.0441
   19DOPE   C22 2346   4.914   5.075  17.094 -0.0517  0.2183 -0.1583
   19DOPE   H2R 2347   4.821   5.129  17.122 -0.2329 -1.1706  2.2505
   19DOPE   H2S 2348   4.905   4.974  17.139  2.9589 -0.7703 -1.5811
   19DOPE    C3 2349   5.349   5.043  17.228 -0.3995 -0.2372 -0.0294
   19DOPE    HX 2350   5.324   4.936  17.212 -1.4157 -0.4777  2.6166
   19DOPE    HY 2351   5.428   5.052  17.305 -1.8937  1.4180  1.4181
   19DOPE   O31 2352   5.379   5.107  17.103  0.1120 -0.5591  0.0804
   19DOPE   C31 2353   5.421   5.029  17.001 -0.0139  0.4011  0.4664
   19DOPE   O32 2354   5.424   4.905  17.000  0.3635  0.7362  0.7677
   19DOPE   C32 2355   5.464   5.112  16.878  0.0049 -0.1351 -0.6154
   19DOPE   H2X 2356   5.411   5.209  16.873 -0.5308 -0.2834  1.4618
   19DOPE   H2Y 2357   5.574   5.127  16.887  0.1205 -0.8459 -0.7527
   19DOPE   C23 2358   4.954   5.076  16.943 -0.4302  0.2379 -0.2336
   19DOPE   H3R 2359   4.959   4.968  16.920 -1.0397 -0.1849  1.4595
   19DOPE   H3S 2360   5.048   5.135  16.929 -0.1059  0.3657  2.0447
   19DOPE   C24 2361   4.841   5.127  16.852 -0.1257 -0.7824 -0.6688
   19DOPE   H4R 2362   4.817   5.231  16.883 -2.5147 -1.8448  1.3958
   19DOPE   H4S 2363   4.746   5.075  16.876  0.1339 -0.2775  1.7820
   19DOPE   C25 2364   4.865   5.124  16.700 -0.5609  0.0999 -0.3302
   19DOPE   H5R 2365   4.905   5.029  16.660 -1.9223  0.4331 -2.6694
   19DOPE   H5S 2366   4.946   5.200  16.692 -1.9422  1.4108 -3.1886
   19DOPE   C26 2367   4.742   5.150  16.622  0.3754 -0.1624 -0.2375
   19DOPE   H6R 2368   4.683   5.230  16.672  1.2480  0.9575 -0.9472
   19DOPE   H6S 2369   4.673   5.064  16.630 -1.0531  1.0053  0.5803
   19DOPE   C27 2370   4.767   5.179  16.469  0.4407 -0.0984  0.0288
   19DOPE   H7R 2371   4.823   5.090  16.433  0.2993 -0.3497  0.4156
   19DOPE   H7S 2372   4.838   5.264  16.462  0.6935 -0.0199  2.4966
   19DOPE   C28 2373   4.650   5.230  16.381  0.2373  0.4574 -0.3575
   19DOPE   H8R 2374   4.679   5.306  16.305  1.9159  2.3040  1.9991
   19DOPE   H8S 2375   4.573   5.280  16.444  0.0768  1.6088 -1.4301
   19DOPE   C29 2376   4.588   5.106  16.316  0.4959 -0.2310 -0.0976
   19DOPE   H9R 2377   4.557   5.024  16.382  2.1995 -1.3877 -0.6569
   19DOPE  C210 2378   4.559   5.090  16.186  0.9391 -0.1524  0.4633
   19DOPE  H10R 2379   4.505   5.000  16.154 -0.5919  1.8070 -3.0945
   19DOPE  C211 2380   4.573   5.179  16.070 -0.0225 -0.5718  0.3760
   19DOPE  H11R 2381   4.531   5.279  16.095 -0.9030 -0.2666 -2.0937
   19DOPE  H11S 2382   4.511   5.133  15.991  0.3550  0.3397 -0.4766
   19DOPE  C212 2383   4.710   5.185  16.002 -0.0207 -0.0463 -0.3224
   19DOPE  H12R 2384   4.754   5.083  16.000  1.7906  0.5901  2.3691
   19DOPE  H12S 2385   4.783   5.243  16.062 -1.0697  1.5378 -0.5481
   19DOPE  C213 2386   4.715   5.251  15.863  1.0126  0.8315 -0.3400
   19DOPE  H13R 2387   4.807   5.314  15.858  1.0414  0.8930  0.8694
   19DOPE  H13S 2388   4.628   5.318  15.845 -1.1865 -1.7258  0.1820
   19DOPE  C214 2389   4.739   5.151  15.752  0.2121  0.0231  0.3792
   19DOPE  H14R 2390   4.672   5.066  15.776 -2.3909  1.0610 -2.6080
   19DOPE  H14S 2391   4.842   5.108  15.755  0.2178 -0.0029 -0.1524
   19DOPE  C215 2392   4.720   5.199  15.612  0.2880 -0.1017 -0.1415
   19DOPE  H15R 2393   4.726   5.104  15.553  2.7761  0.1107 -0.3114
   19DOPE  H15S 2394   4.808   5.259  15.582 -0.3420  0.5857 -0.6368
   19DOPE  C216 2395   4.579   5.260  15.579  0.8810 -0.4721  0.0110
   19DOPE  H16R 2396   4.571   5.357  15.632  1.0359  0.1448 -1.0520
   19DOPE  H16S 2397   4.498   5.188  15.603  0.9150 -0.6439 -0.3837
   19DOPE  C217 2398   4.557   5.313  15.432  0.4840  0.3389 -0.5752
   19DOPE  H17R 2399   4.644   5.381  15.432  1.3575 -0.7454 -1.2142
   19DOPE  H17S 2400   4.460   5.367  15.425 -0.5075 -1.0632  1.2349
   19DOPE  C218 2401   4.577   5.198  15.323 -0.0125  0.6563  0.0480
   19DOPE  H18R 2402   4.525   5.104  15.348  2.5943 -1.2730 -1.3073
   19DOPE  H18S 2403   4.682   5.161  15.329 -0.7114 -1.5442 -0.5735
   19DOPE  H18T 2404   4.546   5.230  15.222  1.5548  2.8154  0.1628
   19DOPE   C33 2405   5.458   5.033  16.745 -0.1669  0.4703 -0.3868
   19DOPE   H3X 2406   5.352   5.029  16.712 -0.0906 -2.4330 -0.5174
   19DOPE   H3Y 2407   5.496   4.929  16.737  0.5611  0.7007 -0.0376
   19DOPE   C34 2408   5.533   5.111  16.629 -0.3135  1.2036  0.7445
   19DOPE   H4X 2409   5.495   5.214  16.612 -0.7818  1.0278  0.6989
   19DOPE   H4Y 2410   5.639   5.109  16.663 -0.3099 -1.3419  0.7831
   19DOPE   C35 2411   5.520   5.037  16.491 -0.2865 -0.6080 -0.9531
   19DOPE   H5X 2412   5.412   5.047  16.464 -1.1385  1.0319  2.5450
   19DOPE   H5Y 2413   5.542   4.928  16.496 -1.8720 -0.9330 -0.5338
   19DOPE   C36 2414   5.599   5.107  16.382  0.2132  0.0040 -0.4227
   19DOPE   H6X 2415   5.707   5.099  16.406  0.3661 -0.0485 -1.0962
   19DOPE   H6Y 2416   5.572   5.215  16.380 -1.1974 -0.3367 -0.6715
   19DOPE   C37 2417   5.576   5.050  16.244  0.3893 -0.3123  0.6674
   19DOPE   H7X 2418   5.640   4.959  16.253 -0.8210 -1.3027 -0.3194
   19DOPE   H7Y 2419   5.467   5.033  16.231  0.3378  0.5825 -0.1263
   19DOPE   C38 2420   5.632   5.139  16.127 -0.2133  0.3342 -0.1786
   19DOPE   H8X 2421   5.627   5.071  16.039 -0.8269 -1.0946  0.9075
   19DOPE   H8Y 2422   5.735   5.177  16.143  0.4422 -0.7354 -1.6584
   19DOPE   C39 2423   5.551   5.267  16.109 -0.1329 -0.6824  0.2790
   19DOPE   H9X 2424   5.492   5.304  16.194 -0.6654  1.0001 -0.7810
   19DOPE  C310 2425   5.545   5.344  16.003  0.4125  0.3178  0.3017
   19DOPE  H10X 2426   5.494   5.442  16.005  1.1271  0.7430 -0.8948
   19DOPE  C311 2427   5.599   5.306  15.869 -0.4906 -0.6748  1.0960
   19DOPE  H11X 2428   5.685   5.371  15.842  2.2280 -3.3710  2.5940
   19DOPE  H11Y 2429   5.638   5.202  15.869 -1.9282 -1.2784 -0.9175
   19DOPE  C312 2430   5.481   5.298  15.769 -0.0298 -0.5587  0.1205
   19DOPE  H12X 2431   5.460   5.395  15.718 -1.1061 -1.1081 -0.5183
   19DOPE  H12Y 2432   5.382   5.266  15.810 -0.7952  0.2031 -1.0564
   19DOPE  C313 2433   5.526   5.204  15.656  0.2774 -0.1233 -0.4835
   19DOPE  H13X 2434   5.634   5.221  15.636 -0.1236  1.9817 -1.0448
   19DOPE  H13Y 2435   5.513   5.102  15.698  2.3242 -0.3684 -0.3332
   19DOPE  C314 2436   5.463   5.234  15.524  0.2999  0.6224 -0.1170
   19DOPE  H14X 2437   5.497   5.337  15.499  1.3834  0.4642  0.6706
   19DOPE  H14Y 2438   5.352   5.235  15.532 -0.0271 -0.5349 -3.0339
   19DOPE  C315 2439   5.517   5.141  15.416  0.4082 -0.4866  0.7269
   19DOPE  H15X 2440   5.509   5.040  15.461 -0.1760 -2.6933 -3.7576
   19DOPE  H15Y 2441   5.624   5.171  15.410 -0.4197  3.0949  1.4635
   19DOPE  C316 2442   5.438   5.148  15.285 -0.2737 -0.4902  0.2463
   19DOPE  H16X 2443   5.468   5.241  15.231 -3.1412  2.2039  2.8718
   19DOPE  H16Y 2444   5.331   5.155  15.315 -0.3204 -1.8744  0.4306
   19DOPE  C317 2445   5.464   5.032  15.191 -0.3207 -0.0772  0.3815
   19DOPE  H17X 2446   5.575   5.026  15.187 -0.4359 -3.3297 -1.5129
   19DOPE  H17Y 2447   5.423   4.945  15.246  0.3066  0.1750  1.2716
   19DOPE  C318 2448   5.409   5.055  15.054 -0.8168  0.1220  0.4502
   19DOPE  H18X 2449   5.421   4.969  14.985 -0.4248  0.4140  0.1484
   19DOPE  H18Y 2450   5.301   5.082  15.056 -0.5854  1.1423  0.0475
   19DOPE  H18Z 2451   5.461   5.143  15.009 -0.2573 -0.4197  0.0244
   20DOPE     N 2452   6.079   0.356  17.648  0.5139 -0.0613 -0.7536
   20DOPE   HN1 2453   6.045   0.452  17.628  0.8837 -0.2580 -2.4284
   20DOPE   HN2 2454   6.178   0.365  17.676  0.4876  1.2561 -1.0307
   20DOPE   HN3 2455   6.081   0.292  17.566 -3.7625  0.9387 -1.9248
   20DOPE   C12 2456   6.002   0.289  17.762 -0.1941  0.4460 -0.4774
   20DOPE  H12A 2457   6.055   0.328  17.852  1.3970 -1.7551 -0.3935
   20DOPE  H12B 2458   6.017   0.180  17.749 -0.5752  0.6271 -2.9052
   20DOPE   C11 2459   5.850   0.328  17.750 -0.0980 -0.2148 -0.1364
   20DOPE  H11A 2460   5.828   0.436  17.744 -0.8246 -0.1892  2.2573
   20DOPE  H11B 2461   5.802   0.294  17.844 -0.7071  2.7088  0.6946
   20DOPE     P 2462   5.651   0.313  17.578 -0.1847  0.1293 -0.3488
   20DOPE   O13 2463   5.648   0.459  17.599 -0.1663 -0.3694 -0.4524
   20DOPE   O14 2464   5.540   0.235  17.634  0.0243 -0.5690 -0.6449
   20DOPE   O11 2465   5.662   0.285  17.424 -1.3384 -0.8731  0.0282
   20DOPE   O12 2466   5.786   0.256  17.643  0.0109  0.2333  0.4644
   20DOPE    C1 2467   5.792   0.296  17.365 -0.1007 -0.0312 -0.5400
   20DOPE    HA 2468   5.847   0.199  17.370  0.6324  0.3411 -1.1845
   20DOPE    HB 2469   5.856   0.375  17.410 -1.2144  1.3115 -1.2421
   20DOPE    C2 2470   5.774   0.330  17.213 -0.3406 -0.5801  0.2878
   20DOPE    HS 2471   5.726   0.430  17.202 -0.1388 -0.4467  0.5895
   20DOPE   O21 2472   5.692   0.222  17.167 -0.0310  0.6551  0.4270
   20DOPE   C21 2473   5.613   0.242  17.055 -0.2426 -0.1202 -0.7623
   20DOPE   O22 2474   5.609   0.355  17.002 -0.1419  0.2828 -0.4705
   20DOPE   C22 2475   5.571   0.103  17.000  0.3436  0.4974 -0.9645
   20DOPE   H2R 2476   5.485   0.067  17.061  0.5066  1.9253  0.1435
   20DOPE   H2S 2477   5.657   0.032  17.001  0.4590  0.6393 -0.8347
   20DOPE    C3 2478   5.916   0.340  17.151  1.1071  0.0833 -0.3122
   20DOPE    HX 2479   5.956   0.236  17.159  1.1470  0.1490  0.3259
   20DOPE    HY 2480   5.983   0.409  17.207  0.7623  0.0787  0.1077
   20DOPE   O31 2481   5.897   0.375  17.009  0.4773 -0.7311  0.2688
   20DOPE   C31 2482   5.898   0.503  16.982  0.0230 -1.0292 -0.1849
   20DOPE   O32 2483   5.905   0.598  17.067  0.3848  0.6928 -0.4387
   20DOPE   C32 2484   5.894   0.527  16.832 -0.0058 -0.2888 -0.2678
   20DOPE   H2X 2485   5.981   0.473  16.789  1.1516  0.9523  0.4504
   20DOPE   H2Y 2486   5.796   0.491  16.793 -1.6576  1.2092  2.2520
   20DOPE   C23 2487   5.520   0.104  16.850 -0.2414  0.4263 -0.2879
   20DOPE   H3R 2488   5.520  -0.000  16.809 -2.1714  0.4761 -0.4794
   20DOPE   H3S 2489   5.581   0.165  16.780 -1.9079 -0.7800 -2.9483
   20DOPE   C24 2490   5.375   0.148  16.830 -0.0340 -0.2370  0.7349
   20DOPE   H4R 2491   5.355   0.242  16.886  0.3175 -0.5249  1.3450
   20DOPE   H4S 2492   5.302   0.069  16.857  0.9029 -0.5806  2.3825
   20DOPE   C25 2493   5.339   0.200  16.689 -0.2863 -0.5966 -0.1344
   20DOPE   H5R 2494   5.399   0.292  16.676  0.1180 -0.6815  1.0804
   20DOPE   H5S 2495   5.232   0.229  16.686 -0.0237  0.4925  0.5813
   20DOPE   C26 2496   5.378   0.111  16.573 -0.3996 -0.0491 -0.1850
   20DOPE   H6R 2497   5.333   0.010  16.585  0.5111 -0.7050 -1.9328
   20DOPE   H6S 2498   5.487   0.093  16.573 -0.2831  0.6074 -0.9030
   20DOPE   C27 2499   5.327   0.162  16.439 -0.6632 -0.1604  0.1363
   20DOPE   H7R 2500   5.374   0.250  16.392 -1.2492  0.0363 -0.0910
   20DOPE   H7S 2501   5.223   0.197  16.460 -0.3328 -0.1953  2.0027
   20DOPE   C28 2502   5.313   0.068  16.318  0.4776  0.0346  0.3143
   20DOPE   H8R 2503   5.234   0.105  16.248 -0.6583 -0.7019  1.1764
   20DOPE   H8S 2504   5.264  -0.026  16.351  0.5072 -0.1964 -0.2759
   20DOPE   C29 2505   5.441   0.045  16.239  0.2768  0.3374 -1.0661
   20DOPE   H9R 2506   5.528   0.024  16.303  0.5381 -0.4030 -1.6413
   20DOPE  C210 2507   5.476   0.053  16.113 -0.4553 -0.7305  0.1431
   20DOPE  H10R 2508   5.581   0.042  16.082 -0.3126 -0.6738  0.6003
   20DOPE  C211 2509   5.381   0.097  16.004 -0.8561 -0.5412  0.1143
   20DOPE  H11R 2510   5.272   0.093  16.025 -1.3170  4.1653 -0.3137
   20DOPE  H11S 2511   5.396   0.032  15.916 -0.0782  0.6164 -0.6371
   20DOPE  C212 2512   5.402   0.251  15.970  0.2349  0.3636  0.0534
   20DOPE  H12R 2513   5.509   0.275  15.950  0.3589  1.3736  1.6830
   20DOPE  H12S 2514   5.373   0.314  16.057  1.2886  0.2816  0.4747
   20DOPE  C213 2515   5.321   0.299  15.844  0.2384 -0.4263  0.6194
   20DOPE  H13R 2516   5.302   0.408  15.836  0.4634 -0.4523 -0.3569
   20DOPE  H13S 2517   5.217   0.263  15.862 -0.5411  1.1140 -0.5856
   20DOPE  C214 2518   5.365   0.236  15.714  0.2063 -0.4077  0.2425
   20DOPE  H14R 2519   5.394   0.131  15.730  0.5869 -0.0287  2.3117
   20DOPE  H14S 2520   5.462   0.279  15.682 -0.8031  2.6929  0.9490
   20DOPE  C215 2521   5.256   0.258  15.606  0.1724  0.0568  0.0614
   20DOPE  H15R 2522   5.222   0.364  15.606 -2.8912 -0.8244 -0.3150
   20DOPE  H15S 2523   5.171   0.194  15.639  0.5219 -0.2642  0.3455
   20DOPE  C216 2524   5.314   0.228  15.467 -0.0450  0.2670  0.4225
   20DOPE  H16R 2525   5.232   0.237  15.392  1.5031  0.0832 -1.3513
   20DOPE  H16S 2526   5.350   0.123  15.461 -0.5130  0.1295 -0.1506
   20DOPE  C217 2527   5.434   0.301  15.419 -0.3668  0.8513  0.2870
   20DOPE  H17R 2528   5.517   0.280  15.490  1.0965 -1.0411 -1.8207
   20DOPE  H17S 2529   5.406   0.408  15.415 -2.8373  0.2856  0.6639
   20DOPE  C218 2530   5.477   0.255  15.279 -0.2165 -0.1319  0.4157
   20DOPE  H18R 2531   5.495   0.146  15.291 -0.8265 -0.1533  1.1744
   20DOPE  H18S 2532   5.572   0.309  15.260 -0.7677  1.0628  0.9500
   20DOPE  H18T 2533   5.399   0.267  15.200  0.2323  0.1795  0.0128
   20DOPE   C33 2534   5.927   0.671  16.798  0.0907  0.0252  0.7173
   20DOPE   H3X 2535   6.034   0.678  16.828  0.0372  0.0157  0.9139
   20DOPE   H3Y 2536   5.857   0.746  16.840  0.6004  0.1820  1.2931
   20DOPE   C34 2537   5.908   0.692  16.644 -0.5499  0.2245  0.5175
   20DOPE   H4X 2538   5.965   0.616  16.587 -2.7734 -0.1117 -1.4129
   20DOPE   H4Y 2539   5.801   0.673  16.618 -0.7622  3.3464 -1.4767
   20DOPE   C35 2540   5.956   0.836  16.601  0.4459 -0.2841 -0.7990
   20DOPE   H5X 2541   6.066   0.849  16.601  0.4602 -0.3746  0.1382
   20DOPE   H5Y 2542   5.915   0.903  16.678  1.4811  0.2678 -0.7096
   20DOPE   C36 2543   5.904   0.884  16.468  0.2148 -0.3627 -0.7324
   20DOPE   H6X 2544   5.937   0.984  16.431 -3.4028  1.2014 -0.1273
   20DOPE   H6Y 2545   5.795   0.903  16.464  0.4888  1.2902 -1.2439
   20DOPE   C37 2546   5.939   0.784  16.356 -0.3423  0.1261 -0.2489
   20DOPE   H7X 2547   6.050   0.776  16.357 -0.4591 -2.9422  1.6062
   20DOPE   H7Y 2548   5.910   0.679  16.381  0.6682 -0.0227  0.3525
   20DOPE   C38 2549   5.893   0.815  16.209 -0.3139 -0.3817 -0.2212
   20DOPE   H8X 2550   5.787   0.847  16.207 -0.1111  0.3179 -0.2209
   20DOPE   H8Y 2551   5.905   0.723  16.148  2.5587  0.0240 -0.4014
   20DOPE   C39 2552   5.982   0.926  16.161  0.1477 -0.0456  0.7674
   20DOPE   H9X 2553   5.971   1.017  16.222  1.2417 -0.4920  1.6843
   20DOPE  C310 2554   6.065   0.922  16.055  0.4624  0.1755  0.7925
   20DOPE  H10X 2555   6.133   1.004  16.028  0.8869 -0.3583  0.2013
   20DOPE  C311 2556   6.096   0.799  15.970  0.4346 -0.2640 -0.8775
   20DOPE  H11X 2557   6.194   0.773  16.017 -1.4788 -1.7473  2.7446
   20DOPE  H11Y 2558   6.020   0.719  15.980  0.9984 -0.5532  2.2413
   20DOPE  C312 2559   6.114   0.826  15.823  0.0749  0.1249 -0.2216
   20DOPE  H12X 2560   6.153   0.736  15.771  0.2636  0.6446 -1.0115
   20DOPE  H12Y 2561   6.187   0.909  15.808  0.7382 -0.0608  1.6895
   20DOPE  C313 2562   5.978   0.858  15.770  1.0807 -1.1968 -0.3011
   20DOPE  H13X 2563   5.914   0.784  15.823  0.4844 -0.9246 -0.6295
   20DOPE  H13Y 2564   5.941   0.958  15.801  0.8971 -0.9034 -1.4096
   20DOPE  C314 2565   5.958   0.845  15.618  0.1653  0.1383  0.4340
   20DOPE  H14X 2566   5.968   0.737  15.593  0.5510  0.3616 -0.4261
   20DOPE  H14Y 2567   6.045   0.888  15.565 -0.2107 -1.9547 -2.1590
   20DOPE  C315 2568   5.821   0.891  15.562  0.5816  0.0252 -0.2686
   20DOPE  H15X 2569   5.795   0.978  15.626 -0.2245 -0.3739 -0.0440
   20DOPE  H15Y 2570   5.746   0.813  15.589  0.1310  0.1435 -1.1220
   20DOPE  C316 2571   5.814   0.926  15.411 -0.0099  0.7181  0.2254
   20DOPE  H16X 2572   5.872   0.850  15.355  3.0151  2.8546  0.2238
   20DOPE  H16Y 2573   5.882   1.013  15.401  0.4441  0.2140 -1.4195
   20DOPE  C317 2574   5.675   0.954  15.346  1.0289 -0.1405 -0.0129
   20DOPE  H17X 2575   5.689   0.956  15.236  3.7411 -0.9360  0.2515
   20DOPE  H17Y 2576   5.600   0.875  15.369 -1.2545  0.9000 -3.1479
   20DOPE  C318 2577   5.621   1.090  15.402 -0.3519 -0.2294  0.0915
   20DOPE  H18X 2578   5.543   1.138  15.339  0.9133 -0.9859 -2.1395
   20DOPE  H18Y 2579   5.583   1.077  15.506  0.3467  1.8587  0.6550
   20DOPE  H18Z 2580   5.707   1.159  15.404  0.4825 -1.2440  2.4437
   21DOPE     N 2581   2.349   0.757  17.558  0.1170 -0.5335 -0.2968
   21DOPE   HN1 2582   2.433   0.816  17.577 -0.7044  0.4157  0.5811
   21DOPE   HN2 2583   2.267   0.820  17.541  0.2908  0.0786  0.9796
   21DOPE   HN3 2584   2.329   0.687  17.633 -3.5303 -0.6414 -1.1664
   21DOPE   C12 2585   2.365   0.694  17.431 -0.1362 -0.8778  0.1418
   21DOPE  H12A 2586   2.442   0.615  17.441 -0.2519 -1.2924 -1.8140
   21DOPE  H12B 2587   2.389   0.778  17.362 -2.7993  0.7611  1.0855
   21DOPE   C11 2588   2.230   0.627  17.385 -0.2894  0.3121  0.7595
   21DOPE  H11A 2589   2.233   0.528  17.436 -0.4441  0.6156  1.3527
   21DOPE  H11B 2590   2.231   0.599  17.277 -1.0918  1.5690  0.4017
   21DOPE     P 2591   2.054   0.817  17.329 -0.3319 -0.0431  0.1890
   21DOPE   O13 2592   2.118   0.937  17.378 -0.1410 -0.2337  0.1402
   21DOPE   O14 2593   1.904   0.813  17.339 -0.1559 -0.0489  0.8716
   21DOPE   O11 2594   2.096   0.796  17.177  0.0352 -0.2989 -0.5615
   21DOPE   O12 2595   2.117   0.700  17.420  0.1339  0.0166 -0.1220
   21DOPE    C1 2596   2.178   0.893  17.114  0.2226  1.1366  0.1325
   21DOPE    HA 2597   2.220   0.854  17.019 -1.1395  2.0161 -0.8838
   21DOPE    HB 2598   2.261   0.931  17.176  1.1001  1.5288 -1.2504
   21DOPE    C2 2599   2.086   1.012  17.059 -0.4016  0.2121 -0.0980
   21DOPE    HS 2600   2.047   1.065  17.148  0.4515  0.1285  0.3318
   21DOPE   O21 2601   1.968   0.964  16.984  0.4120  0.4091 -0.7835
   21DOPE   C21 2602   1.874   1.059  16.967  0.1256  0.1224  0.6191
   21DOPE   O22 2603   1.878   1.171  17.013  0.5911  0.2770  0.1188
   21DOPE   C22 2604   1.757   1.013  16.873 -0.8207  0.8343 -0.0476
   21DOPE   H2R 2605   1.665   1.017  16.934  0.2691  0.8660  1.6459
   21DOPE   H2S 2606   1.775   0.905  16.853 -2.6563  0.6660 -1.0482
   21DOPE    C3 2607   2.172   1.124  16.989  0.1302  0.0901 -0.4015
   21DOPE    HX 2608   2.267   1.140  17.044 -0.4097 -2.5367  1.4765
   21DOPE    HY 2609   2.098   1.207  16.997 -1.9295 -1.7948  2.0695
   21DOPE   O31 2610   2.194   1.089  16.851 -0.7613  0.2039  0.1126
   21DOPE   C31 2611   2.242   1.201  16.784 -0.3819  0.3040 -0.2586
   21DOPE   O32 2612   2.240   1.313  16.827 -0.4002 -0.6096  0.3994
   21DOPE   C32 2613   2.286   1.164  16.643  0.1211 -0.0820  0.2375
   21DOPE   H2X 2614   2.204   1.106  16.597 -0.4864  0.3674  0.7474
   21DOPE   H2Y 2615   2.306   1.249  16.574 -0.1569 -0.6433 -0.5467
   21DOPE   C23 2616   1.743   1.098  16.743  0.0358  0.1850  0.4350
   21DOPE   H3R 2617   1.747   1.203  16.778  2.5926 -0.6115  2.8242
   21DOPE   H3S 2618   1.646   1.082  16.690 -0.1154 -2.6090  1.4052
   21DOPE   C24 2619   1.861   1.087  16.640  0.1043  0.4097 -0.2953
   21DOPE   H4R 2620   1.877   0.986  16.596 -1.9773  1.3528 -3.5492
   21DOPE   H4S 2621   1.959   1.089  16.693  0.3159 -0.3986 -0.6389
   21DOPE   C25 2622   1.846   1.204  16.544 -0.0187  0.6929  0.2055
   21DOPE   H5R 2623   1.851   1.306  16.588  2.0622  0.9798 -0.5722
   21DOPE   H5S 2624   1.738   1.218  16.521  0.2400  1.5948 -0.5139
   21DOPE   C26 2625   1.944   1.189  16.425 -0.0174 -1.1456 -0.3238
   21DOPE   H6R 2626   1.974   1.083  16.407  0.8325 -1.1539  0.9677
   21DOPE   H6S 2627   2.037   1.233  16.467 -0.0758 -1.2755 -0.0566
   21DOPE   C27 2628   1.907   1.251  16.295  0.2287  0.3645 -0.2944
   21DOPE   H7R 2629   1.885   1.359  16.308  3.0931  1.0454 -0.3622
   21DOPE   H7S 2630   1.811   1.210  16.259 -0.2536  2.2580 -1.2851
   21DOPE   C28 2631   2.028   1.240  16.191  0.5960 -0.8460  0.2671
   21DOPE   H8R 2632   2.023   1.132  16.165  0.1551 -1.2152  1.7913
   21DOPE   H8S 2633   2.126   1.257  16.240  1.3645  1.1400 -1.7933
   21DOPE   C29 2634   1.995   1.316  16.061 -0.1697 -0.4575 -0.3623
   21DOPE   H9R 2635   1.935   1.407  16.080 -0.5864 -0.7014 -0.4903
   21DOPE  C210 2636   2.005   1.279  15.935  0.1687 -0.5152 -0.4482
   21DOPE  H10R 2637   1.982   1.348  15.852  1.7280 -1.0176 -1.3507
   21DOPE  C211 2638   2.063   1.142  15.905  0.0855  0.2853  0.4448
   21DOPE  H11R 2639   1.980   1.074  15.874  0.7973 -1.2780  1.7938
   21DOPE  H11S 2640   2.112   1.092  15.991 -1.2921  0.8692  1.6012
   21DOPE  C212 2641   2.146   1.153  15.776 -0.4638  0.2945  0.3732
   21DOPE  H12R 2642   2.195   1.055  15.758  0.5135  1.0698 -1.4076
   21DOPE  H12S 2643   2.220   1.235  15.785  0.8762 -0.7213 -1.0368
   21DOPE  C213 2644   2.056   1.172  15.648  0.1519 -0.1417 -0.5253
   21DOPE  H13R 2645   2.116   1.136  15.562  0.4186  0.2481 -0.5028
   21DOPE  H13S 2646   2.030   1.279  15.637  1.7671  0.2096 -1.1172
   21DOPE  C214 2647   1.924   1.084  15.639 -0.8765 -0.3108  0.8686
   21DOPE  H14R 2648   1.848   1.109  15.716 -1.3913  0.2724  0.1742
   21DOPE  H14S 2649   1.946   0.975  15.643 -1.0902 -0.5727 -2.3334
   21DOPE  C215 2650   1.854   1.118  15.506 -0.4227 -0.1733  0.6430
   21DOPE  H15R 2651   1.907   1.069  15.420 -2.6596  0.7522 -1.3781
   21DOPE  H15S 2652   1.839   1.225  15.482 -1.0007 -0.3667  0.0855
   21DOPE  C216 2653   1.710   1.059  15.491  0.8883  0.3210 -0.1500
   21DOPE  H16R 2654   1.678   1.100  15.392  0.3586  2.9267  1.0110
   21DOPE  H16S 2655   1.645   1.106  15.567  2.7328  0.8429  1.1667
   21DOPE  C217 2656   1.701   0.906  15.513 -0.6410  0.5480  0.1311
   21DOPE  H17R 2657   1.594   0.879  15.498 -0.4458  0.4978 -1.3686
   21DOPE  H17S 2658   1.736   0.886  15.617  0.4240 -0.3159 -0.3751
   21DOPE  C218 2659   1.792   0.813  15.428 -0.0860 -0.2932  0.3211
   21DOPE  H18R 2660   1.899   0.837  15.451  0.3227  0.2746 -1.9362
   21DOPE  H18S 2661   1.772   0.822  15.319  0.2094 -1.3740  0.1675
   21DOPE  H18T 2662   1.772   0.709  15.461 -1.7077  0.7224  2.9192
   21DOPE   C33 2663   2.412   1.083  16.650  0.1039  0.3583 -0.5573
   21DOPE   H3X 2664   2.389   0.998  16.718  0.8062  0.6478  0.0637
   21DOPE   H3Y 2665   2.490   1.150  16.693 -1.1527  0.7857  1.1854
   21DOPE   C34 2666   2.462   1.041  16.509  0.3070  0.3724  0.0171
   21DOPE   H4X 2667   2.557   0.983  16.516 -1.0069 -2.8917 -4.5389
   21DOPE   H4Y 2668   2.377   0.975  16.480 -0.0892  1.1156 -0.5254
   21DOPE   C35 2669   2.494   1.153  16.404 -0.2727  0.5007  0.2727
   21DOPE   H5X 2670   2.582   1.213  16.435  0.1829 -1.1868  2.4587
   21DOPE   H5Y 2671   2.406   1.219  16.389  0.4211  0.9713 -2.1795
   21DOPE   C36 2672   2.528   1.092  16.271  0.3403 -0.4681 -0.0712
   21DOPE   H6X 2673   2.433   1.035  16.255 -0.6482  0.5667  1.8126
   21DOPE   H6Y 2674   2.616   1.027  16.286  1.1336  1.1470  2.9581
   21DOPE   C37 2675   2.560   1.191  16.156  0.1265 -0.3683 -0.1836
   21DOPE   H7X 2676   2.472   1.258  16.141  0.2858  0.4695  2.2414
   21DOPE   H7Y 2677   2.637   1.265  16.185 -0.4698  1.0335 -1.9559
   21DOPE   C38 2678   2.632   1.136  16.025 -0.0573  0.1740 -0.5200
   21DOPE   H8X 2679   2.707   1.068  16.070 -1.5440 -1.1174  0.1090
   21DOPE   H8Y 2680   2.684   1.213  15.964 -0.4572  0.7647 -0.1212
   21DOPE   C39 2681   2.534   1.054  15.945 -0.2264 -0.0178  0.1927
   21DOPE   H9X 2682   2.496   0.962  15.991 -0.8528  0.3532  0.4233
   21DOPE  C310 2683   2.493   1.088  15.819 -0.4254  0.1573 -0.2050
   21DOPE  H10X 2684   2.433   1.010  15.770 -0.8329  0.1613  0.2812
   21DOPE  C311 2685   2.524   1.212  15.743 -0.5068  0.5954 -0.2010
   21DOPE  H11X 2686   2.435   1.266  15.705 -0.2410  0.7220 -0.6550
   21DOPE  H11Y 2687   2.585   1.288  15.795 -0.0267 -0.0577  0.2136
   21DOPE  C312 2688   2.601   1.177  15.611 -0.0438 -0.4030 -0.3172
   21DOPE  H12X 2689   2.551   1.097  15.553 -2.4073 -0.9850  2.3097
   21DOPE  H12Y 2690   2.702   1.147  15.647  0.1820  3.5928  3.1035
   21DOPE  C313 2691   2.629   1.305  15.526 -0.0460 -0.0199  0.2739
   21DOPE  H13X 2692   2.526   1.345  15.518 -0.3064 -0.7584 -0.1784
   21DOPE  H13Y 2693   2.683   1.382  15.585 -0.9972  0.3301  0.7094
   21DOPE  C314 2694   2.683   1.278  15.387 -0.7543  0.2691 -0.2898
   21DOPE  H14X 2695   2.620   1.209  15.328  2.3347 -1.1173 -2.2607
   21DOPE  H14Y 2696   2.785   1.233  15.386 -0.0109  1.9029 -0.2866
   21DOPE  C315 2697   2.693   1.409  15.308  0.2759 -0.2157  0.5890
   21DOPE  H15X 2698   2.756   1.485  15.360  1.2601 -0.9053  0.4261
   21DOPE  H15Y 2699   2.593   1.456  15.299 -0.5455 -1.5512  2.2030
   21DOPE  C316 2700   2.777   1.396  15.176  0.9165 -0.5625 -0.6267
   21DOPE  H16X 2701   2.884   1.401  15.203  0.5332 -1.2061  1.1611
   21DOPE  H16Y 2702   2.766   1.489  15.116 -2.1736  0.1845  0.8835
   21DOPE  C317 2703   2.720   1.289  15.074  0.2379  0.1322  0.1296
   21DOPE  H17X 2704   2.785   1.282  14.984 -1.8576 -0.1358 -1.4491
   21DOPE  H17Y 2705   2.728   1.186  15.116  1.5706 -0.4958 -1.5570
   21DOPE  C318 2706   2.575   1.318  15.025 -0.0683  0.3662 -0.6054
   21DOPE  H18X 2707   2.539   1.240  14.955 -1.1389  0.2795  0.0208
   21DOPE  H18Y 2708   2.492   1.320  15.099 -1.2534 -0.3011 -1.8946
   21DOPE  H18Z 2709   2.564   1.416  14.973  0.1365  0.0852 -1.1866
   22DOPE     N 2710   6.359   4.311  17.549 -0.0351 -0.4687 -0.4312
   22DOPE   HN1 2711   6.301   4.272  17.626 -0.4950  0.1370 -0.4647
   22DOPE   HN2 2712   6.304   4.294  17.462 -1.9126  0.4495  0.5279
   22DOPE   HN3 2713   6.453   4.266  17.541 -0.6828 -1.5999 -2.8245
   22DOPE   C12 2714   6.366   4.457  17.569  0.2348 -0.2415 -0.1232
   22DOPE  H12A 2715   6.419   4.497  17.480  0.1875 -0.0293 -0.0578
   22DOPE  H12B 2716   6.416   4.481  17.666  0.8359  0.5645 -0.6127
   22DOPE   C11 2717   6.225   4.518  17.566 -0.3884 -0.3422 -0.2245
   22DOPE  H11A 2718   6.238   4.629  17.565  0.3835 -0.4265 -0.0161
   22DOPE  H11B 2719   6.172   4.486  17.659 -2.8137 -0.1002 -1.4434
   22DOPE     P 2720   6.002   4.540  17.434 -0.0661 -0.3043  0.1452
   22DOPE   O13 2721   5.965   4.625  17.551 -0.1711  0.1536 -0.7060
   22DOPE   O14 2722   5.906   4.437  17.404 -0.2929  0.2883 -0.0817
   22DOPE   O11 2723   6.018   4.630  17.303 -0.0822 -0.3773 -0.0607
   22DOPE   O12 2724   6.143   4.474  17.454 -0.4752 -0.5413  0.5737
   22DOPE    C1 2725   6.106   4.597  17.196 -0.0061 -0.0226 -0.6321
   22DOPE    HA 2726   6.172   4.509  17.210 -0.3669 -0.3274 -0.8378
   22DOPE    HB 2727   6.179   4.681  17.184  0.2929 -0.1456  0.2729
   22DOPE    C2 2728   6.030   4.565  17.061  0.5892  0.4585  0.4317
   22DOPE    HS 2729   5.999   4.458  17.061  2.8079 -0.2420 -0.7045
   22DOPE   O21 2730   6.121   4.582  16.952  0.1522 -0.0205  0.2456
   22DOPE   C21 2731   6.220   4.492  16.941 -0.4835 -0.3879 -0.9279
   22DOPE   O22 2732   6.229   4.399  17.019  0.1980 -0.1901 -0.4736
   22DOPE   C22 2733   6.325   4.526  16.838 -0.1604 -0.2908 -0.0811
   22DOPE   H2R 2734   6.421   4.476  16.863 -0.1653  0.5962  1.9419
   22DOPE   H2S 2735   6.360   4.631  16.847 -0.0617 -0.1626 -1.7651
   22DOPE    C3 2736   5.908   4.657  17.038  0.6800 -0.1605  1.1772
   22DOPE    HX 2737   5.953   4.750  16.996  3.0105 -1.4625  0.6139
   22DOPE    HY 2738   5.844   4.681  17.124 -1.2356  0.5784 -0.3791
   22DOPE   O31 2739   5.824   4.597  16.935  0.4034  0.4583  0.1905
   22DOPE   C31 2740   5.750   4.674  16.860 -0.2336 -0.4889 -0.1177
   22DOPE   O32 2741   5.740   4.797  16.873  0.5708 -0.4099  0.0739
   22DOPE   C32 2742   5.652   4.603  16.769  0.1395  0.4103 -0.2436
   22DOPE   H2X 2743   5.678   4.496  16.782 -1.6368 -0.0901 -0.4919
   22DOPE   H2Y 2744   5.550   4.608  16.814  0.3732 -1.8593  0.6428
   22DOPE   C23 2745   6.273   4.497  16.697  0.2181 -0.0265  0.1662
   22DOPE   H3R 2746   6.170   4.539  16.694 -0.3649 -1.0620  2.8542
   22DOPE   H3S 2747   6.259   4.387  16.686 -1.5791 -0.0245  1.8669
   22DOPE   C24 2748   6.365   4.559  16.590  0.4298 -0.3730  0.0686
   22DOPE   H4R 2749   6.467   4.514  16.589  0.1009 -1.1579 -1.8791
   22DOPE   H4S 2750   6.377   4.664  16.625 -1.0190 -0.1953  0.0876
   22DOPE   C25 2751   6.306   4.558  16.447 -0.2245  0.0149 -0.1445
   22DOPE   H5R 2752   6.201   4.594  16.435 -0.0181  0.5114 -0.4961
   22DOPE   H5S 2753   6.310   4.450  16.420  1.1327  0.9708 -4.7212
   22DOPE   C26 2754   6.398   4.635  16.346  0.4249  0.2097 -0.9249
   22DOPE   H6R 2755   6.504   4.616  16.372  0.2772 -0.1065 -0.5476
   22DOPE   H6S 2756   6.383   4.743  16.371  0.1478 -0.5015  2.5226
   22DOPE   C27 2757   6.378   4.599  16.195  0.3140  0.5003 -0.2887
   22DOPE   H7R 2758   6.280   4.638  16.160  1.2746  2.3968 -0.9742
   22DOPE   H7S 2759   6.378   4.488  16.184 -0.2055  0.3040  1.3965
   22DOPE   C28 2760   6.491   4.663  16.117  0.6114 -0.0960 -0.4693
   22DOPE   H8R 2761   6.582   4.628  16.170  0.4932  0.0365 -0.1783
   22DOPE   H8S 2762   6.497   4.774  16.122  4.8877 -0.0463 -2.2539
   22DOPE   C29 2763   6.490   4.610  15.976 -0.3864  0.3016  0.1068
   22DOPE   H9R 2764   6.509   4.501  15.971  0.0862  0.4415 -1.7647
   22DOPE  C210 2765   6.448   4.664  15.864 -0.4035 -0.9135  0.5019
   22DOPE  H10R 2766   6.439   4.607  15.770  1.0539 -0.3751  0.0141
   22DOPE  C211 2767   6.397   4.805  15.854  0.6389 -0.4528  0.3110
   22DOPE  H11R 2768   6.481   4.876  15.849  0.6244 -0.4705 -0.3597
   22DOPE  H11S 2769   6.349   4.827  15.951  1.2116  0.5702  0.3730
   22DOPE  C212 2770   6.301   4.821  15.730  0.5146  0.2679  0.1012
   22DOPE  H12R 2771   6.245   4.915  15.750 -0.7093 -0.3102 -0.4566
   22DOPE  H12S 2772   6.225   4.740  15.717  0.7500  0.1785 -0.7894
   22DOPE  C213 2773   6.368   4.845  15.593  0.9237  0.1431  0.2784
   22DOPE  H13R 2774   6.431   4.758  15.566  3.3960  1.9772 -0.2613
   22DOPE  H13S 2775   6.435   4.933  15.608  0.0619  0.5575  1.9911
   22DOPE  C214 2776   6.259   4.887  15.482 -0.6398  0.3528 -0.6258
   22DOPE  H14R 2777   6.205   4.980  15.509 -0.9697  0.3183 -1.1477
   22DOPE  H14S 2778   6.181   4.809  15.490 -0.0286 -0.3069 -0.8968
   22DOPE  C215 2779   6.328   4.897  15.342  0.3433 -0.0612 -0.1661
   22DOPE  H15R 2780   6.423   4.954  15.350 -0.4620  1.2877  0.3549
   22DOPE  H15S 2781   6.265   4.948  15.265  0.7032  0.1144 -0.3461
   22DOPE  C216 2782   6.367   4.761  15.284 -0.0849 -0.0456 -0.5148
   22DOPE  H16R 2783   6.271   4.715  15.251  0.0372 -2.4913  2.1196
   22DOPE  H16S 2784   6.403   4.696  15.367  0.2483 -0.3218 -0.8744
   22DOPE  C217 2785   6.464   4.764  15.164  1.2978  0.0024 -0.0946
   22DOPE  H17R 2786   6.463   4.657  15.133 -1.7170 -1.0329  2.8613
   22DOPE  H17S 2787   6.568   4.791  15.193  0.7294  1.3286  0.8376
   22DOPE  C218 2788   6.414   4.866  15.061  0.2631  0.5148 -0.5329
   22DOPE  H18R 2789   6.443   4.837  14.957  0.8656  1.3197 -0.5900
   22DOPE  H18S 2790   6.454   4.968  15.077  0.3135  0.2068  1.5947
   22DOPE  H18T 2791   6.303   4.860  15.064  0.3341 -2.0958  2.7967
   22DOPE   C33 2792   5.658   4.647  16.621 -0.0581 -0.5040 -0.3854
   22DOPE   H3X 2793   5.761   4.629  16.585  0.1020 -0.2132 -0.0709
   22DOPE   H3Y 2794   5.653   4.757  16.612 -0.2994 -0.5080 -0.2984
   22DOPE   C34 2795   5.547   4.595  16.527  0.1710  0.5274 -0.1213
   22DOPE   H4X 2796   5.564   4.486  16.514  0.7144  0.3909  1.5096
   22DOPE   H4Y 2797   5.448   4.618  16.572 -0.1445  0.3819 -0.7362
   22DOPE   C35 2798   5.558   4.660  16.395 -0.1359 -0.2072 -0.2092
   22DOPE   H5X 2799   5.663   4.686  16.372  0.1732 -1.2789 -0.0305
   22DOPE   H5Y 2800   5.494   4.750  16.381 -0.8898 -0.6440  0.3410
   22DOPE   C36 2801   5.499   4.579  16.286 -0.4760 -0.1173 -1.1072
   22DOPE   H6X 2802   5.399   4.546  16.322 -0.4946  3.2209  2.6950
   22DOPE   H6Y 2803   5.557   4.485  16.274  0.3653  0.0086  1.4202
   22DOPE   C37 2804   5.477   4.643  16.152  0.5975 -0.4395  0.3559
   22DOPE   H7X 2805   5.452   4.557  16.086  0.3151  1.6782 -2.5017
   22DOPE   H7Y 2806   5.401   4.723  16.156  0.3276 -0.6750  0.0386
   22DOPE   C38 2807   5.608   4.698  16.088  0.2679  0.3000  0.0865
   22DOPE   H8X 2808   5.681   4.616  16.066 -0.2257 -0.3665  0.8441
   22DOPE   H8Y 2809   5.656   4.761  16.166 -0.3688 -1.3126  1.8791
   22DOPE   C39 2810   5.570   4.781  15.966 -0.1107 -0.0318 -0.2508
   22DOPE   H9X 2811   5.517   4.874  15.992  3.7709  1.8459  1.6975
   22DOPE  C310 2812   5.592   4.754  15.832  0.0180 -0.0314  0.1500
   22DOPE  H10X 2813   5.568   4.832  15.758 -0.7340 -1.2061 -0.8756
   22DOPE  C311 2814   5.650   4.621  15.779 -0.2940 -0.2707 -0.5077
   22DOPE  H11X 2815   5.648   4.556  15.870 -0.9078  1.0204  0.4357
   22DOPE  H11Y 2816   5.585   4.579  15.700  1.4515 -0.5007 -1.8975
   22DOPE  C312 2817   5.790   4.637  15.720 -0.5400  0.4312 -0.8299
   22DOPE  H12X 2818   5.834   4.540  15.688  1.4807  1.1085 -0.2815
   22DOPE  H12Y 2819   5.865   4.670  15.795  0.3979 -0.8703 -1.1681
   22DOPE  C313 2820   5.797   4.738  15.602 -0.4368  0.6865  0.0089
   22DOPE  H13X 2821   5.757   4.836  15.635  0.6472  0.4043  2.2974
   22DOPE  H13Y 2822   5.901   4.748  15.564 -0.1419 -2.4051 -0.2347
   22DOPE  C314 2823   5.714   4.689  15.487  0.0004  0.1753  0.1919
   22DOPE  H14X 2824   5.611   4.717  15.518  0.6407  0.2334  2.4136
   22DOPE  H14Y 2825   5.732   4.580  15.475  1.1110  0.2598  0.9740
   22DOPE  C315 2826   5.729   4.770  15.355  0.0013  0.3708  0.3082
   22DOPE  H15X 2827   5.725   4.877  15.381 -1.7673  0.5085 -0.3774
   22DOPE  H15Y 2828   5.636   4.745  15.298  0.0646 -2.9372  1.3882
   22DOPE  C316 2829   5.842   4.722  15.267  0.4475  0.2517 -1.2641
   22DOPE  H16X 2830   5.824   4.614  15.246  0.1013 -0.1115  0.6705
   22DOPE  H16Y 2831   5.935   4.721  15.328  0.0818 -0.9665 -0.6904
   22DOPE  C317 2832   5.867   4.801  15.137  0.6916 -0.0097  0.2503
   22DOPE  H17X 2833   5.780   4.769  15.076  0.1437 -1.7960  1.8339
   22DOPE  H17Y 2834   5.864   4.911  15.146 -0.4287  0.0223 -0.3906
   22DOPE  C318 2835   5.996   4.761  15.058  0.1912 -0.1385  0.4549
   22DOPE  H18X 2836   6.074   4.724  15.128  0.3897 -1.2460 -0.3140
   22DOPE  H18Y 2837   5.974   4.684  14.981  0.3077 -0.8506  1.1188
   22DOPE  H18Z 2838   6.031   4.857  15.015  0.4290  0.9545  2.9481
   23DOPE     N 2839   4.874   1.201  17.728  0.6619  0.1142 -0.2653
   23DOPE   HN1 2840   4.840   1.299  17.723  0.6510  0.0650 -1.5379
   23DOPE   HN2 2841   4.808   1.138  17.677  0.2985 -0.6699  1.1374
   23DOPE   HN3 2842   4.880   1.170  17.827 -0.2975  0.5955 -0.0493
   23DOPE   C12 2843   5.014   1.227  17.674  0.0707 -0.6584  0.2569
   23DOPE  H12A 2844   5.002   1.238  17.564  0.7181  0.7737  0.3110
   23DOPE  H12B 2845   5.080   1.144  17.707 -0.9434 -1.0692  1.2820
   23DOPE   C11 2846   5.051   1.367  17.718  0.2339  0.0986 -0.0294
   23DOPE  H11A 2847   5.150   1.389  17.673  1.1629  1.2041  2.4133
   23DOPE  H11B 2848   5.053   1.361  17.829 -2.3460 -0.8189  0.0364
   23DOPE     P 2849   4.985   1.612  17.703  0.8794 -0.2438 -0.2379
   23DOPE   O13 2850   5.020   1.622  17.851 -0.0681 -0.6114  0.4199
   23DOPE   O14 2851   4.869   1.698  17.670  0.2305  0.2397 -0.1157
   23DOPE   O11 2852   5.108   1.648  17.619  0.1021 -0.0862 -0.3454
   23DOPE   O12 2853   4.959   1.460  17.667  0.3032 -0.6684  0.0569
   23DOPE    C1 2854   5.129   1.591  17.488  0.3640  0.0977 -0.1690
   23DOPE    HA 2855   5.063   1.504  17.466 -0.3110  0.2626  1.1317
   23DOPE    HB 2856   5.231   1.549  17.481  0.9194  0.9991  1.9115
   23DOPE    C2 2857   5.101   1.689  17.370  0.3842  0.4241 -0.1423
   23DOPE    HS 2858   5.161   1.777  17.399 -1.3488  2.4759 -2.3420
   23DOPE   O21 2859   4.961   1.713  17.374  0.2794 -0.6715  0.6651
   23DOPE   C21 2860   4.929   1.838  17.357  0.2664 -0.2040  0.4783
   23DOPE   O22 2861   5.009   1.930  17.344 -0.7295  0.0680  0.4860
   23DOPE   C22 2862   4.778   1.858  17.365  0.0596  0.1693 -0.8755
   23DOPE   H2R 2863   4.741   1.961  17.343  0.3610  0.8377  1.4204
   23DOPE   H2S 2864   4.748   1.846  17.471 -0.6721  0.3739 -1.0538
   23DOPE    C3 2865   5.141   1.637  17.236 -0.2542  0.3023  0.0374
   23DOPE    HX 2866   5.079   1.558  17.191  0.1660  0.6356 -1.1622
   23DOPE    HY 2867   5.241   1.592  17.252  0.1991  2.0409  2.8746
   23DOPE   O31 2868   5.144   1.743  17.139  0.1882 -0.3365  0.1367
   23DOPE   C31 2869   5.230   1.840  17.141 -0.5268 -0.2699 -0.1975
   23DOPE   O32 2870   5.333   1.840  17.208  0.0320 -0.1417  0.1493
   23DOPE   C32 2871   5.175   1.956  17.059 -0.0939  0.1247 -0.8114
   23DOPE   H2X 2872   5.127   1.931  16.963 -1.4155 -1.0341  0.1183
   23DOPE   H2Y 2873   5.099   1.999  17.128 -1.2090 -0.4811 -1.6427
   23DOPE   C23 2874   4.699   1.760  17.276 -0.3726  0.3868  0.7141
   23DOPE   H3R 2875   4.596   1.751  17.315 -0.1922 -0.7629  0.9606
   23DOPE   H3S 2876   4.747   1.660  17.284  1.2316  0.7862 -2.3901
   23DOPE   C24 2877   4.684   1.797  17.123  0.6457  0.0743 -0.2417
   23DOPE   H4R 2878   4.637   1.897  17.109  1.8227  0.6137 -0.4639
   23DOPE   H4S 2879   4.621   1.721  17.071  0.3558  0.5057 -0.5288
   23DOPE   C25 2880   4.816   1.785  17.050  0.5856 -0.5139  0.2019
   23DOPE   H5R 2881   4.876   1.695  17.078  2.0761  0.2251 -0.5070
   23DOPE   H5S 2882   4.882   1.871  17.074 -0.8119  0.4349  0.8122
   23DOPE   C26 2883   4.796   1.772  16.902  0.0247 -0.2311  0.5522
   23DOPE   H6R 2884   4.725   1.849  16.865  0.6342 -0.6507 -1.6285
   23DOPE   H6S 2885   4.743   1.675  16.889  0.7152 -0.6789  1.0421
   23DOPE   C27 2886   4.933   1.792  16.823  0.1196  0.0585 -0.1348
   23DOPE   H7R 2887   5.011   1.722  16.861  3.0266  2.1543 -1.8379
   23DOPE   H7S 2888   4.964   1.898  16.832 -0.3387  0.2556 -0.7796
   23DOPE   C28 2889   4.915   1.771  16.673  0.0798  0.0692 -0.0408
   23DOPE   H8R 2890   4.836   1.843  16.642  1.0587  1.3592  0.3523
   23DOPE   H8S 2891   4.884   1.667  16.652 -0.4324  0.2474 -0.1884
   23DOPE   C29 2892   5.048   1.794  16.605  0.0342 -0.3637  0.1146
   23DOPE   H9R 2893   5.134   1.751  16.658  0.0624 -0.9682 -0.4131
   23DOPE  C210 2894   5.074   1.856  16.493  0.0053  0.2807 -0.2307
   23DOPE  H10R 2895   5.181   1.866  16.466 -0.5881  1.3030 -2.4684
   23DOPE  C211 2896   4.974   1.913  16.392  0.1108 -0.6419 -0.1290
   23DOPE  H11R 2897   5.004   2.019  16.381 -2.0689 -0.1150 -1.5773
   23DOPE  H11S 2898   4.874   1.929  16.436  0.7402 -0.1050  1.1537
   23DOPE  C212 2899   4.981   1.840  16.260 -0.8830  0.1660 -0.1139
   23DOPE  H12R 2900   4.889   1.873  16.209 -1.4712  0.6962  1.2414
   23DOPE  H12S 2901   4.965   1.731  16.273  3.8475 -0.7602 -0.3187
   23DOPE  C213 2902   5.097   1.890  16.178 -0.1569  0.5415 -0.0870
   23DOPE  H13R 2903   5.192   1.870  16.233 -0.1170  0.1122 -0.3091
   23DOPE  H13S 2904   5.095   2.000  16.163  0.9419  0.5986  0.0978
   23DOPE  C214 2905   5.102   1.814  16.039  0.9049 -0.6277 -0.2504
   23DOPE  H14R 2906   4.997   1.800  16.003  0.2912  0.9303  0.8005
   23DOPE  H14S 2907   5.138   1.712  16.061 -0.8437 -0.9295  1.5491
   23DOPE  C215 2908   5.187   1.888  15.930  0.8683 -0.5734  0.0648
   23DOPE  H15R 2909   5.275   1.928  15.985  0.6192 -0.6931  0.5549
   23DOPE  H15S 2910   5.131   1.979  15.899 -0.8084 -0.5852  2.7021
   23DOPE  C216 2911   5.232   1.802  15.809 -0.6034 -0.0085  0.0496
   23DOPE  H16R 2912   5.273   1.708  15.852 -0.1788 -0.0311 -0.3906
   23DOPE  H16S 2913   5.304   1.848  15.738  1.3105 -2.5021  0.2126
   23DOPE  C217 2914   5.116   1.759  15.720 -0.0766  0.1242 -0.3007
   23DOPE  H17R 2915   5.109   1.836  15.640 -0.2121  0.0883 -0.3230
   23DOPE  H17S 2916   5.022   1.757  15.779 -0.1135  1.6915 -0.2587
   23DOPE  C218 2917   5.141   1.630  15.647 -0.0374 -0.2841  0.5492
   23DOPE  H18R 2918   5.250   1.620  15.629  0.0583  3.0245 -1.4289
   23DOPE  H18S 2919   5.090   1.624  15.549 -1.0822  0.7559  1.0195
   23DOPE  H18T 2920   5.121   1.545  15.716 -1.2605 -1.2018 -0.8661
   23DOPE   C33 2921   5.282   2.062  17.037  0.5780  0.0084  0.2741
   23DOPE   H3X 2922   5.372   2.016  16.990 -0.3441 -0.8514 -0.7363
   23DOPE   H3Y 2923   5.308   2.091  17.141  1.8885  0.3524 -0.1277
   23DOPE   C34 2924   5.229   2.186  16.966 -0.0899  0.0115 -0.8151
   23DOPE   H4X 2925   5.134   2.225  17.009 -0.4092 -0.4999 -1.0484
   23DOPE   H4Y 2926   5.307   2.262  16.989  0.2877 -0.7173  0.3961
   23DOPE   C35 2927   5.228   2.166  16.810 -0.3347 -0.5269 -0.1458
   23DOPE   H5X 2928   5.134   2.114  16.782  1.3016 -3.8973  0.1498
   23DOPE   H5Y 2929   5.320   2.111  16.780 -0.4421 -1.3970  1.0397
   23DOPE   C36 2930   5.218   2.301  16.732  0.9850  0.5821  0.6530
   23DOPE   H6X 2931   5.303   2.365  16.764  3.7984 -2.4038 -0.1777
   23DOPE   H6Y 2932   5.114   2.337  16.739 -0.7061 -2.9558 -2.3112
   23DOPE   C37 2933   5.238   2.261  16.585 -0.8429 -0.1427  0.1283
   23DOPE   H7X 2934   5.329   2.198  16.578 -0.6433 -0.0301  1.4445
   23DOPE   H7Y 2935   5.154   2.195  16.556  0.0614 -0.8560 -0.9451
   23DOPE   C38 2936   5.249   2.380  16.486 -0.2019  0.3747 -0.2618
   23DOPE   H8X 2937   5.289   2.326  16.397 -0.1123  1.3993 -0.8562
   23DOPE   H8Y 2938   5.317   2.461  16.520 -0.7133 -0.0681  1.9731
   23DOPE   C39 2939   5.111   2.429  16.456 -0.3240  0.0902  0.4394
   23DOPE   H9X 2940   5.042   2.435  16.541  0.8009 -1.0093  1.4492
   23DOPE  C310 2941   5.058   2.456  16.335  0.0411 -0.1089  0.0128
   23DOPE  H10X 2942   4.958   2.500  16.337  0.0741 -0.0504  1.4710
   23DOPE  C311 2943   5.119   2.423  16.201  0.7385  0.8025 -0.2895
   23DOPE  H11X 2944   5.103   2.520  16.149 -0.3937  1.4511  1.1959
   23DOPE  H11Y 2945   5.230   2.423  16.199  0.8829 -1.6733  1.8310
   23DOPE  C312 2946   5.045   2.297  16.145  0.2258 -0.3964 -0.3541
   23DOPE  H12X 2947   4.943   2.336  16.124 -0.0326  1.2096  3.1073
   23DOPE  H12Y 2948   5.040   2.219  16.224  0.7790  0.5664  0.6597
   23DOPE  C313 2949   5.114   2.244  16.019 -0.5449  0.0249 -0.4710
   23DOPE  H13X 2950   5.218   2.213  16.043 -0.5146 -1.0398 -1.8358
   23DOPE  H13Y 2951   5.060   2.158  15.974 -0.6626 -2.3149  3.6572
   23DOPE  C314 2952   5.147   2.348  15.912  0.8387 -0.4803 -0.4801
   23DOPE  H14X 2953   5.210   2.431  15.951  0.9230 -1.0156  0.5753
   23DOPE  H14Y 2954   5.050   2.398  15.897  0.5364 -0.1189  2.2168
   23DOPE  C315 2955   5.211   2.298  15.782 -0.9295  0.2071  0.7621
   23DOPE  H15X 2956   5.155   2.219  15.728 -0.9952 -0.1308  1.3135
   23DOPE  H15Y 2957   5.316   2.270  15.806 -0.4786  1.9444  0.9991
   23DOPE  C316 2958   5.232   2.404  15.667 -0.9738  0.1531 -0.9835
   23DOPE  H16X 2959   5.322   2.373  15.610 -0.4722  0.1387 -0.2040
   23DOPE  H16Y 2960   5.261   2.504  15.707 -0.2934 -0.7215  0.8112
   23DOPE  C317 2961   5.109   2.430  15.580  0.2800 -0.6689 -0.0953
   23DOPE  H17X 2962   5.060   2.351  15.520 -0.6994 -0.2093  0.0720
   23DOPE  H17Y 2963   5.029   2.471  15.645  1.5387  3.2223 -0.6821
   23DOPE  C318 2964   5.145   2.526  15.473  0.3817  0.0411 -0.0735
   23DOPE  H18X 2965   5.054   2.561  15.420  0.9065  1.1419 -0.2869
   23DOPE  H18Y 2966   5.200   2.611  15.520 -0.3102  0.7000 -0.4408
   23DOPE  H18Z 2967   5.213   2.478  15.399  0.5172  1.5848 -0.9906
   24DOPE     N 2968   4.847   5.658  17.415 -0.2501 -0.0037  0.3800
   24DOPE   HN1 2969   4.902   5.644  17.503 -0.4366  1.8530  0.8404
   24DOPE   HN2 2970   4.762   5.600  17.406  0.3588 -0.7052 -1.1061
   24DOPE   HN3 2971   4.910   5.620  17.342 -0.9089 -2.5594  1.0131
   24DOPE   C12 2972   4.822   5.806  17.394  0.0512  0.4105  0.4829
   24DOPE  H12A 2973   4.917   5.859  17.420  0.4577 -0.9303  1.8879
   24DOPE  H12B 2974   4.745   5.844  17.465 -0.7628  1.6510 -0.9974
   24DOPE   C11 2975   4.794   5.840  17.248 -0.6208 -0.3650  0.4052
   24DOPE  H11A 2976   4.686   5.819  17.231 -0.9403  0.6381  1.1143
   24DOPE  H11B 2977   4.854   5.769  17.186  2.0782  0.4213  1.9358
   24DOPE     P 2978   4.750   6.092  17.244  0.3278 -0.2361 -0.1750
   24DOPE   O13 2979   4.840   6.161  17.339  0.6173 -0.3970  0.2335
   24DOPE   O14 2980   4.612   6.057  17.290 -0.6954 -0.0581  0.3360
   24DOPE   O11 2981   4.731   6.173  17.110 -0.4278  0.2109  0.0175
   24DOPE   O12 2982   4.838   5.967  17.210  0.2968 -0.4229  0.0071
   24DOPE    C1 2983   4.822   6.258  17.044 -0.1952  0.6176 -0.8564
   24DOPE    HA 2984   4.917   6.275  17.101  0.9202 -1.7673 -1.8873
   24DOPE    HB 2985   4.767   6.354  17.030 -1.3785  0.2576  0.9980
   24DOPE    C2 2986   4.872   6.195  16.904  0.4162  0.0125 -0.3478
   24DOPE    HS 2987   4.792   6.197  16.827 -0.5716 -1.0461  0.6124
   24DOPE   O21 2988   4.930   6.056  16.930 -0.1712 -0.1078  0.0483
   24DOPE   C21 2989   4.849   5.955  16.907  0.2119 -0.1277  0.2299
   24DOPE   O22 2990   4.730   5.959  16.884 -0.6563 -0.0974 -0.4738
   24DOPE   C22 2991   4.929   5.826  16.915  0.0774  0.3262 -0.4111
   24DOPE   H2R 2992   4.860   5.739  16.923  2.5956 -1.6686  1.3231
   24DOPE   H2S 2993   4.976   5.830  17.016  0.6435  1.4226 -0.7065
   24DOPE    C3 2994   4.988   6.291  16.859  0.0495 -0.3323 -0.0125
   24DOPE    HX 2995   5.082   6.257  16.908  0.0337 -0.9675 -0.4052
   24DOPE    HY 2996   4.968   6.393  16.898  0.1490 -0.4875  0.4490
   24DOPE   O31 2997   5.012   6.288  16.718  0.1662  0.1894  0.1823
   24DOPE   C31 2998   5.058   6.406  16.659  0.0372 -0.1597  1.0869
   24DOPE   O32 2999   5.090   6.508  16.721 -0.2313  0.4872 -0.8925
   24DOPE   C32 3000   5.066   6.377  16.509  0.0049  0.1735 -0.0279
   24DOPE   H2X 3001   5.172   6.366  16.481 -0.5026  0.6227 -2.3227
   24DOPE   H2Y 3002   4.996   6.295  16.483 -1.3364  1.5035 -0.8038
   24DOPE   C23 3003   5.024   5.808  16.795 -0.1247  0.4695 -0.6220
   24DOPE   H3R 3004   5.058   5.702  16.798 -1.4920  0.0266  0.7588
   24DOPE   H3S 3005   5.114   5.871  16.806  2.1383 -2.6365  0.1057
   24DOPE   C24 3006   4.956   5.814  16.658  0.8495 -0.1673 -0.1601
   24DOPE   H4R 3007   4.940   5.919  16.628  0.1719 -0.2315 -0.0299
   24DOPE   H4S 3008   4.857   5.765  16.648  0.7802 -0.1577  0.4489
   24DOPE   C25 3009   5.037   5.762  16.535 -0.1938  0.4244  0.2989
   24DOPE   H5R 3010   5.017   5.653  16.540 -0.1522  0.3450 -0.8901
   24DOPE   H5S 3011   5.141   5.787  16.566  0.3230 -0.6634 -0.4853
   24DOPE   C26 3012   4.995   5.825  16.400  0.2977 -0.1422 -0.2965
   24DOPE   H6R 3013   4.887   5.801  16.389  0.3893 -0.4893 -0.4791
   24DOPE   H6S 3014   5.051   5.780  16.316  0.2392  0.2078 -0.5244
   24DOPE   C27 3015   5.027   5.972  16.387 -0.5065  0.0386 -0.4464
   24DOPE   H7R 3016   5.127   6.009  16.418 -0.6852  0.3000 -0.1805
   24DOPE   H7S 3017   4.952   6.029  16.447  1.3415 -0.8926  3.0026
   24DOPE   C28 3018   5.026   6.018  16.235  0.3496  0.4745  0.4550
   24DOPE   H8R 3019   5.107   5.972  16.175 -0.5981  1.2447 -1.5045
   24DOPE   H8S 3020   5.060   6.123  16.232 -0.2932  0.6557 -1.0164
   24DOPE   C29 3021   4.890   6.019  16.169  0.1073  0.6069  0.6387
   24DOPE   H9R 3022   4.808   6.018  16.243  0.1698  0.2062  0.7045
   24DOPE  C210 3023   4.856   5.981  16.044  1.1508 -0.0669  0.1606
   24DOPE  H10R 3024   4.749   5.989  16.019  1.0338  0.2659  0.7463
   24DOPE  C211 3025   4.945   5.961  15.928 -0.1077  0.2058  0.5629
   24DOPE  H11R 3026   4.955   5.856  15.891  5.0502  1.1831 -1.6954
   24DOPE  H11S 3027   5.050   5.992  15.946 -0.2326  1.8813 -1.2515
   24DOPE  C212 3028   4.904   6.055  15.803 -0.1638  0.5899  0.0558
   24DOPE  H12R 3029   4.948   6.155  15.825  0.9053  0.0833  0.2671
   24DOPE  H12S 3030   4.796   6.062  15.777  0.1790  0.0512 -1.5822
   24DOPE  C213 3031   4.966   6.008  15.670 -0.5896 -0.0615  0.1786
   24DOPE  H13R 3032   4.940   6.085  15.594 -0.0910  1.2994  1.3463
   24DOPE  H13S 3033   4.928   5.908  15.640 -4.2153  1.2041  0.0718
   24DOPE  C214 3034   5.115   5.993  15.681 -0.1809  0.1748  0.3812
   24DOPE  H14R 3035   5.137   5.916  15.759  2.5405  1.1653  0.7069
   24DOPE  H14S 3036   5.163   6.088  15.711 -0.8261 -0.2000  2.9006
   24DOPE  C215 3037   5.177   5.946  15.554  0.1926 -0.7066  0.5455
   24DOPE  H15R 3038   5.109   5.874  15.504 -1.1886  0.7390  0.2452
   24DOPE  H15S 3039   5.275   5.894  15.562  1.2583  1.3573  1.8229
   24DOPE  C216 3040   5.208   6.067  15.467  0.3976 -0.4469 -0.6516
   24DOPE  H16R 3041   5.287   6.122  15.524  1.2058  0.3938 -2.5019
   24DOPE  H16S 3042   5.118   6.131  15.459  1.3820  1.1527  0.4266
   24DOPE  C217 3043   5.260   6.036  15.323 -0.7647  0.2684 -0.1285
   24DOPE  H17R 3044   5.178   5.981  15.272 -0.7296  1.7044 -1.8244
   24DOPE  H17S 3045   5.353   5.978  15.345  0.0706  2.1179  1.5101
   24DOPE  C218 3046   5.302   6.158  15.249  0.3020  0.1913  0.1834
   24DOPE  H18R 3047   5.342   6.122  15.152  1.0661 -1.0492  0.9295
   24DOPE  H18S 3048   5.370   6.222  15.310 -0.6782 -0.5410  2.1324
   24DOPE  H18T 3049   5.210   6.220  15.236  0.6722  0.4032 -1.6949
   24DOPE   C33 3050   5.028   6.514  16.443  0.5283 -0.2450  0.1077
   24DOPE   H3X 3051   5.099   6.587  16.488 -0.5562  0.7606  0.2292
   24DOPE   H3Y 3052   4.927   6.541  16.479 -0.1100 -2.0953 -0.2229
   24DOPE   C34 3053   5.025   6.530  16.289 -0.1642  0.0217 -0.3185
   24DOPE   H4X 3054   4.979   6.630  16.269 -2.1182 -0.6968  0.3218
   24DOPE   H4Y 3055   5.130   6.519  16.255  0.5785  3.0121  0.7071
   24DOPE   C35 3056   4.949   6.418  16.216  0.2024 -0.3844  0.1611
   24DOPE   H5X 3057   4.842   6.424  16.248  0.1900  0.8424 -0.0574
   24DOPE   H5Y 3058   4.992   6.317  16.232  2.5732  0.4938 -0.3482
   24DOPE   C36 3059   4.955   6.434  16.063 -0.2902  0.4395 -0.0150
   24DOPE   H6X 3060   4.895   6.525  16.040  1.7592  2.2840  1.5718
   24DOPE   H6Y 3061   4.916   6.342  16.013 -0.7947  0.5309  0.2025
   24DOPE   C37 3062   5.084   6.445  15.980 -0.6138  0.9972  0.5710
   24DOPE   H7X 3063   5.143   6.523  16.033  0.0460 -0.9536  2.8600
   24DOPE   H7Y 3064   5.149   6.355  15.983 -1.5096  0.2925 -0.3212
   24DOPE   C38 3065   5.050   6.491  15.839 -0.1761 -0.0087  0.1745
   24DOPE   H8X 3066   4.972   6.570  15.845 -0.1336  0.1802 -1.2849
   24DOPE   H8Y 3067   4.999   6.413  15.779  1.6679  1.0245 -2.9768
   24DOPE   C39 3068   5.171   6.559  15.768  0.1248  0.1538  0.8192
   24DOPE   H9X 3069   5.235   6.627  15.826  1.5166 -0.0068 -0.4885
   24DOPE  C310 3070   5.214   6.532  15.645 -0.1025  0.0866  0.3531
   24DOPE  H10X 3071   5.300   6.592  15.611 -2.1091  1.7465 -2.1828
   24DOPE  C311 3072   5.169   6.434  15.539  0.8523  0.4138 -0.1912
   24DOPE  H11X 3073   5.221   6.340  15.564  0.0110 -0.0904 -0.2859
   24DOPE  H11Y 3074   5.061   6.409  15.550  0.1551  3.3476  0.5772
   24DOPE  C312 3075   5.188   6.484  15.397  0.5399 -0.0231  0.1479
   24DOPE  H12X 3076   5.158   6.404  15.325  1.2316 -0.0144 -0.1579
   24DOPE  H12Y 3077   5.294   6.503  15.370  1.1420 -0.6503  1.9064
   24DOPE  C313 3078   5.099   6.600  15.353 -0.3913 -0.0565 -0.0467
   24DOPE  H13X 3079   4.994   6.584  15.386 -0.2991 -0.2828  0.1313
   24DOPE  H13Y 3080   5.145   6.689  15.400  0.7431 -0.8898  0.4465
   24DOPE  C314 3081   5.114   6.643  15.206  0.8018 -0.1711 -0.0508
   24DOPE  H14X 3082   5.081   6.552  15.152 -0.3749  1.2919 -1.9160
   24DOPE  H14Y 3083   5.222   6.660  15.184  0.4662  1.3480 -0.6007
   24DOPE  C315 3084   5.024   6.765  15.170  0.7572 -0.2797  0.2763
   24DOPE  H15X 3085   5.034   6.776  15.060  0.4490  1.6145  0.4078
   24DOPE  H15Y 3086   5.061   6.854  15.226  0.3963 -1.0303  1.7665
   24DOPE  C316 3087   4.873   6.752  15.202 -0.1933  0.1883 -0.3896
   24DOPE  H16X 3088   4.854   6.752  15.311  1.1867 -2.0609 -0.0825
   24DOPE  H16Y 3089   4.832   6.657  15.161  1.1564 -0.5504 -0.0900
   24DOPE  C317 3090   4.787   6.854  15.122 -0.4883 -0.1360  0.1004
   24DOPE  H17X 3091   4.806   6.955  15.166  1.0982 -0.2218 -0.3511
   24DOPE  H17Y 3092   4.824   6.850  15.018 -0.2563  1.7182  0.0827
   24DOPE  C318 3093   4.638   6.812  15.133  0.6013  0.2191  0.3192
   24DOPE  H18X 3094   4.631   6.703  15.118 -0.6108 -0.0668  2.5731
   24DOPE  H18Y 3095   4.591   6.829  15.233  0.5602 -1.4182  0.6050
   24DOPE  H18Z 3096   4.581   6.871  15.058  3.2195  0.8244 -1.3237
   25DOPE     N 3097   6.318   6.167  17.728 -0.7161  0.7356  0.3248
   25DOPE   HN1 3098   6.400   6.210  17.681 -0.3374  0.5890  0.8423
   25DOPE   HN2 3099   6.245   6.155  17.655  0.2297 -1.3237 -0.3480
   25DOPE   HN3 3100   6.296   6.236  17.803  2.3955  0.4270  1.6544
   25DOPE   C12 3101   6.355   6.031  17.776  0.3806 -0.3171 -0.0935
   25DOPE  H12A 3102   6.258   5.978  17.786 -0.0305  0.2198 -1.0077
   25DOPE  H12B 3103   6.419   6.037  17.866 -0.1677  0.0759  0.2779
   25DOPE   C11 3104   6.425   5.954  17.659  0.5434 -0.4063 -0.2830
   25DOPE  H11A 3105   6.453   5.856  17.703 -0.9325 -0.0693  1.5221
   25DOPE  H11B 3106   6.518   6.012  17.640  0.9555 -1.9127 -3.5072
   25DOPE     P 3107   6.293   5.815  17.484 -0.1988  0.2243  0.3693
   25DOPE   O13 3108   6.161   5.828  17.419 -0.3504  0.3247  0.1423
   25DOPE   O14 3109   6.298   5.708  17.591  0.5242 -0.3439  0.1420
   25DOPE   O11 3110   6.399   5.782  17.376 -0.1836  0.2224 -0.2720
   25DOPE   O12 3111   6.346   5.951  17.538  0.1652 -0.4333  0.6679
   25DOPE    C1 3112   6.516   5.859  17.349 -0.6866 -0.3336 -0.2325
   25DOPE    HA 3113   6.597   5.791  17.316  1.4326  0.8365  2.2542
   25DOPE    HB 3114   6.552   5.909  17.441  0.0658  0.6933 -1.0557
   25DOPE    C2 3115   6.492   5.969  17.238 -0.4202 -0.8220 -0.2927
   25DOPE    HS 3116   6.388   6.006  17.252 -0.6737 -1.2619 -0.9534
   25DOPE   O21 3117   6.503   5.908  17.103  0.9175  0.1131  0.0125
   25DOPE   C21 3118   6.459   5.994  17.005 -0.2638  0.1720 -0.2241
   25DOPE   O22 3119   6.395   6.093  17.026 -0.4492 -0.2048  0.1070
   25DOPE   C22 3120   6.494   5.931  16.870 -0.5546  0.3095 -0.6919
   25DOPE   H2R 3121   6.481   5.821  16.874  1.3969  0.0763  2.0287
   25DOPE   H2S 3122   6.601   5.950  16.845 -0.7061 -0.5183 -2.0857
   25DOPE    C3 3123   6.602   6.080  17.270  0.1273  1.4091 -0.2852
   25DOPE    HX 3124   6.695   6.020  17.263 -0.7429  0.1030 -1.1026
   25DOPE    HY 3125   6.589   6.099  17.379 -2.0880 -1.6379  0.1236
   25DOPE   O31 3126   6.619   6.190  17.175  0.0967  0.3367 -0.6088
   25DOPE   C31 3127   6.524   6.279  17.185  0.1073  0.3615  0.4702
   25DOPE   O32 3128   6.442   6.295  17.266 -0.0110  0.1547 -0.5881
   25DOPE   C32 3129   6.532   6.365  17.061 -0.1271 -0.5599 -0.1454
   25DOPE   H2X 3130   6.615   6.340  16.991  2.3968  0.0232  2.4502
   25DOPE   H2Y 3131   6.444   6.339  16.998  1.6773 -0.0503 -3.0853
   25DOPE   C23 3132   6.421   6.000  16.751  1.1477 -0.6697  1.0204
   25DOPE   H3R 3133   6.452   6.105  16.731 -0.0703 -0.6183 -0.7635
   25DOPE   H3S 3134   6.312   5.986  16.761  1.0474  0.0328  1.0002
   25DOPE   C24 3135   6.457   5.943  16.614 -0.3558 -0.1179  0.6785
   25DOPE   H4R 3136   6.426   5.836  16.614  1.2946 -0.6344  1.6091
   25DOPE   H4S 3137   6.568   5.948  16.605 -0.5248  1.2968 -1.4155
   25DOPE   C25 3138   6.382   6.013  16.503 -1.1366 -0.0525 -0.2170
   25DOPE   H5R 3139   6.406   6.121  16.506 -1.4599  0.0116  0.0365
   25DOPE   H5S 3140   6.274   5.994  16.520 -1.1149  1.7937  2.5669
   25DOPE   C26 3141   6.437   5.953  16.374  0.5366  0.1139 -0.2647
   25DOPE   H6R 3142   6.416   5.844  16.373  0.8111  0.0598 -0.4822
   25DOPE   H6S 3143   6.546   5.977  16.368  0.0853  2.1002 -1.4821
   25DOPE   C27 3144   6.369   6.019  16.255 -0.1655 -0.0438 -0.4069
   25DOPE   H7R 3145   6.386   6.128  16.270  0.2174 -0.1540 -0.0066
   25DOPE   H7S 3146   6.261   5.992  16.251 -0.9946  2.8601  0.0539
   25DOPE   C28 3147   6.429   5.979  16.122  0.0383  0.5559 -0.0346
   25DOPE   H8R 3148   6.433   5.868  16.114  2.7841  0.6893 -1.9449
   25DOPE   H8S 3149   6.537   6.004  16.125  0.5170 -1.3434  0.2009
   25DOPE   C29 3150   6.359   6.030  16.000 -0.0415  0.0080  0.9653
   25DOPE   H9R 3151   6.316   6.130  16.021 -2.1746 -0.8930  1.1420
   25DOPE  C210 3152   6.341   5.976  15.876 -0.8004 -0.3044  0.0746
   25DOPE  H10R 3153   6.266   6.026  15.813  0.5575 -0.1608 -1.4794
   25DOPE  C211 3154   6.411   5.853  15.824 -0.2837  0.0875  0.2091
   25DOPE  H11R 3155   6.336   5.777  15.795  0.1256  0.3758 -1.7914
   25DOPE  H11S 3156   6.481   5.811  15.899 -0.8743  1.9233  1.8674
   25DOPE  C212 3157   6.509   5.888  15.704 -0.3454  0.6243  0.1328
   25DOPE  H12R 3158   6.593   5.816  15.698 -0.9949 -0.4272  2.4648
   25DOPE  H12S 3159   6.569   5.977  15.734  0.3821  0.1495  0.0922
   25DOPE  C213 3160   6.445   5.903  15.564 -0.1567 -0.3734  0.5428
   25DOPE  H13R 3161   6.366   5.981  15.566 -1.4109 -1.6187  1.9266
   25DOPE  H13S 3162   6.408   5.801  15.540  1.0646 -0.3962 -1.4716
   25DOPE  C214 3163   6.528   5.945  15.445 -0.4164  0.5164  0.0380
   25DOPE  H14R 3164   6.610   5.870  15.443  1.0168  2.0484 -0.8152
   25DOPE  H14S 3165   6.573   6.045  15.462 -0.2061  0.3860  0.2597
   25DOPE  C215 3166   6.447   5.962  15.312 -0.0745  0.7530 -0.3125
   25DOPE  H15R 3167   6.379   6.049  15.328 -1.4460 -0.2368 -0.6429
   25DOPE  H15S 3168   6.378   5.876  15.299  0.9167 -0.1064  0.0039
   25DOPE  C216 3169   6.534   5.987  15.182 -0.1220  0.0884 -0.8204
   25DOPE  H16R 3170   6.618   6.058  15.202  2.1675 -3.1865  2.5656
   25DOPE  H16S 3171   6.469   6.031  15.104  0.5230 -1.0588 -2.0411
   25DOPE  C217 3172   6.580   5.863  15.123  0.2440 -0.3266  0.0305
   25DOPE  H17R 3173   6.491   5.803  15.094 -0.1246  0.1599  0.1373
   25DOPE  H17S 3174   6.648   5.807  15.190 -1.1443 -0.7555  1.1317
   25DOPE  C218 3175   6.650   5.891  14.980 -0.2080  0.1676 -0.3147
   25DOPE  H18R 3176   6.661   5.797  14.923  0.4365  1.2976 -2.1466
   25DOPE  H18S 3177   6.754   5.928  14.991 -1.3601  3.1761  1.6681
   25DOPE  H18T 3178   6.594   5.966  14.920  0.8246  0.6318 -0.7062
   25DOPE   C33 3179   6.537   6.517  17.086  0.0476 -0.1593 -0.2754
   25DOPE   H3X 3180   6.615   6.535  17.162  0.4985  0.2642 -0.8312
   25DOPE   H3Y 3181   6.444   6.559  17.130 -0.0249 -2.7500  2.3439
   25DOPE   C34 3182   6.571   6.603  16.956  0.5884 -0.2778 -0.5276
   25DOPE   H4X 3183   6.620   6.699  16.982 -1.4379  1.0367 -1.3050
   25DOPE   H4Y 3184   6.639   6.544  16.891  1.9158  1.2052 -0.5370
   25DOPE   C35 3185   6.447   6.641  16.874  1.0183 -0.0876 -0.3267
   25DOPE   H5X 3186   6.388   6.724  16.918  1.0000 -0.3376  0.1286
   25DOPE   H5Y 3187   6.368   6.563  16.877  0.6081  0.0076 -3.9953
   25DOPE   C36 3188   6.471   6.666  16.720  0.4341 -0.6031  0.0712
   25DOPE   H6X 3189   6.507   6.569  16.680  0.0082 -0.5333 -0.4833
   25DOPE   H6Y 3190   6.554   6.735  16.696 -1.3233  2.2313  1.6069
   25DOPE   C37 3191   6.347   6.722  16.645 -0.2591  0.1487  0.3376
   25DOPE   H7X 3192   6.265   6.648  16.643  0.1804 -0.3423  0.2856
   25DOPE   H7Y 3193   6.304   6.812  16.694 -0.2525 -0.0707  0.7484
   25DOPE   C38 3194   6.373   6.735  16.488 -0.3274 -0.0645 -0.3409
   25DOPE   H8X 3195   6.457   6.667  16.458 -0.0453  0.1588 -0.0626
   25DOPE   H8Y 3196   6.439   6.823  16.472 -0.4075  0.0715  0.0839
   25DOPE   C39 3197   6.249   6.716  16.405 -0.3604 -0.2729 -0.0654
   25DOPE   H9X 3198   6.165   6.667  16.456 -0.2443 -0.2664  0.1336
   25DOPE  C310 3199   6.238   6.744  16.272  0.2601 -0.0812  0.3698
   25DOPE  H10X 3200   6.144   6.744  16.214  0.6917  0.9919 -0.3578
   25DOPE  C311 3201   6.355   6.782  16.187  0.3306  0.2183  0.0192
   25DOPE  H11X 3202   6.329   6.863  16.116  0.6058  1.1887  0.9967
   25DOPE  H11Y 3203   6.437   6.831  16.244 -0.8142  1.3593  0.7239
   25DOPE  C312 3204   6.408   6.645  16.131 -0.1793 -0.5619 -0.0379
   25DOPE  H12X 3205   6.407   6.567  16.211 -1.8239 -1.4799 -0.9065
   25DOPE  H12Y 3206   6.513   6.673  16.108 -0.1315 -0.6680  0.0506
   25DOPE  C313 3207   6.343   6.592  16.008  0.4800 -0.4844 -0.5552
   25DOPE  H13X 3208   6.239   6.564  16.035  0.0823  1.6395  0.3388
   25DOPE  H13Y 3209   6.338   6.664  15.924  2.4361  1.0919  0.5895
   25DOPE  C314 3210   6.406   6.468  15.948 -0.5490 -0.1535  0.2226
   25DOPE  H14X 3211   6.449   6.422  16.040 -0.4031  0.2574  0.3644
   25DOPE  H14Y 3212   6.489   6.510  15.887  1.1309 -0.0925  2.4063
   25DOPE  C315 3213   6.310   6.367  15.880  0.3531 -0.1990 -0.0324
   25DOPE  H15X 3214   6.253   6.315  15.960  1.4356  2.1934  2.4216
   25DOPE  H15Y 3215   6.362   6.282  15.831  2.4648  1.1827 -0.3068
   25DOPE  C316 3216   6.230   6.424  15.761 -0.2265 -0.4588 -0.5930
   25DOPE  H16X 3217   6.171   6.514  15.789 -0.8361 -1.3959  1.3405
   25DOPE  H16Y 3218   6.153   6.351  15.726 -1.8906  0.0644  1.7013
   25DOPE  C317 3219   6.319   6.470  15.639  0.0865 -0.3130 -0.8985
   25DOPE  H17X 3220   6.378   6.555  15.678 -0.3764 -1.5640  3.0129
   25DOPE  H17Y 3221   6.387   6.384  15.617 -0.7713 -0.8053 -1.7197
   25DOPE  C318 3222   6.235   6.492  15.517 -0.0680 -0.3728  0.4961
   25DOPE  H18X 3223   6.158   6.570  15.535  0.8333  0.4445  0.8461
   25DOPE  H18Y 3224   6.292   6.533  15.431 -0.4141  2.7588  1.6305
   25DOPE  H18Z 3225   6.173   6.402  15.495  1.1864 -1.3567  0.8307
   26DOPE     N 3226   0.346   0.471  17.339 -0.0426  0.0359  0.0055
   26DOPE   HN1 3227   0.439   0.448  17.298 -0.1131  1.7670 -1.2847
   26DOPE   HN2 3228   0.353   0.559  17.393  1.1382  0.5540 -0.9251
   26DOPE   HN3 3229   0.309   0.389  17.390  1.1558 -1.0493 -0.8266
   26DOPE   C12 3230   0.256   0.485  17.224  0.4268 -0.7299 -0.1394
   26DOPE  H12A 3231   0.317   0.500  17.132  0.9497 -0.0023  0.3153
   26DOPE  H12B 3232   0.212   0.586  17.240  3.7070  0.6688  0.9489
   26DOPE   C11 3233   0.143   0.382  17.215 -0.1496 -0.0984 -0.7803
   26DOPE  H11A 3234   0.129   0.374  17.105  0.8735  0.6423 -0.9711
   26DOPE  H11B 3235   0.052   0.427  17.261  0.5372 -0.5658  1.1220
   26DOPE     P 3236   0.107   0.126  17.229  0.3244  0.3069 -0.5540
   26DOPE   O13 3237  -0.039   0.151  17.248 -0.1184  0.1506 -0.5023
   26DOPE   O14 3238   0.160   0.012  17.312  0.3515 -0.3162  0.8973
   26DOPE   O11 3239   0.150   0.113  17.080 -0.4565 -0.2774 -0.0978
   26DOPE   O12 3240   0.187   0.256  17.274 -0.1674 -0.3710  0.3845
   26DOPE    C1 3241   0.292   0.116  17.041 -0.3574  0.6703 -0.9560
   26DOPE    HA 3242   0.360   0.059  17.107 -0.9271  2.4121  1.2648
   26DOPE    HB 3243   0.333   0.219  17.042  0.5358  0.3169 -0.6637
   26DOPE    C2 3244   0.311   0.043  16.911 -0.0656  0.5077  0.3741
   26DOPE    HS 3245   0.416   0.058  16.878 -0.6168  0.0875 -1.7103
   26DOPE   O21 3246   0.229   0.093  16.806  0.5505  0.2152  0.0440
   26DOPE   C21 3247   0.200   0.220  16.798  0.2082 -0.1978  0.3908
   26DOPE   O22 3248   0.284   0.313  16.812  0.0346 -0.0943  0.1988
   26DOPE   C22 3249   0.044   0.217  16.774  0.3803  0.0009 -0.4183
   26DOPE   H2R 3250  -0.005   0.258  16.865 -2.5523 -2.0584 -0.9350
   26DOPE   H2S 3251   0.012   0.111  16.781  2.0601 -0.4808  0.6374
   26DOPE    C3 3252   0.304  -0.108  16.914  0.2623 -0.1410 -0.3355
   26DOPE    HX 3253   0.206  -0.157  16.933 -0.2103  1.7680  2.7983
   26DOPE    HY 3254   0.363  -0.144  17.001  0.7541  0.1365 -0.5513
   26DOPE   O31 3255   0.369  -0.161  16.801 -0.2435  0.3978  0.7958
   26DOPE   C31 3256   0.303  -0.187  16.692  0.2279  0.6552  0.0510
   26DOPE   O32 3257   0.185  -0.207  16.682 -0.2810  0.5597  0.0589
   26DOPE   C32 3258   0.400  -0.169  16.566  0.7798 -0.0190 -0.4860
   26DOPE   H2X 3259   0.435  -0.063  16.567  1.7249 -0.3046  1.2921
   26DOPE   H2Y 3260   0.493  -0.229  16.578  2.2425  1.8274 -1.9796
   26DOPE   C23 3261   0.000   0.290  16.646 -0.3377 -0.3877 -0.2447
   26DOPE   H3R 3262   0.047   0.390  16.636  0.6161 -0.9946 -2.6517
   26DOPE   H3S 3263  -0.109   0.306  16.634 -0.1827  1.3633  0.4718
   26DOPE   C24 3264   0.061   0.214  16.528 -0.5672  0.7925  0.9007
   26DOPE   H4R 3265   0.026   0.109  16.537 -2.0985  1.2354  0.4053
   26DOPE   H4S 3266   0.172   0.212  16.536 -0.5336  1.7175  0.7696
   26DOPE   C25 3267   0.031   0.279  16.392 -0.5616 -0.4575  0.2612
   26DOPE   H5R 3268   0.085   0.376  16.392  1.9183 -1.7535  1.3345
   26DOPE   H5S 3269  -0.077   0.288  16.368 -0.1721 -0.5616 -1.6317
   26DOPE   C26 3270   0.085   0.191  16.274  0.2963  0.3252  0.1484
   26DOPE   H6R 3271   0.041   0.089  16.280 -2.1067  1.3296  0.9126
   26DOPE   H6S 3272   0.195   0.181  16.286  0.4501  0.3138 -1.1161
   26DOPE   C27 3273   0.053   0.236  16.134 -0.1821 -0.8293 -0.4128
   26DOPE   H7R 3274   0.071   0.346  16.130 -0.1064 -0.8476 -0.6010
   26DOPE   H7S 3275  -0.054   0.207  16.121 -0.6199  0.5628 -0.1780
   26DOPE   C28 3276   0.131   0.175  16.023 -0.6346  1.1041 -0.2106
   26DOPE   H8R 3277   0.110   0.066  16.028 -0.7070  1.1753  1.6111
   26DOPE   H8S 3278   0.239   0.180  16.048 -0.1005  0.1757 -2.1863
   26DOPE   C29 3279   0.128   0.235  15.885  0.1415  0.0181  0.3679
   26DOPE   H9R 3280   0.151   0.343  15.882  1.9617 -0.2915  1.6715
   26DOPE  C210 3281   0.086   0.180  15.771  0.3401  0.0136  0.8715
   26DOPE  H10R 3282   0.081   0.238  15.678 -2.2671 -1.6791 -0.1560
   26DOPE  C211 3283   0.044   0.035  15.760 -0.1054 -0.7271 -0.3101
   26DOPE  H11R 3284  -0.019   0.017  15.850  0.3345  2.7183  0.8566
   26DOPE  H11S 3285   0.137  -0.025  15.752  1.4151  1.0314  2.3858
   26DOPE  C212 3286  -0.054   0.013  15.641 -0.3627 -0.1691 -0.5861
   26DOPE  H12R 3287  -0.145   0.073  15.664  0.5137  0.7942  0.4619
   26DOPE  H12S 3288  -0.092  -0.091  15.653  0.2029 -0.4084 -0.8514
   26DOPE  C213 3289   0.010   0.018  15.504  0.7249 -0.1645 -0.7545
   26DOPE  H13R 3290   0.090  -0.058  15.504  1.2983  0.2888  2.4638
   26DOPE  H13S 3291   0.066   0.114  15.496  1.1266 -0.2904  0.4192
   26DOPE  C214 3292  -0.085   0.005  15.386 -0.0142 -0.4893 -0.7126
   26DOPE  H14R 3293  -0.157   0.089  15.382 -1.2036 -1.4711 -0.6081
   26DOPE  H14S 3294  -0.156  -0.076  15.413 -0.0807  0.1949  1.3397
   26DOPE  C215 3295  -0.026   0.020  15.243 -0.6401  0.0011 -0.3610
   26DOPE  H15R 3296   0.033  -0.071  15.218 -2.6531 -1.8691  1.1870
   26DOPE  H15S 3297   0.034   0.113  15.239 -1.3561  0.5466  0.9921
   26DOPE  C216 3298  -0.144   0.040  15.142 -0.0321 -0.4694  0.2150
   26DOPE  H16R 3299  -0.196   0.134  15.173  0.8049  0.1636 -0.2627
   26DOPE  H16S 3300  -0.217  -0.042  15.160 -0.6080 -0.6618 -2.5480
   26DOPE  C217 3301  -0.103   0.044  14.996 -0.8352 -0.7027 -0.0482
   26DOPE  H17R 3302  -0.020  -0.028  14.977 -0.6836 -0.8206  1.0178
   26DOPE  H17S 3303  -0.055   0.142  14.975 -1.7694  0.1250  1.4935
   26DOPE  C218 3304  -0.215   0.033  14.902 -0.0305 -0.0260 -0.4906
   26DOPE  H18R 3305  -0.159   0.021  14.806  1.0382 -1.9511  0.3211
   26DOPE  H18S 3306  -0.254   0.136  14.887  0.1183  0.0152 -0.6086
   26DOPE  H18T 3307  -0.290  -0.046  14.922  0.1194  0.2185  1.1746
   26DOPE   C33 3308   0.334  -0.213  16.435 -0.4334 -0.2229 -0.3038
   26DOPE   H3X 3309   0.235  -0.165  16.424 -0.3597 -0.0202 -0.0991
   26DOPE   H3Y 3310   0.313  -0.322  16.446 -0.3626 -0.0286  2.3888
   26DOPE   C34 3311   0.426  -0.199  16.313 -0.0169  0.0518  0.2756
   26DOPE   H4X 3312   0.522  -0.248  16.340 -0.2910 -1.1489 -0.8048
   26DOPE   H4Y 3313   0.384  -0.271  16.240  2.0497 -0.9734  0.0248
   26DOPE   C35 3314   0.435  -0.061  16.244  0.2802 -0.0703  0.0204
   26DOPE   H5X 3315   0.489   0.005  16.315 -0.9188  0.0213  0.8719
   26DOPE   H5Y 3316   0.338  -0.014  16.217  0.7734  0.4602 -0.8838
   26DOPE   C36 3317   0.515  -0.070  16.108 -0.3926  0.0442  0.0207
   26DOPE   H6X 3318   0.610  -0.126  16.118  1.3380  2.5279 -1.3923
   26DOPE   H6Y 3319   0.548   0.033  16.083  0.9834 -0.5817 -0.8974
   26DOPE   C37 3320   0.441  -0.125  15.986 -0.0019 -0.8312 -0.3639
   26DOPE   H7X 3321   0.382  -0.216  16.012 -2.9459  0.2877 -2.4819
   26DOPE   H7Y 3322   0.360  -0.054  15.957  1.0574  0.0087 -1.3379
   26DOPE   C38 3323   0.542  -0.162  15.873  0.0964 -0.2759 -0.7277
   26DOPE   H8X 3324   0.481  -0.198  15.787 -1.3779 -1.0996  0.6123
   26DOPE   H8Y 3325   0.600  -0.252  15.903 -1.9690 -1.2550  0.5023
   26DOPE   C39 3326   0.620  -0.043  15.831  0.0427  0.4042 -0.3355
   26DOPE   H9X 3327   0.716  -0.033  15.883 -0.3693  1.5269  0.2386
   26DOPE  C310 3328   0.578   0.039  15.733 -0.0514  0.2481 -0.1114
   26DOPE  H10X 3329   0.655   0.115  15.716 -0.4073  0.7909  0.6513
   26DOPE  C311 3330   0.452   0.042  15.652 -0.5447  0.2186 -0.0346
   26DOPE  H11X 3331   0.357   0.027  15.707 -1.4499  0.8353 -1.3541
   26DOPE  H11Y 3332   0.444   0.148  15.620 -0.9258 -0.1172 -1.1021
   26DOPE  C312 3333   0.433  -0.035  15.520 -1.0658 -1.2019 -0.7339
   26DOPE  H12X 3334   0.336  -0.005  15.475 -0.1289 -0.7378 -2.5690
   26DOPE  H12Y 3335   0.431  -0.141  15.552 -1.5526 -0.9271  0.1794
   26DOPE  C313 3336   0.544  -0.013  15.413 -0.0326 -0.7169  0.1522
   26DOPE  H13X 3337   0.641  -0.028  15.465  0.3411  2.6779  0.7168
   26DOPE  H13Y 3338   0.531  -0.072  15.320  0.5862  0.2754 -0.5844
   26DOPE  C314 3339   0.551   0.139  15.370  0.2654 -0.4144 -0.4756
   26DOPE  H14X 3340   0.650   0.163  15.325  0.2847  2.9220  1.0653
   26DOPE  H14Y 3341   0.531   0.203  15.458  0.6476 -0.7815 -0.1208
   26DOPE  C315 3342   0.455   0.170  15.252 -0.3347 -0.1412  0.8008
   26DOPE  H15X 3343   0.347   0.166  15.279 -0.2594 -0.6890  1.0560
   26DOPE  H15Y 3344   0.471   0.095  15.172 -3.7982 -0.0422 -0.1505
   26DOPE  C316 3345   0.498   0.307  15.188  0.1910  0.4843 -0.0386
   26DOPE  H16X 3346   0.607   0.300  15.169 -0.1056 -0.6992 -1.4684
   26DOPE  H16Y 3347   0.479   0.390  15.259  0.0468  0.3312  0.1039
   26DOPE  C317 3348   0.415   0.335  15.059 -0.1587  0.1868  0.1317
   26DOPE  H17X 3349   0.305   0.332  15.075 -0.4542  2.4795 -1.1196
   26DOPE  H17Y 3350   0.444   0.437  15.026  2.0083 -0.2831  0.4404
   26DOPE  C318 3351   0.443   0.237  14.936  0.0506 -0.4743 -0.5507
   26DOPE  H18X 3352   0.551   0.223  14.919  0.1131 -3.0026  1.3091
   26DOPE  H18Y 3353   0.397   0.137  14.953 -2.4809  0.2336 -2.5807
   26DOPE  H18Z 3354   0.381   0.269  14.850 -2.5834 -1.1817  0.9617
   27DOPE     N 3355   1.154   1.093  17.238  0.2474 -0.2404  0.3649
   27DOPE   HN1 3356   1.090   1.018  17.206 -0.1550  0.3018 -0.1094
   27DOPE   HN2 3357   1.205   1.130  17.156  0.1899  1.6656  1.1445
   27DOPE   HN3 3358   1.228   1.039  17.289 -1.8452 -3.2893  0.4549
   27DOPE   C12 3359   1.095   1.196  17.323 -0.3053 -0.4645  0.6614
   27DOPE  H12A 3360   1.180   1.264  17.345 -1.9214  1.7159  0.5226
   27DOPE  H12B 3361   1.058   1.138  17.410  0.2475 -0.7402  0.7137
   27DOPE   C11 3362   0.987   1.273  17.258  0.9008  0.0330 -0.4209
   27DOPE  H11A 3363   1.027   1.338  17.178 -2.1458 -0.0182 -2.1136
   27DOPE  H11B 3364   0.944   1.340  17.336 -0.0129 -0.8070 -0.1723
   27DOPE     P 3365   0.752   1.262  17.140 -0.3796 -0.2956 -0.3142
   27DOPE   O13 3366   0.721   1.388  17.211 -0.3897 -0.6404 -0.3099
   27DOPE   O14 3367   0.651   1.150  17.128  0.3136 -0.1068  0.2896
   27DOPE   O11 3368   0.811   1.290  16.997 -0.5454  0.1827  0.1329
   27DOPE   O12 3369   0.880   1.192  17.211  0.7132  0.7209  0.3815
   27DOPE    C1 3370   0.911   1.226  16.929 -0.2691  0.4843  0.3384
   27DOPE    HA 3371   0.929   1.139  16.996 -1.5904 -1.2935 -1.4902
   27DOPE    HB 3372   1.002   1.288  16.918  0.6898 -0.7748  0.8477
   27DOPE    C2 3373   0.871   1.191  16.784 -0.2002  0.2861  0.4497
   27DOPE    HS 3374   0.853   1.287  16.731  2.7156  1.4367  1.3350
   27DOPE   O21 3375   0.750   1.118  16.791 -0.1702  0.4684 -0.2407
   27DOPE   C21 3376   0.632   1.185  16.792  0.3624  1.1103  0.2298
   27DOPE   O22 3377   0.616   1.303  16.785  0.7843  0.2382  0.5633
   27DOPE   C22 3378   0.513   1.085  16.813  0.2504  0.3902  0.1125
   27DOPE   H2R 3379   0.541   1.030  16.905 -1.2006  0.8175  0.8568
   27DOPE   H2S 3380   0.516   1.017  16.726  0.4212 -0.4038  0.7276
   27DOPE    C3 3381   0.977   1.117  16.697  0.5992 -0.7035  0.9292
   27DOPE    HX 3382   1.012   1.023  16.744  0.2785 -1.0317  0.5275
   27DOPE    HY 3383   1.060   1.191  16.690 -1.4894  1.6247 -2.8314
   27DOPE   O31 3384   0.936   1.088  16.563  0.3120  0.0534  0.4483
   27DOPE   C31 3385   0.897   0.969  16.536  0.5179  0.0004 -0.1589
   27DOPE   O32 3386   0.882   0.873  16.611  1.0511  0.2257 -0.2605
   27DOPE   C32 3387   0.878   0.952  16.386  0.3039  0.4877  0.5819
   27DOPE   H2X 3388   0.881   0.843  16.365 -0.9994  0.6597 -0.7024
   27DOPE   H2Y 3389   0.779   0.988  16.351  0.5956 -0.4858 -1.4214
   27DOPE   C23 3390   0.382   1.164  16.824 -0.5158  0.7271 -0.2295
   27DOPE   H3R 3391   0.387   1.230  16.912 -1.5664 -0.6309  0.8965
   27DOPE   H3S 3392   0.303   1.090  16.848 -1.5845  0.9099 -2.8062
   27DOPE   C24 3393   0.329   1.222  16.697  0.4797  0.1503 -0.4232
   27DOPE   H4R 3394   0.393   1.309  16.670  1.7625 -1.0077 -1.2605
   27DOPE   H4S 3395   0.231   1.264  16.728 -0.3072 -2.6560  1.1809
   27DOPE   C25 3396   0.311   1.120  16.583 -0.2332 -0.8487  0.1187
   27DOPE   H5R 3397   0.244   1.035  16.612 -3.3163  0.6842 -1.8947
   27DOPE   H5S 3398   0.410   1.080  16.552  0.4104  1.2078 -0.6220
   27DOPE   C26 3399   0.260   1.189  16.458 -0.3158  0.2083  0.6547
   27DOPE   H6R 3400   0.329   1.271  16.430 -2.3284  1.5367 -0.6445
   27DOPE   H6S 3401   0.160   1.233  16.477 -0.7615 -0.4042 -0.1880
   27DOPE   C27 3402   0.242   1.092  16.335 -0.2323 -0.3940 -0.1941
   27DOPE   H7R 3403   0.158   1.021  16.355  1.4998 -2.2277  0.9407
   27DOPE   H7S 3404   0.329   1.023  16.333  0.0972 -0.0580  1.1817
   27DOPE   C28 3405   0.211   1.148  16.200 -0.2653 -0.9078  0.1172
   27DOPE   H8R 3406   0.125   1.219  16.207 -1.5372 -2.1357 -1.8534
   27DOPE   H8S 3407   0.171   1.079  16.122  0.4581  1.1540 -2.2207
   27DOPE   C29 3408   0.322   1.223  16.131 -0.3125 -0.0095  0.2929
   27DOPE   H9R 3409   0.352   1.314  16.185  0.5951 -1.3008  2.0960
   27DOPE  C210 3410   0.407   1.172  16.045  0.2474  0.7063  0.9943
   27DOPE  H10R 3411   0.483   1.243  16.010 -0.6423  1.5283  0.6683
   27DOPE  C211 3412   0.410   1.034  15.972 -0.0053  0.0920  0.2836
   27DOPE  H11R 3413   0.405   0.954  16.050 -0.0317 -1.1390 -0.9365
   27DOPE  H11S 3414   0.510   1.023  15.925  0.0161  0.5992  0.2080
   27DOPE  C212 3415   0.300   0.997  15.875 -0.1369  0.0783  0.2235
   27DOPE  H12R 3416   0.195   1.005  15.911 -0.2873  3.2940 -0.5762
   27DOPE  H12S 3417   0.309   0.894  15.836 -2.3854  0.3609 -1.2694
   27DOPE  C213 3418   0.291   1.085  15.750  0.6680 -0.1783 -0.4685
   27DOPE  H13R 3419   0.386   1.076  15.693  0.5466 -1.2880 -0.5118
   27DOPE  H13S 3420   0.263   1.189  15.777 -1.7240 -0.6999 -0.7304
   27DOPE  C214 3421   0.181   1.051  15.648 -0.0082  0.1187 -0.4725
   27DOPE  H14R 3422   0.085   1.078  15.698  1.5588  1.8756  1.7865
   27DOPE  H14S 3423   0.195   0.942  15.633  1.4854  0.2536 -0.2198
   27DOPE  C215 3424   0.202   1.128  15.520  0.0405 -0.0882  0.4202
   27DOPE  H15R 3425   0.302   1.126  15.470 -1.2669 -0.2992 -2.3611
   27DOPE  H15S 3426   0.175   1.235  15.530 -2.6393 -0.6676  0.0984
   27DOPE  C216 3427   0.108   1.073  15.410 -0.0902 -0.5591 -0.0660
   27DOPE  H16R 3428   0.009   1.090  15.457  0.7552  0.5184  1.4481
   27DOPE  H16S 3429   0.144   0.969  15.395  0.1077 -0.7129  1.3144
   27DOPE  C217 3430   0.117   1.130  15.261  0.1502 -0.4988 -0.5441
   27DOPE  H17R 3431   0.056   1.075  15.187  2.6339 -0.4191 -2.8212
   27DOPE  H17S 3432   0.223   1.131  15.226  1.0579 -1.9315  1.9363
   27DOPE  C218 3433   0.058   1.267  15.255  0.2600  0.1097 -0.4139
   27DOPE  H18R 3434  -0.032   1.275  15.320 -0.3199  0.9240 -1.2677
   27DOPE  H18S 3435   0.054   1.300  15.148  0.3031 -1.1734 -0.8287
   27DOPE  H18T 3436   0.115   1.339  15.317 -0.6323 -0.4706  1.1410
   27DOPE   C33 3437   0.989   1.013  16.296  0.0127  0.0047  0.0909
   27DOPE   H3X 3438   1.087   0.992  16.346  0.2458  2.4174  0.7401
   27DOPE   H3Y 3439   0.981   1.123  16.295 -0.5184 -0.0348  0.1082
   27DOPE   C34 3440   0.990   0.961  16.158  0.0137 -0.1725 -0.0508
   27DOPE   H4X 3441   1.082   1.006  16.115  0.9999 -2.1181 -0.1000
   27DOPE   H4Y 3442   1.018   0.853  16.153  2.1016  0.3824 -3.2037
   27DOPE   C35 3443   0.866   0.997  16.072 -0.4115 -0.6067 -0.2910
   27DOPE   H5X 3444   0.880   1.100  16.034  1.2279 -0.6706  0.0451
   27DOPE   H5Y 3445   0.776   0.990  16.136  1.4828 -1.5014  2.4905
   27DOPE   C36 3446   0.842   0.902  15.954  0.4485 -0.7949 -0.5221
   27DOPE   H6X 3447   0.739   0.894  15.914 -0.5953 -1.7176  2.1076
   27DOPE   H6Y 3448   0.851   0.803  16.004  3.0600 -0.8426 -0.9213
   27DOPE   C37 3449   0.943   0.921  15.847 -0.1574  0.1319  0.5230
   27DOPE   H7X 3450   1.047   0.926  15.885 -0.0286  0.4337  0.1426
   27DOPE   H7Y 3451   0.942   0.821  15.799  0.4762 -0.0217  0.8138
   27DOPE   C38 3452   0.936   1.046  15.760  0.0337  0.6032  0.0450
   27DOPE   H8X 3453   1.013   1.044  15.679 -0.3708 -0.0801 -0.3330
   27DOPE   H8Y 3454   0.962   1.140  15.812  1.5349  0.4953 -0.4490
   27DOPE   C39 3455   0.803   1.064  15.698  0.0794 -0.5871 -0.4128
   27DOPE   H9X 3456   0.723   1.105  15.762  0.7798 -0.1661  0.2179
   27DOPE  C310 3457   0.762   1.003  15.589  0.7488 -0.1184  0.0983
   27DOPE  H10X 3458   0.663   1.030  15.549  0.9991 -0.0330 -0.4804
   27DOPE  C311 3459   0.843   0.907  15.501  0.4880  0.0582  0.0905
   27DOPE  H11X 3460   0.930   0.862  15.554  0.3361 -2.1845 -1.4115
   27DOPE  H11Y 3461   0.775   0.821  15.481  1.5295 -0.2355 -2.6791
   27DOPE  C312 3462   0.890   0.978  15.370  0.1693  0.2272  0.0559
   27DOPE  H12X 3463   0.931   1.078  15.396 -0.1715  0.1566  0.8996
   27DOPE  H12Y 3464   0.808   0.986  15.295 -0.4499 -1.4967  0.4957
   27DOPE  C313 3465   1.010   0.906  15.299 -0.1821 -0.1174 -0.3307
   27DOPE  H13X 3466   1.087   0.902  15.379 -0.2699  2.3826 -0.0513
   27DOPE  H13Y 3467   0.982   0.801  15.278  0.0563  0.0455 -1.5346
   27DOPE  C314 3468   1.042   0.970  15.170 -0.1349  0.1912  0.3822
   27DOPE  H14X 3469   1.040   1.080  15.181  1.3050  0.1455  1.2984
   27DOPE  H14Y 3470   0.966   0.949  15.092  1.3261 -1.6478 -0.6324
   27DOPE  C315 3471   1.186   0.949  15.125 -0.1251  0.0326 -0.8264
   27DOPE  H15X 3472   1.195   0.840  15.106  0.5997  0.1973 -1.4954
   27DOPE  H15Y 3473   1.252   0.976  15.209 -0.9987 -1.8740  0.5501
   27DOPE  C316 3474   1.222   1.025  15.003 -0.7848 -0.7944 -0.0809
   27DOPE  H16X 3475   1.210   1.135  15.017  2.1437  0.0516 -2.8901
   27DOPE  H16Y 3476   1.157   0.988  14.922  0.4621  0.9509 -1.9690
   27DOPE  C317 3477   1.370   1.009  14.953  0.5018  0.1076 -0.2588
   27DOPE  H17X 3478   1.380   1.071  14.861 -0.4697  1.8954  0.7784
   27DOPE  H17Y 3479   1.418   1.061  15.038 -0.9323  0.5024  0.3354
   27DOPE  C318 3480   1.432   0.870  14.959  0.2431 -0.2483 -0.7561
   27DOPE  H18X 3481   1.385   0.802  14.884  0.2489  0.8699 -1.8142
   27DOPE  H18Y 3482   1.540   0.862  14.936  0.5083  2.3467 -0.7042
   27DOPE  H18Z 3483   1.423   0.838  15.064 -1.9060  2.0712 -0.1228
   28DOPE     N 3484   6.468   0.318  17.263 -0.3811  0.2783  0.1014
   28DOPE   HN1 3485   6.486   0.413  17.303 -0.7013  1.2819 -2.0093
   28DOPE   HN2 3486   6.554   0.268  17.233  0.3253  1.3969  0.1908
   28DOPE   HN3 3487   6.398   0.323  17.187 -0.9909 -0.0745  0.6351
   28DOPE   C12 3488   6.406   0.227  17.363 -0.4151  0.4006 -0.0744
   28DOPE  H12A 3489   6.317   0.284  17.398  0.8318  1.5322  1.3703
   28DOPE  H12B 3490   6.481   0.199  17.440  1.4856 -0.7427 -2.2505
   28DOPE   C11 3491   6.357   0.095  17.311  0.2460 -0.7680 -0.5521
   28DOPE  H11A 3492   6.448   0.042  17.276  0.7396 -0.5652  0.3904
   28DOPE  H11B 3493   6.286   0.120  17.229 -1.9912 -1.6263  1.0134
   28DOPE     P 3494   6.138   0.046  17.448  0.0890 -0.5805  0.3226
   28DOPE   O13 3495   6.101   0.191  17.443 -0.6641  0.2536  0.2499
   28DOPE   O14 3496   6.103  -0.027  17.572 -0.2885 -0.9652 -0.1541
   28DOPE   O11 3497   6.063  -0.026  17.333 -0.0028 -0.1377 -0.0071
   28DOPE   O12 3498   6.292   0.025  17.414  0.6860 -0.0100 -0.1763
   28DOPE    C1 3499   6.103  -0.155  17.282 -0.4497 -0.2808  0.2980
   28DOPE    HA 3500   6.026  -0.232  17.307  1.8696 -2.3740  1.4294
   28DOPE    HB 3501   6.200  -0.192  17.320  0.8727  0.2873 -2.3201
   28DOPE    C2 3502   6.134  -0.153  17.129 -0.1611  0.1029  0.6311
   28DOPE    HS 3503   6.231  -0.104  17.104 -0.4738 -0.2430 -1.4561
   28DOPE   O21 3504   6.020  -0.103  17.060  0.3123 -0.4002  0.2133
   28DOPE   C21 3505   6.042   0.006  16.981  0.4493 -0.6850  0.1207
   28DOPE   O22 3506   6.144   0.073  16.997  0.1315 -0.2706 -0.2199
   28DOPE   C22 3507   5.925   0.047  16.891  0.1767 -0.4616 -0.1098
   28DOPE   H2R 3508   5.858   0.120  16.941 -0.4410  0.4306 -2.1234
   28DOPE   H2S 3509   5.874  -0.049  16.867  0.0488 -1.0255  2.1921
   28DOPE    C3 3510   6.160  -0.297  17.082 -0.8725 -0.4965  0.2785
   28DOPE    HX 3511   6.069  -0.350  17.117 -1.2533 -1.6466 -2.2638
   28DOPE    HY 3512   6.246  -0.335  17.142 -2.0840  0.8787  3.0895
   28DOPE   O31 3513   6.187  -0.293  16.941  0.0305 -0.2932 -0.3151
   28DOPE   C31 3514   6.151  -0.396  16.864 -0.6348 -0.2102 -0.5928
   28DOPE   O32 3515   6.078  -0.486  16.893  0.1184  0.3687  0.0758
   28DOPE   C32 3516   6.205  -0.378  16.716 -0.6656  0.5944  0.6892
   28DOPE   H2X 3517   6.272  -0.289  16.710  1.2755 -0.6493  2.5343
   28DOPE   H2Y 3518   6.265  -0.469  16.697 -3.1426 -0.4619 -3.4248
   28DOPE   C23 3519   5.974   0.092  16.753  0.1407 -0.4128  0.4236
   28DOPE   H3R 3520   6.065   0.032  16.730  1.7518  2.3059 -0.7999
   28DOPE   H3S 3521   6.013   0.194  16.774  0.9838 -1.1869  3.0839
   28DOPE   C24 3522   5.870   0.088  16.642  0.6791 -0.3762  0.6338
   28DOPE   H4R 3523   5.787   0.146  16.687 -0.5367 -2.4476  1.1675
   28DOPE   H4S 3524   5.823  -0.006  16.608 -2.8883  2.2696 -2.7075
   28DOPE   C25 3525   5.906   0.164  16.507 -0.4455 -0.3761  0.0555
   28DOPE   H5R 3526   5.996   0.117  16.463 -0.7132 -1.6610  0.8285
   28DOPE   H5S 3527   5.937   0.268  16.530 -0.9511  0.0035 -0.8866
   28DOPE   C26 3528   5.793   0.152  16.403 -0.1490 -0.2197 -0.4906
   28DOPE   H6R 3529   5.716   0.083  16.444 -0.3326  1.5363  2.3890
   28DOPE   H6S 3530   5.833   0.110  16.308 -0.7686 -0.2501 -0.7434
   28DOPE   C27 3531   5.716   0.286  16.380 -0.0032 -0.3024  0.4430
   28DOPE   H7R 3532   5.654   0.317  16.467  0.2216 -1.4880  1.0436
   28DOPE   H7S 3533   5.653   0.278  16.290 -1.9542 -0.9287  1.7915
   28DOPE   C28 3534   5.805   0.407  16.364 -0.5223  0.4977  0.1949
   28DOPE   H8R 3535   5.867   0.444  16.448 -0.5800  0.2344  0.3519
   28DOPE   H8S 3536   5.741   0.495  16.342 -0.6337  0.8025  1.6362
   28DOPE   C29 3537   5.908   0.384  16.258 -0.2884 -0.6801  0.1586
   28DOPE   H9R 3538   6.011   0.362  16.289 -0.9890 -0.4733  2.8619
   28DOPE  C210 3539   5.890   0.396  16.126  0.1855  0.2855 -0.0946
   28DOPE  H10R 3540   5.972   0.395  16.052 -0.2231  1.4548 -0.5921
   28DOPE  C211 3541   5.758   0.427  16.064 -0.7124 -0.9246 -0.2489
   28DOPE  H11R 3542   5.683   0.473  16.131 -0.2364 -1.4617  0.6639
   28DOPE  H11S 3543   5.708   0.333  16.031  2.2443 -2.6189 -0.2329
   28DOPE  C212 3544   5.778   0.517  15.939 -0.1235 -0.2693 -0.0387
   28DOPE  H12R 3545   5.815   0.618  15.967  0.3114 -0.3660 -0.2491
   28DOPE  H12S 3546   5.679   0.544  15.897  0.2749  1.1358 -0.1214
   28DOPE  C213 3547   5.853   0.450  15.814 -0.0665 -0.0421  0.0569
   28DOPE  H13R 3548   5.863   0.343  15.843 -0.4943 -0.2297 -0.4598
   28DOPE  H13S 3549   5.953   0.498  15.817 -0.7575  1.4526 -0.1970
   28DOPE  C214 3550   5.778   0.475  15.686  0.6330  0.0906 -0.0403
   28DOPE  H14R 3551   5.725   0.571  15.700  0.9825  0.0402  1.7902
   28DOPE  H14S 3552   5.696   0.401  15.678  0.1809  0.2731  2.2866
   28DOPE  C215 3553   5.856   0.472  15.558 -0.2289 -0.0914  0.7825
   28DOPE  H15R 3554   5.879   0.365  15.537 -2.2684 -0.0139 -2.4866
   28DOPE  H15S 3555   5.951   0.527  15.572 -1.5353  3.4709 -2.5401
   28DOPE  C216 3556   5.783   0.538  15.438  0.3414  0.1225  0.0723
   28DOPE  H16R 3557   5.800   0.648  15.429  0.7331  0.0497 -0.0968
   28DOPE  H16S 3558   5.672   0.535  15.450  0.3433 -0.1239  0.0196
   28DOPE  C217 3559   5.810   0.477  15.303 -0.7734  0.4123  0.5585
   28DOPE  H17R 3560   5.774   0.373  15.293  0.2747 -0.1209  1.9651
   28DOPE  H17S 3561   5.920   0.464  15.294 -1.1209 -2.2757 -0.5846
   28DOPE  C218 3562   5.768   0.561  15.185 -0.0068  0.3780 -0.0079
   28DOPE  H18R 3563   5.826   0.656  15.182  1.8436 -0.6992 -0.4353
   28DOPE  H18S 3564   5.658   0.569  15.175 -0.3312 -2.8872 -0.3473
   28DOPE  H18T 3565   5.795   0.503  15.094 -2.8485 -2.4142  0.7497
   28DOPE   C33 3566   6.080  -0.376  16.616 -0.0105  0.0448 -0.6581
   28DOPE   H3X 3567   6.015  -0.295  16.655  1.1089  0.2978  0.7662
   28DOPE   H3Y 3568   6.032  -0.475  16.631 -0.6753  0.6770  1.9326
   28DOPE   C34 3569   6.112  -0.352  16.467  0.3894 -0.5315 -0.0668
   28DOPE   H4X 3570   6.172  -0.259  16.459 -2.3541  1.3394 -0.1606
   28DOPE   H4Y 3571   6.168  -0.443  16.437  0.6884 -0.6062  0.6896
   28DOPE   C35 3572   5.975  -0.334  16.393 -0.3127  0.9062  0.1278
   28DOPE   H5X 3573   5.903  -0.288  16.463 -0.2418 -0.9947  1.5291
   28DOPE   H5Y 3574   5.941  -0.438  16.377  1.4289  0.1074  1.3053
   28DOPE   C36 3575   5.992  -0.251  16.267  0.4723  0.2332 -0.3963
   28DOPE   H6X 3576   6.057  -0.317  16.205 -0.3188 -1.5335  0.5814
   28DOPE   H6Y 3577   6.033  -0.152  16.296 -0.5116  0.8052 -0.8987
   28DOPE   C37 3578   5.857  -0.218  16.198  0.7439 -0.1973 -0.0634
   28DOPE   H7X 3579   5.809  -0.311  16.162  0.7204 -0.0871 -0.3250
   28DOPE   H7Y 3580   5.795  -0.162  16.271 -0.1463  0.5797 -1.3786
   28DOPE   C38 3581   5.863  -0.114  16.072 -0.6506 -0.3020 -0.7475
   28DOPE   H8X 3582   5.907  -0.017  16.103  0.0924 -1.1488  1.0036
   28DOPE   H8Y 3583   5.759  -0.081  16.052 -1.3534 -1.8758  0.1061
   28DOPE   C39 3584   5.908  -0.178  15.945  0.6824  0.0745 -0.2167
   28DOPE   H9X 3585   6.009  -0.221  15.949  0.9009  0.6393  0.4047
   28DOPE  C310 3586   5.841  -0.189  15.830  0.3347  0.0047 -0.1757
   28DOPE  H10X 3587   5.890  -0.244  15.749  2.9366 -1.2891  2.1074
   28DOPE  C311 3588   5.706  -0.124  15.795  0.1763 -0.1941  0.4977
   28DOPE  H11X 3589   5.653  -0.192  15.726  1.9121  0.2474 -1.3604
   28DOPE  H11Y 3590   5.644  -0.103  15.885 -0.0496  1.9222 -0.0947
   28DOPE  C312 3591   5.717   0.016  15.727  0.6496  0.2189 -0.1645
   28DOPE  H12X 3592   5.786   0.074  15.792  0.8007  1.6185 -1.5246
   28DOPE  H12Y 3593   5.615   0.059  15.718 -0.1369 -1.6767 -0.8284
   28DOPE  C313 3594   5.789   0.012  15.591  0.1170  0.0941  0.3144
   28DOPE  H13X 3595   5.771   0.109  15.540  2.0378 -0.0089 -0.6892
   28DOPE  H13Y 3596   5.899   0.004  15.610  0.0729  1.7785  1.4058
   28DOPE  C314 3597   5.743  -0.100  15.494  0.1880 -0.3227  0.2683
   28DOPE  H14X 3598   5.633  -0.094  15.484  0.3499  0.4882 -1.3526
   28DOPE  H14Y 3599   5.760  -0.203  15.532 -2.4080 -0.3265  1.6201
   28DOPE  C315 3600   5.789  -0.094  15.347 -0.2103 -0.1119 -0.1041
   28DOPE  H15X 3601   5.892  -0.137  15.350 -0.9102 -1.8448  1.8205
   28DOPE  H15Y 3602   5.795   0.008  15.304  1.0273  0.2967  0.9387
   28DOPE  C316 3603   5.717  -0.191  15.263 -1.5366 -0.4610  0.5335
   28DOPE  H16X 3604   5.707  -0.291  15.310 -1.7423 -0.7578 -0.1416
   28DOPE  H16Y 3605   5.781  -0.213  15.176 -2.0500 -0.2634  0.1035
   28DOPE  C317 3606   5.579  -0.143  15.216 -0.4825  0.1910 -0.4019
   28DOPE  H17X 3607   5.516  -0.114  15.303 -1.4670 -0.0591 -1.0189
   28DOPE  H17Y 3608   5.598  -0.045  15.167 -1.6568  0.4559 -0.3591
   28DOPE  C318 3609   5.515  -0.234  15.118  0.4423 -0.7474 -0.1713
   28DOPE  H18X 3610   5.587  -0.240  15.033  1.2030  0.5644  0.3560
   28DOPE  H18Y 3611   5.509  -0.333  15.168  0.9545  0.6394  2.8332
   28DOPE  H18Z 3612   5.416  -0.194  15.089  1.7347  0.8897 -2.7298
   29DOPE     N 3613   0.417   1.501  17.603  0.2087 -0.0173  0.6033
   29DOPE   HN1 3614   0.486   1.456  17.666 -1.2296 -1.1972  1.3992
   29DOPE   HN2 3615   0.442   1.601  17.585 -3.8374  1.1708  0.6374
   29DOPE   HN3 3616   0.321   1.524  17.637  0.6681  4.8323 -0.5466
   29DOPE   C12 3617   0.391   1.426  17.469  0.1677  0.2917 -0.3660
   29DOPE  H12A 3618   0.414   1.319  17.483  2.6598  0.9539  1.2728
   29DOPE  H12B 3619   0.475   1.456  17.404  1.0763 -2.6767 -0.6768
   29DOPE   C11 3620   0.249   1.465  17.413  0.0849  0.9502  0.5019
   29DOPE  H11A 3621   0.229   1.414  17.316 -1.4425  2.5033 -0.0500
   29DOPE  H11B 3622   0.240   1.575  17.398  0.4324  0.9314  0.1475
   29DOPE     P 3623   0.090   1.294  17.550  0.0017 -0.1527  0.0492
   29DOPE   O13 3624  -0.023   1.314  17.648  0.3741 -0.0745 -0.3240
   29DOPE   O14 3625   0.194   1.188  17.573 -0.4622 -0.4527  0.3143
   29DOPE   O11 3626   0.011   1.261  17.417  0.1234 -0.2824  0.0513
   29DOPE   O12 3627   0.151   1.435  17.510 -0.5655  0.0976 -0.0621
   29DOPE    C1 3628  -0.080   1.356  17.358 -0.3458  0.3507 -0.0010
   29DOPE    HA 3629  -0.033   1.453  17.331  3.6401 -1.3842 -0.0246
   29DOPE    HB 3630  -0.158   1.384  17.433 -1.9049 -0.8704 -1.1179
   29DOPE    C2 3631  -0.152   1.294  17.235 -1.0325 -0.1471  0.0313
   29DOPE    HS 3632  -0.201   1.200  17.269 -0.1754  0.0294  1.8685
   29DOPE   O21 3633  -0.055   1.256  17.135  0.3579 -0.1927  0.8754
   29DOPE   C21 3634  -0.113   1.182  17.043  0.4255 -0.4057 -0.0936
   29DOPE   O22 3635  -0.214   1.117  17.052  0.2547 -0.2514 -0.1208
   29DOPE   C22 3636  -0.034   1.196  16.914 -0.6889 -0.2300 -0.6760
   29DOPE   H2R 3637  -0.051   1.106  16.852  1.2714 -0.5257 -0.8600
   29DOPE   H2S 3638   0.074   1.190  16.942 -1.0990 -0.6315  0.9382
   29DOPE    C3 3639  -0.258   1.391  17.181  0.3120  0.3335  1.3265
   29DOPE    HX 3640  -0.327   1.428  17.260 -0.2796  0.7310  0.6403
   29DOPE    HY 3641  -0.334   1.344  17.115  1.8237 -0.5282  0.1216
   29DOPE   O31 3642  -0.200   1.487  17.094 -0.3745 -0.6181  0.1820
   29DOPE   C31 3643  -0.191   1.610  17.143 -0.5633  0.0552  0.7102
   29DOPE   O32 3644  -0.225   1.649  17.251 -0.4264  0.0981  0.0951
   29DOPE   C32 3645  -0.135   1.696  17.030  0.3869  0.0770  0.6777
   29DOPE   H2X 3646  -0.027   1.672  17.023  0.2884 -0.0931 -0.3753
   29DOPE   H2Y 3647  -0.191   1.658  16.942 -2.2132  1.1944  1.7648
   29DOPE   C23 3648  -0.064   1.328  16.846  0.7942  0.1110 -0.2842
   29DOPE   H3R 3649  -0.006   1.414  16.887  1.9574 -0.3567 -0.8848
   29DOPE   H3S 3650  -0.173   1.345  16.853  0.1588 -2.7839 -1.6399
   29DOPE   C24 3651  -0.058   1.325  16.691  0.6070  0.0915  0.3787
   29DOPE   H4R 3652  -0.129   1.255  16.643 -1.4466  0.8014  2.2228
   29DOPE   H4S 3653   0.045   1.301  16.658  0.2337  3.1389 -3.8501
   29DOPE   C25 3654  -0.097   1.463  16.637  0.2303 -0.1125 -0.2997
   29DOPE   H5R 3655  -0.029   1.542  16.675 -1.8199  1.4930  0.1948
   29DOPE   H5S 3656  -0.198   1.487  16.676  1.3114  0.1614  2.5961
   29DOPE   C26 3657  -0.084   1.483  16.488  0.5453  0.2671  0.5487
   29DOPE   H6R 3658   0.000   1.418  16.456 -0.7698 -0.6901 -1.1717
   29DOPE   H6S 3659  -0.049   1.588  16.477 -0.0072  0.4783  0.7593
   29DOPE   C27 3660  -0.221   1.476  16.417 -0.5418  0.5837  0.4565
   29DOPE   H7R 3661  -0.282   1.568  16.423 -1.1565  0.1567  0.8812
   29DOPE   H7S 3662  -0.281   1.404  16.477  1.5839 -0.3277  1.5772
   29DOPE   C28 3663  -0.200   1.412  16.272  0.4412 -0.1874  0.3105
   29DOPE   H8R 3664  -0.294   1.366  16.233  0.5589  0.0120 -0.2143
   29DOPE   H8S 3665  -0.133   1.324  16.284  1.4498  0.6497  0.9548
   29DOPE   C29 3666  -0.138   1.497  16.167 -0.6230  0.3796 -0.5419
   29DOPE   H9R 3667  -0.030   1.520  16.173 -0.4901 -0.3975  0.5662
   29DOPE  C210 3668  -0.198   1.568  16.071 -0.2740  0.1902  0.2294
   29DOPE  H10R 3669  -0.127   1.623  16.008  1.7867 -2.5263 -0.0102
   29DOPE  C211 3670  -0.344   1.578  16.033 -0.7378  0.8292 -0.1200
   29DOPE  H11R 3671  -0.408   1.571  16.124  1.3136  2.6340  1.5760
   29DOPE  H11S 3672  -0.372   1.488  15.975 -0.8146  1.1138 -0.5274
   29DOPE  C212 3673  -0.385   1.705  15.962 -0.2148 -0.0702  0.0509
   29DOPE  H12R 3674  -0.314   1.725  15.879  0.2044 -2.7074 -0.3077
   29DOPE  H12S 3675  -0.383   1.785  16.039 -0.8597 -1.0066  1.0823
   29DOPE  C213 3676  -0.525   1.681  15.907  0.5077  0.4125  0.6709
   29DOPE  H13R 3677  -0.603   1.683  15.986  0.7603  0.6091  0.9166
   29DOPE  H13S 3678  -0.530   1.583  15.854 -0.4686  1.8044 -1.9874
   29DOPE  C214 3679  -0.557   1.782  15.796 -0.5468 -0.4051  0.3671
   29DOPE  H14R 3680  -0.472   1.783  15.725 -1.7828  0.6078 -1.1760
   29DOPE  H14S 3681  -0.558   1.886  15.834  1.8836 -0.4059  0.5892
   29DOPE  C215 3682  -0.678   1.753  15.711  0.4493 -0.1085  0.6381
   29DOPE  H15R 3683  -0.765   1.747  15.780  0.1960  0.7546  0.4114
   29DOPE  H15S 3684  -0.656   1.658  15.659 -1.8628  0.7555 -2.1968
   29DOPE  C216 3685  -0.709   1.861  15.607 -0.3934 -0.2308  0.3086
   29DOPE  H16R 3686  -0.620   1.887  15.547 -2.3629  0.2189 -2.6123
   29DOPE  H16S 3687  -0.763   1.940  15.663 -1.8208 -0.2535 -0.9583
   29DOPE  C217 3688  -0.807   1.824  15.494 -0.2933 -0.5835 -0.1417
   29DOPE  H17R 3689  -0.840   1.911  15.433  1.1015 -1.0140 -1.5678
   29DOPE  H17S 3690  -0.905   1.786  15.531 -0.0818  0.7784  2.0034
   29DOPE  C218 3691  -0.760   1.730  15.381 -0.0819 -0.7708  0.0594
   29DOPE  H18R 3692  -0.662   1.764  15.340  0.7387 -1.3211  1.5018
   29DOPE  H18S 3693  -0.832   1.727  15.296 -1.9141  0.1677  1.5085
   29DOPE  H18T 3694  -0.747   1.623  15.405  3.7985 -0.7125 -1.0813
   29DOPE   C33 3695  -0.152   1.849  17.045 -0.4365  0.0615  0.3270
   29DOPE   H3X 3696  -0.109   1.875  17.144  0.6195 -0.3155 -0.0228
   29DOPE   H3Y 3697  -0.258   1.882  17.034  0.1237  1.8965  0.0334
   29DOPE   C34 3698  -0.053   1.924  16.955 -0.1053 -0.6370 -0.0685
   29DOPE   H4X 3699  -0.074   2.032  16.970  0.6705 -0.3010 -1.2722
   29DOPE   H4Y 3700   0.048   1.899  16.995  0.7578  0.7380 -1.2679
   29DOPE   C35 3701  -0.068   1.892  16.807 -0.2554 -0.6819  0.9140
   29DOPE   H5X 3702  -0.033   1.788  16.789 -0.1959 -0.2859 -1.5650
   29DOPE   H5Y 3703  -0.003   1.965  16.753 -1.2207 -0.4848  0.0038
   29DOPE   C36 3704  -0.204   1.899  16.739  0.7899 -0.5571  0.0098
   29DOPE   H6X 3705  -0.224   2.006  16.715 -0.5130 -0.5753  0.8600
   29DOPE   H6Y 3706  -0.281   1.870  16.814 -0.8289  1.8710 -0.6003
   29DOPE   C37 3707  -0.211   1.842  16.593 -0.6802  0.1596  0.2278
   29DOPE   H7X 3708  -0.191   1.734  16.614  0.2588  0.4177  0.6842
   29DOPE   H7Y 3709  -0.312   1.838  16.548  0.3083  2.8354 -2.5686
   29DOPE   C38 3710  -0.111   1.899  16.487 -0.0833 -0.3147  0.1438
   29DOPE   H8X 3711  -0.098   1.822  16.408 -0.9747  2.0350 -2.4993
   29DOPE   H8Y 3712  -0.013   1.915  16.535 -0.8851 -0.1180  1.7693
   29DOPE   C39 3713  -0.173   2.027  16.437  0.0488  0.3495  0.1065
   29DOPE   H9X 3714  -0.193   2.092  16.524  0.9417 -1.2156  1.5495
   29DOPE  C310 3715  -0.185   2.064  16.308 -0.6107 -0.0403 -0.3558
   29DOPE  H10X 3716  -0.229   2.162  16.285 -0.0725  0.7453  1.7472
   29DOPE  C311 3717  -0.130   1.990  16.190  0.0386 -0.1055 -0.6065
   29DOPE  H11X 3718  -0.021   2.010  16.185 -0.3829  2.8622 -0.0874
   29DOPE  H11Y 3719  -0.143   1.880  16.191 -0.3516 -0.1440 -2.9092
   29DOPE  C312 3720  -0.196   2.043  16.066 -0.0069 -0.5926  0.3496
   29DOPE  H12X 3721  -0.183   2.154  16.061  0.9003 -0.6963  0.2469
   29DOPE  H12Y 3722  -0.301   2.009  16.054 -0.2798 -0.0327  1.0967
   29DOPE  C313 3723  -0.131   1.995  15.932  0.0030 -0.1883 -0.5688
   29DOPE  H13X 3724  -0.029   2.036  15.920 -0.8737  2.9787  1.5493
   29DOPE  H13Y 3725  -0.133   1.884  15.941 -2.2514 -0.2139 -0.7921
   29DOPE  C314 3726  -0.216   2.016  15.807  0.1901  0.1742  0.7629
   29DOPE  H14X 3727  -0.230   2.124  15.788  0.7859  0.0670 -0.3983
   29DOPE  H14Y 3728  -0.315   1.965  15.808  1.1631 -1.8303  0.1023
   29DOPE  C315 3729  -0.143   1.945  15.692 -0.4529  0.4504  0.2046
   29DOPE  H15X 3730  -0.102   1.848  15.726  0.8072 -0.0172 -2.3779
   29DOPE  H15Y 3731  -0.050   1.997  15.660  0.9629 -2.3468 -0.5496
   29DOPE  C316 3732  -0.227   1.912  15.566 -0.5360 -0.3863  0.3511
   29DOPE  H16X 3733  -0.323   1.864  15.594 -0.9947  1.2026  1.7068
   29DOPE  H16Y 3734  -0.173   1.836  15.505  2.0589  1.9196 -0.4534
   29DOPE  C317 3735  -0.257   2.033  15.476 -0.2830  0.3465  0.2890
   29DOPE  H17X 3736  -0.215   2.129  15.514  0.1228  0.5360 -0.6232
   29DOPE  H17Y 3737  -0.207   2.011  15.380 -2.1418 -1.8407 -0.2616
   29DOPE  C318 3738  -0.407   2.062  15.445 -0.3123 -0.7567  0.0829
   29DOPE  H18X 3739  -0.446   1.988  15.372  0.9079 -2.2993  0.9270
   29DOPE  H18Y 3740  -0.474   2.079  15.532 -0.9656  2.4086 -0.8986
   29DOPE  H18Z 3741  -0.399   2.159  15.391 -0.5163 -0.7999 -0.0226
   30DOPE     N 3742   1.682   0.387  17.441  0.4565  0.4446  0.2886
   30DOPE   HN1 3743   1.754   0.408  17.370 -1.2697  1.8377 -1.1642
   30DOPE   HN2 3744   1.665   0.284  17.444  0.3391  0.4622  0.2155
   30DOPE   HN3 3745   1.600   0.427  17.391  0.7887  0.0433 -0.5972
   30DOPE   C12 3746   1.715   0.445  17.576  0.3553 -1.2168  0.6564
   30DOPE  H12A 3747   1.728   0.555  17.573  0.6587 -1.2166  1.5501
   30DOPE  H12B 3748   1.804   0.394  17.618  2.1119  0.9543 -0.2567
   30DOPE   C11 3749   1.598   0.425  17.675  0.0508  0.4541 -0.3033
   30DOPE  H11A 3750   1.631   0.462  17.775  0.3051 -1.3511  0.3150
   30DOPE  H11B 3751   1.577   0.319  17.698 -1.2797  1.1194  1.8584
   30DOPE     P 3752   1.421   0.619  17.674  0.0156 -0.1741  0.0464
   30DOPE   O13 3753   1.528   0.725  17.670 -0.3273  0.6905  0.1090
   30DOPE   O14 3754   1.351   0.606  17.806 -0.1024 -0.3915  0.5831
   30DOPE   O11 3755   1.315   0.652  17.561  0.2245 -0.2861  0.3830
   30DOPE   O12 3756   1.478   0.483  17.618  0.2529  0.1688 -0.3425
   30DOPE    C1 3757   1.203   0.572  17.530  0.3130 -0.1737 -0.0297
   30DOPE    HA 3758   1.111   0.633  17.530 -0.2145 -0.9488 -0.8055
   30DOPE    HB 3759   1.192   0.482  17.594 -1.7723 -0.5615 -0.8526
   30DOPE    C2 3760   1.203   0.515  17.385  0.0897  0.0213 -0.5695
   30DOPE    HS 3761   1.265   0.423  17.375 -1.8085 -1.1986 -1.6074
   30DOPE   O21 3762   1.262   0.612  17.297 -0.7533  0.1227  0.3692
   30DOPE   C21 3763   1.391   0.595  17.258 -0.1722 -0.1213 -0.7871
   30DOPE   O22 3764   1.457   0.495  17.279 -0.3696 -0.0360 -0.2438
   30DOPE   C22 3765   1.437   0.717  17.186 -0.0816 -0.3310  0.3392
   30DOPE   H2R 3766   1.538   0.696  17.145 -0.1501 -0.7536  0.3870
   30DOPE   H2S 3767   1.445   0.793  17.268 -0.5872 -0.1905  0.2652
   30DOPE    C3 3768   1.061   0.476  17.344 -0.5503 -0.4340 -0.3192
   30DOPE    HX 3769   1.005   0.572  17.340  1.6580  0.8723 -2.0622
   30DOPE    HY 3770   1.010   0.404  17.412 -2.2910  1.0839  0.0387
   30DOPE   O31 3771   1.060   0.423  17.211  0.7399  0.3076  0.2646
   30DOPE   C31 3772   1.029   0.506  17.114 -0.1344  0.6437  0.3308
   30DOPE   O32 3773   0.979   0.620  17.125 -0.2415  0.2212 -0.1524
   30DOPE   C32 3774   1.073   0.440  16.979  0.1972 -0.4038 -0.0119
   30DOPE   H2X 3775   1.183   0.428  16.982  0.0108 -2.4582  0.1181
   30DOPE   H2Y 3776   1.015   0.345  16.980 -1.4203  0.5012  2.3946
   30DOPE   C23 3777   1.347   0.769  17.069  0.5937  0.4992 -1.2882
   30DOPE   H3R 3778   1.243   0.774  17.106  0.7725  0.4979 -0.7768
   30DOPE   H3S 3779   1.338   0.685  16.997  0.2936 -1.6783  1.1565
   30DOPE   C24 3780   1.394   0.904  17.006  0.2923  0.2369 -0.2283
   30DOPE   H4R 3781   1.503   0.900  16.987  0.4976 -0.4741  1.0480
   30DOPE   H4S 3782   1.374   0.986  17.078  1.5558  1.2201 -0.9545
   30DOPE   C25 3783   1.317   0.938  16.878 -0.6332  0.5910 -0.2408
   30DOPE   H5R 3784   1.312   1.048  16.861 -1.7234  0.7108  0.7501
   30DOPE   H5S 3785   1.213   0.898  16.875 -0.6187  0.5898 -1.5270
   30DOPE   C26 3786   1.397   0.894  16.752 -0.2671 -0.8967  0.2572
   30DOPE   H6R 3787   1.438   0.794  16.779 -0.8276 -0.8799  1.2179
   30DOPE   H6S 3788   1.486   0.960  16.746 -0.5091 -0.6577 -0.9121
   30DOPE   C27 3789   1.317   0.905  16.624  0.5124 -0.3903 -0.6116
   30DOPE   H7R 3790   1.308   1.014  16.606  1.1528  0.0485  1.4610
   30DOPE   H7S 3791   1.218   0.866  16.656  0.3099  1.6001  1.4778
   30DOPE   C28 3792   1.381   0.843  16.500  0.1192  0.2544 -0.5502
   30DOPE   H8R 3793   1.321   0.870  16.411 -0.1012 -1.0607 -0.8222
   30DOPE   H8S 3794   1.387   0.733  16.514 -0.4664  0.1931 -0.7536
   30DOPE   C29 3795   1.524   0.890  16.476  0.1485 -0.9475  0.8014
   30DOPE   H9R 3796   1.581   0.918  16.566  1.6104  2.2393 -0.9383
   30DOPE  C210 3797   1.588   0.923  16.359 -0.6585 -0.5907 -0.4809
   30DOPE  H10R 3798   1.685   0.975  16.362 -0.9675  0.1043 -1.8837
   30DOPE  C211 3799   1.526   0.921  16.218  0.0597  0.8159 -0.4147
   30DOPE  H11R 3800   1.418   0.892  16.221 -0.1694  1.6301 -0.5139
   30DOPE  H11S 3801   1.585   0.851  16.156 -0.0271  1.0632 -0.7788
   30DOPE  C212 3802   1.544   1.063  16.149 -0.3583  0.5076  0.0231
   30DOPE  H12R 3803   1.649   1.100  16.157 -0.0623  1.2542 -4.6348
   30DOPE  H12S 3804   1.476   1.135  16.200 -2.0187 -1.6114  0.9422
   30DOPE  C213 3805   1.521   1.060  16.002 -0.1252  0.2396 -0.1564
   30DOPE  H13R 3806   1.568   0.971  15.956  0.2652  0.9448 -1.1480
   30DOPE  H13S 3807   1.561   1.148  15.947  1.0539 -1.1727 -1.6414
   30DOPE  C214 3808   1.372   1.038  15.972  0.0357 -0.5943  0.4913
   30DOPE  H14R 3809   1.306   1.105  16.032 -1.7672 -1.5996 -0.2967
   30DOPE  H14S 3810   1.337   0.941  16.014  1.9795 -1.8142 -0.5477
   30DOPE  C215 3811   1.333   1.051  15.823  0.4380  0.2391  0.6702
   30DOPE  H15R 3812   1.222   1.057  15.825  0.4514  0.4000  1.1678
   30DOPE  H15S 3813   1.365   0.966  15.759 -1.6513 -1.2532  1.4873
   30DOPE  C216 3814   1.380   1.181  15.762  0.1595  0.3051 -0.5289
   30DOPE  H16R 3815   1.485   1.167  15.729  0.0934 -1.9377  0.0509
   30DOPE  H16S 3816   1.378   1.264  15.836  0.0970 -1.3687  1.4291
   30DOPE  C217 3817   1.294   1.227  15.644 -0.9803  0.1096  0.0128
   30DOPE  H17R 3818   1.325   1.332  15.623  0.7545 -0.5052 -0.6972
   30DOPE  H17S 3819   1.189   1.236  15.680 -0.6657  1.7650  0.6061
   30DOPE  C218 3820   1.288   1.126  15.527 -0.1465 -0.8042  0.5482
   30DOPE  H18R 3821   1.206   1.160  15.461  0.9496  2.0063  0.4952
   30DOPE  H18S 3822   1.268   1.024  15.566 -0.1072 -0.8316  0.4981
   30DOPE  H18T 3823   1.381   1.115  15.466 -0.2246  1.7835 -0.1712
   30DOPE   C33 3824   1.029   0.522  16.858 -0.5823  0.1397 -0.5462
   30DOPE   H3X 3825   1.076   0.621  16.877 -0.7498 -0.1929  1.8644
   30DOPE   H3Y 3826   0.919   0.534  16.855 -1.2694 -4.0314  1.3696
   30DOPE   C34 3827   1.088   0.458  16.729  0.2404  0.5036  0.4672
   30DOPE   H4X 3828   1.198   0.440  16.735  0.1782  0.2876  1.0103
   30DOPE   H4Y 3829   1.036   0.359  16.733  1.0929 -0.1192 -1.9166
   30DOPE   C35 3830   1.037   0.541  16.612  0.8815 -0.2147 -0.0975
   30DOPE   H5X 3831   1.071   0.645  16.628  0.3608 -0.1152  0.3785
   30DOPE   H5Y 3832   0.928   0.535  16.594  0.8146 -0.6549  0.4121
   30DOPE   C36 3833   1.112   0.499  16.489  0.3255  0.2127  0.2043
   30DOPE   H6X 3834   1.095   0.394  16.458 -1.5647  0.2754  0.8775
   30DOPE   H6Y 3835   1.220   0.516  16.509 -0.0802  0.4418  2.4173
   30DOPE   C37 3836   1.058   0.565  16.360 -0.2220  0.8346 -0.1051
   30DOPE   H7X 3837   0.956   0.528  16.337  0.0636 -1.5134  1.9075
   30DOPE   H7Y 3838   1.059   0.676  16.369 -0.9997  0.8443 -0.1107
   30DOPE   C38 3839   1.143   0.521  16.236 -0.2161 -0.3878 -0.6894
   30DOPE   H8X 3840   1.143   0.413  16.211  3.0727 -0.6296  0.0081
   30DOPE   H8Y 3841   1.247   0.544  16.266 -0.6424  0.4791  0.1886
   30DOPE   C39 3842   1.097   0.597  16.113  0.1648  0.9304  0.1568
   30DOPE   H9X 3843   0.991   0.625  16.120 -0.6443 -1.4021 -1.6328
   30DOPE  C310 3844   1.153   0.613  15.991 -0.8023  0.7764  0.0036
   30DOPE  H10X 3845   1.103   0.677  15.918 -2.2796  1.3039  1.4249
   30DOPE  C311 3846   1.299   0.574  15.962 -0.6478 -0.8583  0.1604
   30DOPE  H11X 3847   1.361   0.666  15.954  0.0566 -1.3356 -0.0028
   30DOPE  H11Y 3848   1.339   0.516  16.048 -0.8591 -2.9210 -1.0682
   30DOPE  C312 3849   1.303   0.501  15.833  0.6244  0.5388 -0.1739
   30DOPE  H12X 3850   1.236   0.413  15.831  0.1843  0.8769 -1.8810
   30DOPE  H12Y 3851   1.405   0.458  15.821 -0.1210 -0.8234 -2.4607
   30DOPE  C313 3852   1.255   0.587  15.712 -0.3687  0.2722 -0.6332
   30DOPE  H13X 3853   1.148   0.617  15.721  0.4448  3.1488  0.3292
   30DOPE  H13Y 3854   1.313   0.681  15.706  0.8980 -0.5179 -1.1878
   30DOPE  C314 3855   1.293   0.518  15.586 -0.4540 -0.1847  0.2960
   30DOPE  H14X 3856   1.230   0.427  15.579  0.7312 -1.1192  1.2852
   30DOPE  H14Y 3857   1.398   0.487  15.603 -0.2617  0.4874  0.3967
   30DOPE  C315 3858   1.289   0.611  15.465  0.0312 -0.0234 -0.3667
   30DOPE  H15X 3859   1.342   0.706  15.485 -1.3567  0.7550 -0.3299
   30DOPE  H15Y 3860   1.183   0.637  15.446 -0.6330 -1.3062  1.3360
   30DOPE  C316 3861   1.336   0.554  15.331 -0.8986 -0.1291 -0.0094
   30DOPE  H16X 3862   1.326   0.642  15.263 -2.3115 -1.3891 -1.5144
   30DOPE  H16Y 3863   1.266   0.473  15.303  0.9529 -2.4643  1.7360
   30DOPE  C317 3864   1.477   0.495  15.334  0.2515 -0.7407  0.0933
   30DOPE  H17X 3865   1.531   0.556  15.410 -1.8158  2.2944 -0.7088
   30DOPE  H17Y 3866   1.469   0.387  15.361 -1.6672 -0.9119 -1.0059
   30DOPE  C318 3867   1.553   0.499  15.197 -0.3951  1.0654  0.1867
   30DOPE  H18X 3868   1.527   0.401  15.152  0.3527  0.8627  0.1938
   30DOPE  H18Y 3869   1.535   0.583  15.126  1.4747 -0.2255 -1.9319
   30DOPE  H18Z 3870   1.663   0.495  15.210 -0.4769  0.9314  0.8511
   31DOPE     N 3871   1.411   4.678  12.557  0.2637 -0.2955  0.3036
   31DOPE   HN1 3872   1.406   4.778  12.587 -0.9200 -0.3275  0.2507
   31DOPE   HN2 3873   1.441   4.632  12.646  0.4785  0.4651  0.6361
   31DOPE   HN3 3874   1.489   4.670  12.488  0.9228 -1.5243  1.1459
   31DOPE   C12 3875   1.271   4.636  12.506 -0.5496  0.3113 -0.0856
   31DOPE  H12A 3876   1.237   4.717  12.438 -0.7338  0.7022  0.4593
   31DOPE  H12B 3877   1.200   4.639  12.592 -0.3863 -0.3173  0.0713
   31DOPE   C11 3878   1.263   4.495  12.445  0.5382  0.2570  0.2355
   31DOPE  H11A 3879   1.327   4.483  12.355  2.5062  0.0097  1.5932
   31DOPE  H11B 3880   1.160   4.468  12.413  1.4178 -1.1529 -1.6019
   31DOPE     P 3881   1.318   4.250  12.520  0.3713  0.1453 -0.2401
   31DOPE   O13 3882   1.463   4.218  12.520  0.0295 -0.3612  0.1065
   31DOPE   O14 3883   1.232   4.219  12.407  0.1926 -0.2997 -0.6664
   31DOPE   O11 3884   1.260   4.171  12.643  0.0629  0.0782  0.0038
   31DOPE   O12 3885   1.299   4.399  12.550 -0.4381 -0.3117  0.3069
   31DOPE    C1 3886   1.225   4.235  12.767  1.3056 -0.4701  0.0720
   31DOPE    HA 3887   1.142   4.178  12.812 -0.5944  0.8565 -1.5740
   31DOPE    HB 3888   1.188   4.338  12.747 -0.0998 -0.7678  1.0174
   31DOPE    C2 3889   1.346   4.252  12.860 -0.7619  0.9606 -0.8752
   31DOPE    HS 3890   1.428   4.306  12.807  0.4623  0.7956  0.7885
   31DOPE   O21 3891   1.388   4.122  12.903 -0.4055 -0.3813  0.0340
   31DOPE   C21 3892   1.522   4.102  12.922 -0.0297  0.3931 -0.2731
   31DOPE   O22 3893   1.607   4.179  12.887 -0.3695 -0.2765  0.3371
   31DOPE   C22 3894   1.543   3.964  12.978 -0.0048 -0.3222  0.4973
   31DOPE   H2R 3895   1.519   3.893  12.896 -1.3786  0.9738 -0.2614
   31DOPE   H2S 3896   1.466   3.939  13.054  0.1176  0.3998  0.8725
   31DOPE    C3 3897   1.319   4.335  12.991  0.1778  0.5431  0.0011
   31DOPE    HX 3898   1.286   4.432  12.949 -3.6242 -0.4307  0.3950
   31DOPE    HY 3899   1.410   4.362  13.048  1.4151 -0.4521 -1.4352
   31DOPE   O31 3900   1.214   4.278  13.077 -0.6391  0.8559 -0.1738
   31DOPE   C31 3901   1.257   4.205  13.188  0.2397  0.1053  0.4190
   31DOPE   O32 3902   1.372   4.178  13.217  0.5835 -0.1891  0.9057
   31DOPE   C32 3903   1.134   4.139  13.248  1.1176  0.5961 -0.0118
   31DOPE   H2X 3904   1.076   4.224  13.290  0.1230  0.9866 -2.0333
   31DOPE   H2Y 3905   1.072   4.086  13.173  1.7208 -0.4804  0.2284
   31DOPE   C23 3906   1.688   3.946  13.028  0.7405 -0.0646  0.1330
   31DOPE   H3R 3907   1.763   3.981  12.953  1.2086 -1.3006 -0.0110
   31DOPE   H3S 3908   1.732   3.844  13.032  0.5678 -0.1150  0.7946
   31DOPE   C24 3909   1.718   4.009  13.166 -0.5580 -0.2813  0.1329
   31DOPE   H4R 3910   1.701   4.119  13.163  0.0175 -0.1314  1.4813
   31DOPE   H4S 3911   1.824   3.997  13.196 -0.6860  2.3175  2.0624
   31DOPE   C25 3912   1.629   3.949  13.277 -0.2888 -0.3704  0.2773
   31DOPE   H5R 3913   1.635   3.838  13.273  0.9949 -0.3524  1.1034
   31DOPE   H5S 3914   1.523   3.977  13.256  0.1185 -1.3488 -3.8342
   31DOPE   C26 3915   1.665   4.012  13.415  0.0243  0.1573  0.5770
   31DOPE   H6R 3916   1.662   4.123  13.410 -0.9529  0.1651  1.0406
   31DOPE   H6S 3917   1.770   3.989  13.442  0.9301  2.4391 -0.7300
   31DOPE   C27 3918   1.565   3.963  13.527  0.6446  0.5399 -0.4461
   31DOPE   H7R 3919   1.585   3.856  13.549 -3.0430 -0.4000 -1.0753
   31DOPE   H7S 3920   1.458   3.973  13.499  0.6687  1.7015 -0.1882
   31DOPE   C28 3921   1.574   4.039  13.660 -0.3745  0.3949  0.4024
   31DOPE   H8R 3922   1.517   3.974  13.729  2.5191 -0.7692  1.8978
   31DOPE   H8S 3923   1.512   4.131  13.658 -1.5779 -0.3412  1.9578
   31DOPE   C29 3924   1.708   4.067  13.722  0.0339 -0.2547  0.2178
   31DOPE   H9R 3925   1.789   4.088  13.649  0.8861 -1.4234  0.7925
   31DOPE  C210 3926   1.747   4.058  13.849 -0.1020  0.2499 -0.7646
   31DOPE  H10R 3927   1.832   4.119  13.882 -2.0967  3.0477 -0.3982
   31DOPE  C211 3928   1.651   4.026  13.959  0.2876 -0.2960 -0.0251
   31DOPE  H11R 3929   1.655   3.915  13.973  1.8449 -0.5244 -1.8446
   31DOPE  H11S 3930   1.543   4.036  13.936  0.1062 -2.5354 -0.4563
   31DOPE  C212 3931   1.688   4.084  14.098 -0.4033 -0.4331  0.8237
   31DOPE  H12R 3932   1.673   4.194  14.099  4.0127  0.3553 -0.3676
   31DOPE  H12S 3933   1.797   4.082  14.116 -0.0952 -1.9627 -0.9193
   31DOPE  C213 3934   1.617   4.021  14.210 -0.2044 -0.9151 -0.8399
   31DOPE  H13R 3935   1.633   3.912  14.201  0.4204 -1.1349  2.0037
   31DOPE  H13S 3936   1.509   4.044  14.211  0.2626  1.6071  0.7874
   31DOPE  C214 3937   1.675   4.046  14.351  0.7645  0.7136 -0.4185
   31DOPE  H14R 3938   1.643   4.147  14.385 -0.6045  0.9099 -2.1098
   31DOPE  H14S 3939   1.785   4.034  14.348  0.4388 -3.4647 -1.4292
   31DOPE  C215 3940   1.619   3.938  14.447 -0.1999  0.4661  0.3941
   31DOPE  H15R 3941   1.624   3.840  14.396 -1.0927  1.0848 -0.9402
   31DOPE  H15S 3942   1.512   3.957  14.474 -0.4756  2.3687 -1.7639
   31DOPE  C216 3943   1.695   3.943  14.582  0.4371  0.3978  0.1937
   31DOPE  H16R 3944   1.692   4.041  14.635  1.3720  0.7457 -0.3621
   31DOPE  H16S 3945   1.802   3.923  14.559  0.1900  0.1551 -0.7910
   31DOPE  C217 3946   1.634   3.847  14.680 -0.0652  0.0855 -0.5262
   31DOPE  H17R 3947   1.539   3.898  14.707  0.5785  0.9135  0.2404
   31DOPE  H17S 3948   1.696   3.832  14.771 -1.3550 -0.5887  0.2693
   31DOPE  C218 3949   1.600   3.706  14.626 -0.1431  0.2940  0.4579
   31DOPE  H18R 3950   1.684   3.680  14.558  1.0692  1.1323  1.5798
   31DOPE  H18S 3951   1.505   3.715  14.569  0.1084  1.8466  0.2148
   31DOPE  H18T 3952   1.585   3.639  14.713 -0.9555  2.6604  2.2685
   31DOPE   C33 3953   1.174   4.048  13.365  0.2062  1.0311 -0.2500
   31DOPE   H3X 3954   1.253   3.978  13.329 -0.1576  0.0260  0.8494
   31DOPE   H3Y 3955   1.088   3.982  13.383  0.4071  0.3858 -1.5186
   31DOPE   C34 3956   1.209   4.131  13.486  0.2473  0.1262  0.9904
   31DOPE   H4X 3957   1.312   4.169  13.472  0.3132 -0.4755 -0.3203
   31DOPE   H4Y 3958   1.141   4.219  13.492 -2.6611 -1.6326 -2.5411
   31DOPE   C35 3959   1.197   4.051  13.621  0.9656  0.3929  1.0562
   31DOPE   H5X 3960   1.272   3.970  13.609  1.1813  0.4623  1.8656
   31DOPE   H5Y 3961   1.094   4.009  13.624  1.0077  0.2333  0.3938
   31DOPE   C36 3962   1.223   4.135  13.746 -0.2023  0.6303 -0.8887
   31DOPE   H6X 3963   1.140   4.209  13.739  1.1613  2.5491  1.7636
   31DOPE   H6Y 3964   1.317   4.192  13.735 -0.3466  0.9305 -0.5719
   31DOPE   C37 3965   1.225   4.053  13.881 -0.3212 -0.5035  0.0147
   31DOPE   H7X 3966   1.130   4.008  13.917 -0.3559 -1.2260 -0.9546
   31DOPE   H7Y 3967   1.297   3.974  13.850  1.7923  1.8020 -1.3167
   31DOPE   C38 3968   1.273   4.136  14.001 -0.8296  0.6352 -0.6453
   31DOPE   H8X 3969   1.359   4.198  13.969 -1.4915  0.5819 -2.6450
   31DOPE   H8Y 3970   1.307   4.066  14.081 -0.6298  0.0107 -1.2620
   31DOPE   C39 3971   1.163   4.224  14.059 -1.1567 -0.2039  0.5180
   31DOPE   H9X 3972   1.101   4.275  13.984  2.4152  2.1079 -1.1329
   31DOPE  C310 3973   1.133   4.242  14.192 -0.2841 -0.2128  0.6981
   31DOPE  H10X 3974   1.051   4.307  14.226  0.0930  0.6370  0.0143
   31DOPE  C311 3975   1.210   4.182  14.307 -0.2322  0.2596 -0.6409
   31DOPE  H11X 3976   1.313   4.155  14.274  0.8239  2.3822  0.7272
   31DOPE  H11Y 3977   1.233   4.258  14.383  2.1454 -1.4042  0.4132
   31DOPE  C312 3978   1.135   4.069  14.381 -0.2935 -1.0529  0.6913
   31DOPE  H12X 3979   1.091   4.004  14.303 -0.5292  1.0345 -1.0229
   31DOPE  H12Y 3980   1.049   4.109  14.440  0.0418 -2.3237  2.1029
   31DOPE  C313 3981   1.228   3.990  14.481 -0.3269  0.6058  0.0352
   31DOPE  H13X 3982   1.316   3.941  14.436 -1.2997 -2.3182  1.1206
   31DOPE  H13Y 3983   1.273   4.064  14.551  2.5448  0.8258 -1.8514
   31DOPE  C314 3984   1.138   3.887  14.559 -0.3371 -0.5337 -0.2063
   31DOPE  H14X 3985   1.093   3.822  14.481 -0.4896  1.2375 -1.6754
   31DOPE  H14Y 3986   1.060   3.946  14.613  0.3644 -0.0693  0.3099
   31DOPE  C315 3987   1.224   3.806  14.658 -0.6098  0.2831 -0.0913
   31DOPE  H15X 3988   1.291   3.860  14.728 -3.2337  0.2579  2.6320
   31DOPE  H15Y 3989   1.290   3.745  14.592 -0.6424  1.2535 -1.0495
   31DOPE  C316 3990   1.135   3.717  14.757 -0.2321 -0.2023 -0.0206
   31DOPE  H16X 3991   1.198   3.679  14.841 -1.6250 -0.3142  1.0186
   31DOPE  H16Y 3992   1.089   3.637  14.695 -1.4127  0.8421 -0.5351
   31DOPE  C317 3993   1.033   3.791  14.845 -0.5896 -0.1306  0.2614
   31DOPE  H17X 3994   1.081   3.878  14.895  3.3428 -1.7779 -0.3050
   31DOPE  H17Y 3995   0.955   3.825  14.773 -0.7735 -1.6381 -0.2819
   31DOPE  C318 3996   0.973   3.697  14.950 -0.2567 -0.7286  1.0977
   31DOPE  H18X 3997   0.909   3.756  15.019  0.7032 -0.1595  1.5422
   31DOPE  H18Y 3998   0.917   3.618  14.897  1.2304  0.3278 -2.3071
   31DOPE  H18Z 3999   1.056   3.650  15.008  0.2257 -1.9323 -0.5014
   32DOPE     N 4000   2.926   3.723  12.138  0.0273  0.0487 -0.1262
   32DOPE   HN1 4001   2.963   3.777  12.219  2.3444 -0.2990 -0.8561
   32DOPE   HN2 4002   2.824   3.714  12.153 -0.3683 -0.9387 -2.7989
   32DOPE   HN3 4003   2.980   3.634  12.132  0.6917  0.4992 -1.1102
   32DOPE   C12 4004   2.964   3.799  12.015 -0.0714 -0.1427 -0.0432
   32DOPE  H12A 4005   2.906   3.893  12.008  2.1221  1.1443 -3.1582
   32DOPE  H12B 4006   2.937   3.736  11.928 -0.9044  1.4803 -1.0002
   32DOPE   C11 4007   3.116   3.811  12.018  0.0342 -0.1666  0.1713
   32DOPE  H11A 4008   3.146   3.875  12.104  2.6276 -0.5796 -0.3600
   32DOPE  H11B 4009   3.151   3.867  11.929 -3.6572  0.4622 -1.0571
   32DOPE     P 4010   3.330   3.662  12.013 -0.0192  0.1671 -0.0769
   32DOPE   O13 4011   3.372   3.728  11.885  0.5144  0.7869  0.5833
   32DOPE   O14 4012   3.345   3.518  12.024 -0.0662  0.4073  0.4209
   32DOPE   O11 4013   3.394   3.730  12.140  0.4283 -0.1895  0.1525
   32DOPE   O12 4014   3.177   3.685  12.037 -0.6857 -0.2829  0.3915
   32DOPE    C1 4015   3.328   3.723  12.271  0.5276 -0.6081  0.3139
   32DOPE    HA 4016   3.218   3.734  12.257  0.7377  2.7271  0.5463
   32DOPE    HB 4017   3.373   3.803  12.333 -0.3906  2.1997 -2.4132
   32DOPE    C2 4018   3.352   3.581  12.330  0.1222 -0.5268  0.4569
   32DOPE    HS 4019   3.324   3.503  12.256  0.5445  0.6213 -0.9556
   32DOPE   O21 4020   3.270   3.571  12.447  0.3466 -0.0263  0.0251
   32DOPE   C21 4021   3.147   3.544  12.434  0.0991  0.3771 -0.4607
   32DOPE   O22 4022   3.087   3.532  12.327 -0.2898  0.7334  0.3860
   32DOPE   C22 4023   3.085   3.531  12.570 -0.7589  0.2555 -0.2102
   32DOPE   H2R 4024   3.026   3.621  12.598 -0.4251 -0.3601  2.7290
   32DOPE   H2S 4025   3.165   3.517  12.645  0.0459  2.4173 -0.5862
   32DOPE    C3 4026   3.497   3.568  12.368 -0.4638 -0.2142 -0.1119
   32DOPE    HX 4027   3.538   3.640  12.442  0.7345  0.3736 -1.2974
   32DOPE    HY 4028   3.550   3.593  12.273 -3.1705  1.0225 -1.4116
   32DOPE   O31 4029   3.527   3.431  12.399 -0.2582  0.0665 -0.2805
   32DOPE   C31 4030   3.515   3.397  12.531 -0.4459 -0.2883  1.0292
   32DOPE   O32 4031   3.492   3.477  12.617  0.0156  0.3003 -0.0264
   32DOPE   C32 4032   3.536   3.244  12.552  0.0153  0.4784 -0.3516
   32DOPE   H2X 4033   3.464   3.192  12.485 -1.4311  0.6078  1.0399
   32DOPE   H2Y 4034   3.640   3.225  12.519  0.1531  2.1119 -0.9438
   32DOPE   C23 4035   3.009   3.402  12.603  0.1077  0.1528  0.2120
   32DOPE   H3R 4036   3.063   3.311  12.566  1.5553  0.2074  2.0480
   32DOPE   H3S 4037   2.915   3.393  12.545  0.6484 -1.3844 -0.4968
   32DOPE   C24 4038   2.976   3.394  12.750 -0.1273 -0.0036  0.8093
   32DOPE   H4R 4039   2.911   3.480  12.777  0.0441  0.4928 -0.3241
   32DOPE   H4S 4040   3.073   3.393  12.806  0.0389 -0.5962  0.5128
   32DOPE   C25 4041   2.906   3.262  12.784  0.6497 -0.6469 -0.2833
   32DOPE   H5R 4042   2.977   3.179  12.765 -0.8800 -1.6361 -1.9337
   32DOPE   H5S 4043   2.827   3.261  12.706  0.2738 -3.2223  0.0496
   32DOPE   C26 4044   2.838   3.252  12.926 -0.2487  0.3069 -0.6609
   32DOPE   H6R 4045   2.794   3.151  12.933 -0.3107  0.4068  0.4669
   32DOPE   H6S 4046   2.759   3.328  12.940 -0.0990  0.0273  2.1964
   32DOPE   C27 4047   2.950   3.280  13.030 -0.5878 -0.2501 -0.3143
   32DOPE   H7R 4048   2.972   3.389  13.027 -0.1416 -0.3501 -0.8563
   32DOPE   H7S 4049   3.043   3.220  13.016 -0.8485 -1.0909  1.3382
   32DOPE   C28 4050   2.907   3.265  13.177 -0.3686  0.0831 -0.7119
   32DOPE   H8R 4051   2.816   3.329  13.185 -1.2000 -1.3119  1.8574
   32DOPE   H8S 4052   2.976   3.315  13.248 -0.7443 -0.3245 -0.0582
   32DOPE   C29 4053   2.880   3.127  13.228  0.7584 -0.1081 -0.2127
   32DOPE   H9R 4054   2.789   3.081  13.187  0.8043 -0.6007  0.2236
   32DOPE  C210 4055   2.931   3.063  13.336  0.4507  0.1778 -0.8436
   32DOPE  H10R 4056   2.903   2.959  13.355 -3.2976  1.2658  0.3353
   32DOPE  C211 4057   3.037   3.125  13.428 -0.3364  0.2278 -0.2309
   32DOPE  H11R 4058   3.041   3.236  13.429 -0.2971  0.2274 -0.3265
   32DOPE  H11S 4059   3.139   3.089  13.406 -0.2817 -0.0647  0.4704
   32DOPE  C212 4060   3.014   3.094  13.572 -0.1343 -0.0556  0.0803
   32DOPE  H12R 4061   3.082   3.156  13.634  1.2651 -0.3221 -1.1312
   32DOPE  H12S 4062   3.041   2.988  13.591 -2.4146 -0.6998  0.0801
   32DOPE  C213 4063   2.869   3.112  13.618 -0.2234  0.1474  0.7187
   32DOPE  H13R 4064   2.815   3.019  13.591  0.5145  0.1067 -0.6719
   32DOPE  H13S 4065   2.813   3.190  13.563 -2.0978  0.7249  3.2298
   32DOPE  C214 4066   2.852   3.140  13.762 -0.0876  0.0162 -0.2531
   32DOPE  H14R 4067   2.745   3.166  13.768 -0.2291  0.0335 -2.3386
   32DOPE  H14S 4068   2.916   3.224  13.797  0.4852 -0.8695  0.9136
   32DOPE  C215 4069   2.909   3.035  13.852 -0.3949  0.5277  0.2271
   32DOPE  H15R 4070   3.020   3.041  13.851 -0.3677  0.5683 -2.0055
   32DOPE  H15S 4071   2.881   2.936  13.809 -0.5102  0.9567 -0.7174
   32DOPE  C216 4072   2.852   3.039  13.996  0.2539 -0.3955 -0.2177
   32DOPE  H16R 4073   2.741   3.039  13.998  0.1912  2.1259 -0.3256
   32DOPE  H16S 4074   2.884   3.137  14.039  0.8224 -1.6671  2.5050
   32DOPE  C217 4075   2.909   2.924  14.080 -0.0950  0.4817 -0.4474
   32DOPE  H17R 4076   3.016   2.910  14.054 -0.4766 -2.3638 -0.8261
   32DOPE  H17S 4077   2.855   2.830  14.056  1.2844 -0.7841  1.1602
   32DOPE  C218 4078   2.907   2.954  14.231  0.1510  0.0739 -0.5144
   32DOPE  H18R 4079   2.956   3.051  14.257  1.7702 -0.7440 -0.4007
   32DOPE  H18S 4080   2.948   2.866  14.285 -1.5387 -0.4601 -0.0495
   32DOPE  H18T 4081   2.804   2.969  14.271 -0.4964 -0.8684 -1.7617
   32DOPE   C33 4082   3.500   3.195  12.693  0.2873 -0.1423  0.1193
   32DOPE   H3X 4083   3.554   3.264  12.761  0.1133  1.4765 -1.3059
   32DOPE   H3Y 4084   3.542   3.093  12.710  2.8193  0.9246  0.7612
   32DOPE   C34 4085   3.341   3.201  12.724  0.1075 -0.0272 -0.1575
   32DOPE   H4X 4086   3.305   3.306  12.719  1.4622  0.4678  0.1590
   32DOPE   H4Y 4087   3.296   3.156  12.632  1.2557  0.3422 -0.9117
   32DOPE   C35 4088   3.303   3.125  12.856 -0.6084  0.2303  0.8037
   32DOPE   H5X 4089   3.327   3.016  12.851 -0.0592  0.4067 -1.1205
   32DOPE   H5Y 4090   3.193   3.136  12.871 -0.7428  1.7388 -0.9773
   32DOPE   C36 4091   3.377   3.181  12.978 -0.1277 -1.2318  0.2603
   32DOPE   H6X 4092   3.342   3.285  12.996  2.5318 -0.4788  1.5516
   32DOPE   H6Y 4093   3.485   3.193  12.954 -0.3353  1.3077  0.3275
   32DOPE   C37 4094   3.349   3.098  13.103  0.4624  0.0719 -0.0012
   32DOPE   H7X 4095   3.241   3.114  13.121  0.7492  0.2690  1.7689
   32DOPE   H7Y 4096   3.365   2.988  13.098  1.7931  0.3073 -2.3525
   32DOPE   C38 4097   3.424   3.146  13.229 -0.6030 -0.3238 -1.0521
   32DOPE   H8X 4098   3.350   3.139  13.311  0.2194  0.5323 -0.2065
   32DOPE   H8Y 4099   3.442   3.256  13.225 -0.1670 -0.2334  1.5822
   32DOPE   C39 4100   3.547   3.069  13.262  1.1316 -0.5470  0.3692
   32DOPE   H9X 4101   3.598   3.031  13.172  0.8610 -0.2978  0.1090
   32DOPE  C310 4102   3.598   3.036  13.382  0.8936  0.9546  0.6820
   32DOPE  H10X 4103   3.698   2.990  13.377 -0.0857 -1.3050  0.7582
   32DOPE  C311 4104   3.538   3.050  13.518 -0.4834  0.1528 -0.7188
   32DOPE  H11X 4105   3.618   3.089  13.584  0.0370 -2.2639  0.1789
   32DOPE  H11Y 4106   3.454   3.123  13.518  0.8600  1.7586 -0.4698
   32DOPE  C312 4107   3.497   2.909  13.577 -0.3186 -0.5604  1.0785
   32DOPE  H12X 4108   3.578   2.836  13.598 -2.0697 -2.0029  3.1950
   32DOPE  H12Y 4109   3.428   2.875  13.496 -0.6311  0.3445  0.9609
   32DOPE  C313 4110   3.425   2.925  13.715 -0.0701 -0.5564 -0.2361
   32DOPE  H13X 4111   3.338   2.992  13.698  1.2899  1.4452  0.3063
   32DOPE  H13Y 4112   3.387   2.830  13.757 -1.3455 -0.4146 -1.0266
   32DOPE  C314 4113   3.513   2.979  13.826  0.0913 -0.4805  0.3340
   32DOPE  H14X 4114   3.522   3.090  13.820  1.3736 -0.4575  2.0827
   32DOPE  H14Y 4115   3.616   2.942  13.807  1.1516  1.7328  1.4279
   32DOPE  C315 4116   3.457   2.953  13.966 -0.4450  0.0875  0.0352
   32DOPE  H15X 4117   3.449   2.844  13.986  0.1082  0.1352  0.5751
   32DOPE  H15Y 4118   3.358   3.001  13.981 -0.2718  1.3217 -2.3894
   32DOPE  C316 4119   3.543   3.024  14.077  0.5612  1.1172 -0.0816
   32DOPE  H16X 4120   3.534   3.133  14.062  1.4501  1.1985 -0.0616
   32DOPE  H16Y 4121   3.650   2.993  14.072 -0.1459 -3.0106  3.3085
   32DOPE  C317 4122   3.498   2.979  14.221  0.4613  0.2755  0.5096
   32DOPE  H17X 4123   3.389   2.999  14.230 -0.1226 -1.9312 -0.7585
   32DOPE  H17Y 4124   3.512   2.869  14.233  0.9802  0.2469 -0.3224
   32DOPE  C318 4125   3.570   3.049  14.335 -0.3019 -0.2613 -0.1588
   32DOPE  H18X 4126   3.522   3.030  14.434  1.7360 -1.3720  0.6792
   32DOPE  H18Y 4127   3.677   3.023  14.347 -0.8197 -1.6010  2.2088
   32DOPE  H18Z 4128   3.567   3.160  14.324 -0.9476 -0.4163 -1.7928
   33DOPE     N 4129   2.651   3.410  12.262  0.1259 -0.6492  0.3604
   33DOPE   HN1 4130   2.604   3.486  12.315  1.2169  0.0197  0.3995
   33DOPE   HN2 4131   2.664   3.329  12.326 -1.0191 -0.3582  0.9951
   33DOPE   HN3 4132   2.743   3.436  12.223 -0.1281 -0.2008  0.0504
   33DOPE   C12 4133   2.557   3.364  12.153 -0.1354 -0.1951  0.4636
   33DOPE  H12A 4134   2.607   3.297  12.080 -0.1421  0.3888 -0.0858
   33DOPE  H12B 4135   2.511   3.452  12.102 -0.0072 -0.9907 -1.0580
   33DOPE   C11 4136   2.443   3.276  12.219  1.0067 -0.4697 -0.2901
   33DOPE  H11A 4137   2.382   3.243  12.132  0.2872 -0.0404  0.0405
   33DOPE  H11B 4138   2.381   3.341  12.285 -1.6941 -2.1217 -1.0075
   33DOPE     P 4139   2.445   3.023  12.272 -0.0582 -0.0071  0.0632
   33DOPE   O13 4140   2.531   2.932  12.349  0.6504 -0.1803  0.7173
   33DOPE   O14 4141   2.413   2.987  12.131 -0.5040  0.0577 -0.1974
   33DOPE   O11 4142   2.305   3.023  12.346 -0.1663  0.1213 -0.1844
   33DOPE   O12 4143   2.500   3.170  12.288 -0.0575 -0.2195  0.3309
   33DOPE    C1 4144   2.272   3.108  12.446 -0.4841 -0.6839  0.1153
   33DOPE    HA 4145   2.266   3.208  12.399  0.6326 -0.9864 -0.7343
   33DOPE    HB 4146   2.352   3.111  12.524 -0.8571  1.8895  0.4549
   33DOPE    C2 4147   2.137   3.062  12.508  0.1387  0.1055 -0.3794
   33DOPE    HS 4148   2.066   3.048  12.424 -0.5750  1.3742 -0.0096
   33DOPE   O21 4149   2.083   3.170  12.583 -0.0257 -0.2451 -0.2023
   33DOPE   C21 4150   1.952   3.144  12.621 -0.2414  0.6336  0.0889
   33DOPE   O22 4151   1.878   3.061  12.569  0.0179  0.0643  0.1190
   33DOPE   C22 4152   1.915   3.230  12.742 -0.4698 -0.2659 -0.4903
   33DOPE   H2R 4153   1.870   3.325  12.706  0.2249  0.3474  0.2287
   33DOPE   H2S 4154   2.006   3.249  12.803 -0.9963  0.1912  0.1703
   33DOPE    C3 4155   2.152   2.935  12.597 -0.4934  0.4784 -0.7909
   33DOPE    HX 4156   2.213   2.868  12.534  0.1914  0.1414  0.2017
   33DOPE    HY 4157   2.054   2.888  12.621 -1.2592  1.5432 -1.7418
   33DOPE   O31 4158   2.234   2.963  12.707  0.5036 -0.4338 -0.2854
   33DOPE   C31 4159   2.307   2.866  12.749 -1.3609  0.5484 -0.4162
   33DOPE   O32 4160   2.314   2.751  12.707 -0.3612 -0.6396 -0.3518
   33DOPE   C32 4161   2.397   2.922  12.866 -0.0643  0.0256  0.0136
   33DOPE   H2X 4162   2.492   2.973  12.839 -0.1759  0.7908  1.0185
   33DOPE   H2Y 4163   2.335   2.990  12.928  0.3515  0.1797  0.2702
   33DOPE   C23 4164   1.814   3.153  12.825 -0.7990 -0.4229 -0.3808
   33DOPE   H3R 4165   1.843   3.046  12.831  2.6654  0.4534  0.7671
   33DOPE   H3S 4166   1.709   3.162  12.791 -0.9743 -0.3349  0.1767
   33DOPE   C24 4167   1.805   3.207  12.971  0.2168 -0.2381  0.1971
   33DOPE   H4R 4168   1.778   3.314  12.964 -1.8928 -0.5349  2.4153
   33DOPE   H4S 4169   1.910   3.199  13.007  0.6813 -0.6149 -1.1704
   33DOPE   C25 4170   1.701   3.141  13.069 -0.3317 -0.3588 -0.2257
   33DOPE   H5R 4171   1.717   3.032  13.057 -1.1592 -0.5121 -0.0005
   33DOPE   H5S 4172   1.597   3.163  13.038  0.2623  0.5801 -1.6250
   33DOPE   C26 4173   1.732   3.167  13.215 -0.9243  0.4353 -0.2282
   33DOPE   H6R 4174   1.729   3.277  13.230  1.3220  0.1373  3.4561
   33DOPE   H6S 4175   1.841   3.149  13.221 -1.0042  0.4385  1.5307
   33DOPE   C27 4176   1.663   3.077  13.318 -0.0172 -0.1189  0.5624
   33DOPE   H7R 4177   1.676   2.970  13.289 -1.1762  0.0562 -0.7252
   33DOPE   H7S 4178   1.554   3.098  13.327 -0.3469 -1.6935  0.5155
   33DOPE   C28 4179   1.729   3.091  13.460  0.2219 -0.8538 -0.1325
   33DOPE   H8R 4180   1.723   3.196  13.494 -0.7595 -0.8164 -0.3980
   33DOPE   H8S 4181   1.839   3.074  13.452  0.2474 -1.3813  1.1862
   33DOPE   C29 4182   1.671   2.988  13.553 -0.1434  0.8928  0.4056
   33DOPE   H9R 4183   1.628   2.903  13.499 -0.4653  2.1711 -1.4728
   33DOPE  C210 4184   1.657   3.008  13.688 -0.7763 -0.0590  0.6855
   33DOPE  H10R 4185   1.629   2.926  13.754 -1.8107  0.8688  1.4358
   33DOPE  C211 4186   1.700   3.131  13.760  0.6453  0.2902 -0.0571
   33DOPE  H11R 4187   1.631   3.214  13.734  0.3231  0.1051  0.2002
   33DOPE  H11S 4188   1.805   3.159  13.740  1.0429  0.9644  2.6107
   33DOPE  C212 4189   1.682   3.106  13.906 -0.0413  0.1681 -0.4946
   33DOPE  H12R 4190   1.756   3.026  13.927  0.2556 -0.1669 -2.6013
   33DOPE  H12S 4191   1.577   3.079  13.931 -0.2820 -0.9330 -2.5070
   33DOPE  C213 4192   1.707   3.226  14.004  0.6758  0.0879  0.0841
   33DOPE  H13R 4193   1.618   3.293  14.002 -0.3167 -0.8072 -5.8566
   33DOPE  H13S 4194   1.791   3.275  13.950  1.0817 -0.4309  0.2391
   33DOPE  C214 4195   1.750   3.185  14.144  0.3281 -0.6789  0.0580
   33DOPE  H14R 4196   1.802   3.268  14.197  1.1470 -1.6728  0.8609
   33DOPE  H14S 4197   1.823   3.101  14.131 -1.7611 -2.8876  1.7193
   33DOPE  C215 4198   1.640   3.114  14.230  0.2876  0.2884  0.1127
   33DOPE  H15R 4199   1.611   3.012  14.196  1.1227  0.0227  0.1938
   33DOPE  H15S 4200   1.551   3.181  14.231 -0.7826 -0.9832 -2.0191
   33DOPE  C216 4201   1.671   3.102  14.380  0.4044 -0.0680 -0.2542
   33DOPE  H16R 4202   1.581   3.053  14.422  0.4791  0.6295  0.7569
   33DOPE  H16S 4203   1.685   3.201  14.428  0.3950  0.9925 -2.3086
   33DOPE  C217 4204   1.787   3.006  14.422  0.4461 -0.3453  0.1607
   33DOPE  H17R 4205   1.882   3.059  14.398  1.0607 -0.6653  1.7669
   33DOPE  H17S 4206   1.784   2.913  14.361 -0.4827  0.4730 -1.0890
   33DOPE  C218 4207   1.784   2.977  14.577 -0.1083  0.1511  0.2729
   33DOPE  H18R 4208   1.680   2.974  14.616 -1.1113 -0.0065 -2.2099
   33DOPE  H18S 4209   1.820   3.058  14.643 -2.1045 -0.0449  1.6980
   33DOPE  H18T 4210   1.830   2.877  14.592  1.0201  0.6707  0.3269
   33DOPE   C33 4211   2.450   2.807  12.960 -0.2417 -1.2112 -0.0743
   33DOPE   H3X 4212   2.523   2.741  12.908 -0.4728 -0.5136 -1.3023
   33DOPE   H3Y 4213   2.367   2.741  12.994 -1.4702 -0.6832 -1.9138
   33DOPE   C34 4214   2.532   2.865  13.082 -0.1794 -0.3936 -0.2555
   33DOPE   H4X 4215   2.629   2.900  13.041  0.3962 -1.1916  0.3895
   33DOPE   H4Y 4216   2.476   2.946  13.134 -0.0531 -0.6542  0.2928
   33DOPE   C35 4217   2.546   2.754  13.184  0.4281  0.8029  0.6390
   33DOPE   H5X 4218   2.601   2.673  13.132  0.8281  0.1860  1.9967
   33DOPE   H5Y 4219   2.439   2.738  13.208 -0.3902  1.7245 -2.0516
   33DOPE   C36 4220   2.626   2.804  13.304 -0.4610  0.2900  0.0023
   33DOPE   H6X 4221   2.596   2.909  13.325 -2.3225 -0.2844  0.4382
   33DOPE   H6Y 4222   2.733   2.793  13.278 -0.5923 -1.5476  0.1311
   33DOPE   C37 4223   2.596   2.718  13.431  0.7162 -0.3802 -0.4496
   33DOPE   H7X 4224   2.494   2.740  13.469  0.7200 -0.0133 -0.6497
   33DOPE   H7Y 4225   2.593   2.610  13.403 -3.0954 -0.4945 -0.1713
   33DOPE   C38 4226   2.701   2.753  13.539 -0.5835 -0.5012 -0.4219
   33DOPE   H8X 4227   2.690   2.863  13.548  1.7385 -0.2975  0.7366
   33DOPE   H8Y 4228   2.805   2.730  13.509 -0.1351  1.3493 -0.3902
   33DOPE   C39 4229   2.678   2.683  13.669  0.3133 -0.1210 -0.8173
   33DOPE   H9X 4230   2.701   2.575  13.670 -1.7088 -0.5983  0.8929
   33DOPE  C310 4231   2.613   2.717  13.784 -0.4762  0.1262 -0.3448
   33DOPE  H10X 4232   2.598   2.642  13.863 -0.3383  0.4657  0.0073
   33DOPE  C311 4233   2.563   2.859  13.814  0.2465  0.8412 -0.0542
   33DOPE  H11X 4234   2.638   2.935  13.844 -2.0831  2.9228  0.8099
   33DOPE  H11Y 4235   2.513   2.906  13.726 -1.3399 -0.2509  0.2238
   33DOPE  C312 4236   2.467   2.857  13.930 -0.4096  0.1871 -0.1201
   33DOPE  H12X 4237   2.381   2.791  13.905  0.4480 -1.0347  0.0648
   33DOPE  H12Y 4238   2.428   2.958  13.951 -0.0602  0.5726 -1.2560
   33DOPE  C313 4239   2.543   2.829  14.059 -0.1652 -0.3462  0.1969
   33DOPE  H13X 4240   2.598   2.732  14.052  0.0908 -0.1096 -1.7085
   33DOPE  H13Y 4241   2.604   2.921  14.070 -3.2397  1.7990  0.6264
   33DOPE  C314 4242   2.452   2.824  14.185 -0.0946 -0.0903 -0.2749
   33DOPE  H14X 4243   2.387   2.735  14.171  0.0876  0.1332 -3.1868
   33DOPE  H14Y 4244   2.384   2.912  14.191  1.0948  0.8046  0.6874
   33DOPE  C315 4245   2.535   2.821  14.308  0.0059  0.1489  0.6528
   33DOPE  H15X 4246   2.609   2.904  14.307  0.3774 -0.1277  2.1509
   33DOPE  H15Y 4247   2.595   2.728  14.319  0.9455  0.5960 -0.5706
   33DOPE  C316 4248   2.460   2.851  14.441 -0.4029 -0.3412  0.0905
   33DOPE  H16X 4249   2.396   2.764  14.470 -0.3690 -0.0952  0.9514
   33DOPE  H16Y 4250   2.401   2.945  14.439  2.4962  1.6085  0.0750
   33DOPE  C317 4251   2.562   2.886  14.554 -0.2274  0.9598  0.4195
   33DOPE  H17X 4252   2.626   2.796  14.566 -0.4532  0.7387 -0.0285
   33DOPE  H17Y 4253   2.632   2.964  14.517  1.1533 -0.3472  0.1747
   33DOPE  C318 4254   2.510   2.920  14.695 -0.6617  0.0680 -0.3812
   33DOPE  H18X 4255   2.435   2.842  14.722  1.3741 -1.2063  1.9674
   33DOPE  H18Y 4256   2.594   2.925  14.768 -2.1165  1.1275  1.3001
   33DOPE  H18Z 4257   2.461   3.019  14.697  0.7996  0.8257  2.2361
   34DOPE     N 4258   2.021   5.620  13.124  0.3899  0.6664  0.4579
   34DOPE   HN1 4259   1.918   5.613  13.132  0.4345 -1.0945  0.0333
   34DOPE   HN2 4260   2.071   5.632  13.215  2.9629  1.8690 -1.0042
   34DOPE   HN3 4261   2.050   5.698  13.062  2.5226  0.6725  1.3808
   34DOPE   C12 4262   2.084   5.494  13.067 -0.0418 -0.0828  0.8509
   34DOPE  H12A 4263   2.078   5.424  13.153  1.0195 -1.7161 -0.3479
   34DOPE  H12B 4264   2.187   5.526  13.038 -0.7562  0.9889 -0.6065
   34DOPE   C11 4265   2.007   5.429  12.949 -0.7592 -0.3356 -0.3330
   34DOPE  H11A 4266   2.051   5.329  12.929 -0.3966 -0.4803  1.0990
   34DOPE  H11B 4267   2.031   5.513  12.880  1.4756 -0.7192 -0.0922
   34DOPE     P 4268   1.770   5.308  12.937 -0.1527 -0.2561 -0.2906
   34DOPE   O13 4269   1.788   5.298  12.790  0.1070  0.0262  0.2332
   34DOPE   O14 4270   1.642   5.359  12.989 -0.0320  0.0218  0.2970
   34DOPE   O11 4271   1.807   5.164  13.003  0.4607  0.0249 -0.3008
   34DOPE   O12 4272   1.874   5.417  12.989 -0.4427 -0.1044  0.2632
   34DOPE    C1 4273   1.853   5.164  13.139  0.7164  0.0176 -0.2831
   34DOPE    HA 4274   1.775   5.207  13.205  1.5683  2.6891 -0.8760
   34DOPE    HB 4275   1.943   5.229  13.148  1.6526 -0.9968 -1.8581
   34DOPE    C2 4276   1.896   5.021  13.185  0.0185 -0.4480 -0.4705
   34DOPE    HS 4277   1.992   5.000  13.133  1.3568  3.8993 -0.1833
   34DOPE   O21 4278   1.801   4.917  13.150 -0.2196  0.2252  0.1622
   34DOPE   C21 4279   1.829   4.788  13.178 -0.3770 -0.3554  0.0221
   34DOPE   O22 4280   1.935   4.750  13.219 -0.6538 -1.1412  0.2606
   34DOPE   C22 4281   1.714   4.699  13.143 -0.3361 -0.2822 -0.5642
   34DOPE   H2R 4282   1.753   4.604  13.099 -1.5375 -0.4997 -1.2081
   34DOPE   H2S 4283   1.642   4.752  13.077  0.6506  0.4611 -1.0790
   34DOPE    C3 4284   1.922   5.026  13.332 -0.4577  0.4363  0.1269
   34DOPE    HX 4285   1.991   5.113  13.341  1.1321 -0.5261 -1.8895
   34DOPE    HY 4286   1.983   4.938  13.360 -1.6035  0.4459  2.9199
   34DOPE   O31 4287   1.791   5.029  13.397 -0.0523  0.7355  0.2947
   34DOPE   C31 4288   1.799   5.018  13.525  0.0609  0.0072 -0.6625
   34DOPE   O32 4289   1.905   5.014  13.591  0.6945 -0.9977 -0.2076
   34DOPE   C32 4290   1.659   5.007  13.588  0.2170 -0.1369  0.2520
   34DOPE   H2X 4291   1.631   5.097  13.647  1.4614 -0.9600  2.1751
   34DOPE   H2Y 4292   1.591   5.011  13.499 -2.1789 -1.8310  1.8768
   34DOPE   C23 4293   1.639   4.659  13.278 -0.5841  0.2597 -0.1539
   34DOPE   H3R 4294   1.594   4.754  13.315 -1.0651  0.8066 -2.0644
   34DOPE   H3S 4295   1.721   4.634  13.350  0.1023  1.1129 -0.6136
   34DOPE   C24 4296   1.542   4.544  13.241  0.0348 -0.1336 -0.2041
   34DOPE   H4R 4297   1.597   4.453  13.211 -1.2217 -0.8708 -0.3175
   34DOPE   H4S 4298   1.482   4.560  13.149 -0.5086  0.8642  0.2954
   34DOPE   C25 4299   1.437   4.525  13.350 -0.3457 -0.1818  0.5972
   34DOPE   H5R 4300   1.364   4.453  13.306 -1.4610 -1.4380  4.1516
   34DOPE   H5S 4301   1.377   4.618  13.357 -0.5341 -0.2551  0.0213
   34DOPE   C26 4302   1.500   4.476  13.480 -0.5087 -0.0472  0.6602
   34DOPE   H6R 4303   1.588   4.538  13.505  2.3684 -3.4010 -0.3364
   34DOPE   H6S 4304   1.557   4.381  13.467  2.6727  1.9398 -1.1285
   34DOPE   C27 4305   1.409   4.464  13.597 -0.0297  0.0478 -0.3313
   34DOPE   H7R 4306   1.430   4.376  13.661 -2.9449 -0.0570  0.6550
   34DOPE   H7S 4307   1.303   4.460  13.562  0.0313 -0.0068 -0.5102
   34DOPE   C28 4308   1.420   4.596  13.665 -0.5138 -0.4175  0.2099
   34DOPE   H8R 4309   1.425   4.679  13.591  1.9476 -0.6966 -0.0467
   34DOPE   H8S 4310   1.522   4.598  13.710  0.0994 -0.5186 -1.1435
   34DOPE   C29 4311   1.311   4.629  13.761  0.3525  0.5556 -0.6018
   34DOPE   H9R 4312   1.223   4.676  13.716  0.1884 -0.3281 -1.2362
   34DOPE  C210 4313   1.315   4.610  13.895 -0.2852 -0.4317 -0.0277
   34DOPE  H10R 4314   1.219   4.630  13.944 -0.1809 -0.4601  0.1874
   34DOPE  C211 4315   1.420   4.544  13.982 -0.4253 -0.1669  0.1640
   34DOPE  H11R 4316   1.506   4.614  13.977 -0.8719  0.5023  1.4722
   34DOPE  H11S 4317   1.441   4.443  13.941  2.6811  0.9215 -1.2566
   34DOPE  C212 4318   1.364   4.550  14.131  0.4761 -0.4070  0.1069
   34DOPE  H12R 4319   1.258   4.524  14.150 -0.9946  4.8578  0.7202
   34DOPE  H12S 4320   1.357   4.655  14.169 -0.9592 -1.0232  1.6969
   34DOPE  C213 4321   1.445   4.466  14.239  0.1454  0.2767  0.3832
   34DOPE  H13R 4322   1.552   4.498  14.241  0.6399 -1.1976 -0.8593
   34DOPE  H13S 4323   1.451   4.360  14.205  1.4093  1.2433 -2.8056
   34DOPE  C214 4324   1.400   4.485  14.383 -0.2940 -0.1341  0.5860
   34DOPE  H14R 4325   1.291   4.470  14.394 -0.2933 -0.5015  0.0967
   34DOPE  H14S 4326   1.414   4.595  14.392  0.6798 -0.0887 -1.0696
   34DOPE  C215 4327   1.488   4.413  14.487  0.2793 -0.3546 -0.0224
   34DOPE  H15R 4328   1.591   4.455  14.497  1.5387 -3.1590 -0.3285
   34DOPE  H15S 4329   1.494   4.306  14.462  2.0031 -0.0246 -1.2269
   34DOPE  C216 4330   1.417   4.431  14.627  0.4687  0.2405 -0.0362
   34DOPE  H16R 4331   1.425   4.337  14.686  2.4855  1.5230  1.9321
   34DOPE  H16S 4332   1.308   4.447  14.625  0.2548 -0.1479  3.3374
   34DOPE  C217 4333   1.488   4.539  14.721 -0.0191 -0.6645  0.7763
   34DOPE  H17R 4334   1.510   4.621  14.648 -2.4087  0.8176  1.6164
   34DOPE  H17S 4335   1.586   4.490  14.738 -0.3979 -1.7576 -0.1177
   34DOPE  C218 4336   1.403   4.583  14.838 -0.2335 -0.4071  0.4340
   34DOPE  H18R 4337   1.452   4.661  14.898 -1.5744 -1.2182  2.6909
   34DOPE  H18S 4338   1.379   4.497  14.904  0.4223  2.0267  4.1436
   34DOPE  H18T 4339   1.313   4.629  14.791  1.5561  2.9456 -0.0269
   34DOPE   C33 4340   1.638   4.873  13.662  0.6477  0.1212  0.2753
   34DOPE   H3X 4341   1.647   4.794  13.584 -0.2407  0.3575 -0.0814
   34DOPE   H3Y 4342   1.531   4.875  13.692 -0.1901 -0.5394 -2.3470
   34DOPE   C34 4343   1.719   4.826  13.782 -0.2228  0.5560  0.4321
   34DOPE   H4X 4344   1.674   4.724  13.790 -1.2718  0.8579 -1.1240
   34DOPE   H4Y 4345   1.827   4.822  13.760 -0.4865  0.0644 -0.8283
   34DOPE   C35 4346   1.688   4.898  13.913 -0.3566  0.6088 -0.7371
   34DOPE   H5X 4347   1.582   4.892  13.947  0.1928 -4.4355  0.9699
   34DOPE   H5Y 4348   1.713   5.004  13.897 -1.2616  0.9289 -0.1221
   34DOPE   C36 4349   1.765   4.835  14.031 -0.0770  0.2442 -0.2107
   34DOPE   H6X 4350   1.873   4.822  14.007 -0.3617 -0.0903 -1.4073
   34DOPE   H6Y 4351   1.722   4.734  14.044  1.3003 -0.4842 -1.0159
   34DOPE   C37 4352   1.749   4.913  14.165  0.1086  0.2567 -0.4251
   34DOPE   H7X 4353   1.851   4.952  14.187  0.1888  0.7674 -1.6254
   34DOPE   H7Y 4354   1.687   5.002  14.144  0.0078 -0.1043 -1.7466
   34DOPE   C38 4355   1.698   4.831  14.288 -0.1152  0.2081 -0.0514
   34DOPE   H8X 4356   1.590   4.808  14.275 -0.3575  1.2739 -0.0405
   34DOPE   H8Y 4357   1.710   4.908  14.368  2.4639  1.7601 -1.7894
   34DOPE   C39 4358   1.777   4.710  14.321  0.1506  0.1987 -0.5081
   34DOPE   H9X 4359   1.761   4.617  14.265 -1.2681 -1.6520  2.7155
   34DOPE  C310 4360   1.876   4.696  14.422  0.4849 -0.0519  0.4488
   34DOPE  H10X 4361   1.936   4.605  14.436  0.3705 -0.2665 -0.3750
   34DOPE  C311 4362   1.901   4.812  14.518  0.5248  0.0960  0.3453
   34DOPE  H11X 4363   1.977   4.881  14.475  0.8027  0.3193  1.1779
   34DOPE  H11Y 4364   1.810   4.869  14.546  0.3732  1.0226 -1.8543
   34DOPE  C312 4365   1.958   4.768  14.653 -0.5207  0.2487 -0.1641
   34DOPE  H12X 4366   1.974   4.866  14.701 -2.0251  0.3566  0.1756
   34DOPE  H12Y 4367   2.042   4.699  14.632 -0.0828 -0.0924  2.4501
   34DOPE  C313 4368   1.852   4.690  14.731  0.3161 -0.2071  0.5686
   34DOPE  H13X 4369   1.750   4.733  14.733 -0.0956 -1.1507  0.6686
   34DOPE  H13Y 4370   1.834   4.586  14.695  1.1497 -0.3140  0.4367
   34DOPE  C314 4371   1.889   4.665  14.878 -0.0963  0.5587 -0.0828
   34DOPE  H14X 4372   1.805   4.615  14.929  1.4203 -0.7847  1.2115
   34DOPE  H14Y 4373   1.906   4.762  14.930  0.2532 -0.2895  1.4436
   34DOPE  C315 4374   2.018   4.580  14.892 -0.7947  0.2876  0.2596
   34DOPE  H15X 4375   2.103   4.649  14.874  0.0266 -0.7991 -0.0897
   34DOPE  H15Y 4376   2.027   4.501  14.815  0.2518 -0.0531  0.7111
   34DOPE  C316 4377   2.039   4.511  15.028 -0.5041  0.2535  0.4249
   34DOPE  H16X 4378   1.955   4.439  15.034 -0.3401 -0.2649 -2.1664
   34DOPE  H16Y 4379   2.031   4.594  15.101 -0.8945 -0.0023  0.6728
   34DOPE  C317 4380   2.166   4.432  15.056 -0.3187  0.0750  0.3922
   34DOPE  H17X 4381   2.256   4.495  15.042 -0.1820 -0.2498 -0.2242
   34DOPE  H17Y 4382   2.166   4.386  15.157  2.3674 -0.2139  0.3342
   34DOPE  C318 4383   2.177   4.306  14.970  0.2498 -0.1734 -0.1764
   34DOPE  H18X 4384   2.094   4.235  14.990  1.6357 -1.7371  0.3228
   34DOPE  H18Y 4385   2.187   4.334  14.863  2.5855  2.4767  0.5947
   34DOPE  H18Z 4386   2.271   4.254  14.998  0.0824 -0.2805  0.1803
   35DOPE     N 4387   4.642   4.207  12.128 -0.1440 -0.1698 -0.3476
   35DOPE   HN1 4388   4.724   4.258  12.168  0.4369 -1.3352  0.0053
   35DOPE   HN2 4389   4.657   4.223  12.026 -0.5183 -0.3669 -0.4366
   35DOPE   HN3 4390   4.565   4.259  12.173 -0.2604  1.5795 -2.4009
   35DOPE   C12 4391   4.646   4.060  12.169  0.4374  0.2877 -0.1468
   35DOPE  H12A 4392   4.684   4.062  12.273 -0.7127  1.4346  0.2744
   35DOPE  H12B 4393   4.720   4.013  12.102 -0.2769  1.0823 -1.5486
   35DOPE   C11 4394   4.508   3.987  12.161  0.6779  0.3243 -1.1022
   35DOPE  H11A 4395   4.487   3.969  12.053  0.1418  0.9310 -1.1081
   35DOPE  H11B 4396   4.428   4.052  12.203  1.3241 -0.6939  1.9483
   35DOPE     P 4397   4.593   3.729  12.204 -0.1060  0.1400 -0.0463
   35DOPE   O13 4398   4.738   3.750  12.228 -0.1891  0.1521 -0.2039
   35DOPE   O14 4399   4.549   3.692  12.065 -0.4415  0.2406 -0.1644
   35DOPE   O11 4400   4.530   3.632  12.308  0.0919  0.1205  0.0237
   35DOPE   O12 4401   4.514   3.863  12.242  0.9898  0.5816  0.8555
   35DOPE    C1 4402   4.388   3.643  12.343 -0.0611  0.3190 -0.0472
   35DOPE    HA 4403   4.324   3.632  12.253 -3.1581  0.6186  1.9816
   35DOPE    HB 4404   4.352   3.739  12.386 -1.0808 -1.1457  2.5336
   35DOPE    C2 4405   4.341   3.525  12.432  0.4721 -0.8384  0.4452
   35DOPE    HS 4406   4.232   3.537  12.447  0.8305 -0.0270  2.8992
   35DOPE   O21 4407   4.405   3.522  12.558 -0.1836 -0.1265  0.3401
   35DOPE   C21 4408   4.370   3.611  12.650 -0.2811  0.1457  0.1259
   35DOPE   O22 4409   4.289   3.702  12.640 -0.1557  0.3820  0.2991
   35DOPE   C22 4410   4.451   3.589  12.779 -0.0717 -0.1457  0.6494
   35DOPE   H2R 4411   4.492   3.689  12.800 -1.8276  0.6278  0.5699
   35DOPE   H2S 4412   4.533   3.517  12.757  1.7743  1.7919  0.9364
   35DOPE    C3 4413   4.368   3.397  12.353  0.3902 -0.2328 -0.3903
   35DOPE    HX 4414   4.477   3.378  12.359  0.8047  2.2999  1.6044
   35DOPE    HY 4415   4.366   3.407  12.243 -0.6844 -0.9921 -0.4539
   35DOPE   O31 4416   4.283   3.281  12.396 -0.2450 -0.6953  0.4433
   35DOPE   C31 4417   4.160   3.298  12.341  0.2262  0.0001  0.2408
   35DOPE   O32 4418   4.131   3.388  12.261 -0.3012 -0.2470  0.3189
   35DOPE   C32 4419   4.057   3.193  12.392  0.0116 -0.1511  0.1938
   35DOPE   H2X 4420   4.017   3.134  12.306  2.6232 -0.3585 -0.9525
   35DOPE   H2Y 4421   4.115   3.124  12.456 -2.0442  0.2918  2.7214
   35DOPE   C23 4422   4.373   3.541  12.905 -0.1188 -0.2010 -0.1533
   35DOPE   H3R 4423   4.360   3.431  12.908  0.1037 -0.2553 -0.8770
   35DOPE   H3S 4424   4.280   3.601  12.901 -0.7267 -1.0957  0.3930
   35DOPE   C24 4425   4.446   3.568  13.035 -0.6608 -0.0722  0.4746
   35DOPE   H4R 4426   4.459   3.677  13.051  0.9114 -0.1644 -0.0154
   35DOPE   H4S 4427   4.549   3.528  13.039 -0.9339 -0.7171  1.4859
   35DOPE   C25 4428   4.362   3.526  13.153  0.2294  0.2036 -0.1307
   35DOPE   H5R 4429   4.349   3.416  13.146 -0.4675  0.3992 -2.4890
   35DOPE   H5S 4430   4.261   3.568  13.136 -0.0715 -0.5101 -0.1734
   35DOPE   C26 4431   4.433   3.561  13.287  0.1023 -0.5078  0.1385
   35DOPE   H6R 4432   4.426   3.670  13.308  1.4092 -0.8052  2.4351
   35DOPE   H6S 4433   4.543   3.545  13.291  0.0662 -0.5672  2.8290
   35DOPE   C27 4434   4.370   3.482  13.404 -0.5633  0.2506 -0.5178
   35DOPE   H7R 4435   4.381   3.373  13.387 -0.5782 -0.1666  1.7578
   35DOPE   H7S 4436   4.260   3.496  13.405 -0.4334  1.6538 -2.1131
   35DOPE   C28 4437   4.424   3.529  13.544  0.0674 -0.0037 -0.1859
   35DOPE   H8R 4438   4.360   3.608  13.589 -1.6178 -2.5056  2.1765
   35DOPE   H8S 4439   4.522   3.579  13.532  0.0571  0.6196  1.8638
   35DOPE   C29 4440   4.438   3.404  13.627  0.6018 -0.1673 -0.5396
   35DOPE   H9R 4441   4.405   3.311  13.578  0.4734 -1.1008  1.2713
   35DOPE  C210 4442   4.453   3.404  13.757  0.2003  0.3403  0.2075
   35DOPE  H10R 4443   4.454   3.303  13.801  3.9143  0.6510  1.1654
   35DOPE  C211 4444   4.490   3.523  13.840  0.2626  0.0727 -0.8401
   35DOPE  H11R 4445   4.497   3.623  13.792  0.4091  0.5509  0.1378
   35DOPE  H11S 4446   4.594   3.500  13.872 -0.7257  1.5785  4.5812
   35DOPE  C212 4447   4.394   3.549  13.958  0.1968 -0.4453 -0.3920
   35DOPE  H12R 4448   4.365   3.456  14.013 -0.5213  0.0347  0.0552
   35DOPE  H12S 4449   4.304   3.594  13.911  0.6383  1.0549  0.1394
   35DOPE  C213 4450   4.453   3.645  14.061 -0.1369 -0.3849  0.0940
   35DOPE  H13R 4451   4.477   3.741  14.010  0.4791  0.7132  2.3265
   35DOPE  H13S 4452   4.548   3.606  14.105 -0.4495  2.3613  3.6425
   35DOPE  C214 4453   4.347   3.671  14.163  0.0426  0.1792  0.1587
   35DOPE  H14R 4454   4.248   3.680  14.114 -0.0805  0.1724  0.4044
   35DOPE  H14S 4455   4.377   3.771  14.202 -0.3242  0.6724 -0.8097
   35DOPE  C215 4456   4.348   3.562  14.266  0.0414 -0.2383 -0.1270
   35DOPE  H15R 4457   4.440   3.567  14.327 -1.1350  1.2857  1.6211
   35DOPE  H15S 4458   4.340   3.461  14.220 -4.2410 -0.2457  0.2279
   35DOPE  C216 4459   4.237   3.591  14.373 -0.3147 -0.0665 -1.0135
   35DOPE  H16R 4460   4.146   3.641  14.335 -1.0911  0.0556  0.9073
   35DOPE  H16S 4461   4.283   3.648  14.456  0.1861  1.4832 -2.3030
   35DOPE  C217 4462   4.189   3.462  14.443 -0.3118  0.4911  0.1019
   35DOPE  H17R 4463   4.125   3.487  14.531 -0.2274 -1.1520  0.6786
   35DOPE  H17S 4464   4.283   3.415  14.480  1.7680  2.9705 -1.6770
   35DOPE  C218 4465   4.107   3.371  14.349 -0.1053 -0.8184 -0.2842
   35DOPE  H18R 4466   4.160   3.334  14.259 -1.3326 -0.2810 -1.2488
   35DOPE  H18S 4467   4.034   3.440  14.303  0.3510 -0.6770 -0.8041
   35DOPE  H18T 4468   4.041   3.295  14.396 -0.5047 -0.9033 -0.9889
   35DOPE   C33 4469   3.936   3.254  12.475 -0.5294 -0.1409 -0.3946
   35DOPE   H3X 4470   3.867   3.171  12.501  0.9020 -0.5394  2.5588
   35DOPE   H3Y 4471   3.874   3.313  12.404 -0.2984  0.0445 -0.4389
   35DOPE   C34 4472   3.988   3.338  12.594  1.0194  0.3122 -0.8501
   35DOPE   H4X 4473   4.075   3.293  12.648 -0.3758 -1.2806  0.1505
   35DOPE   H4Y 4474   4.012   3.436  12.547 -0.9457  0.9940 -0.4928
   35DOPE   C35 4475   3.882   3.359  12.707  0.4003  0.3450  0.5908
   35DOPE   H5X 4476   3.790   3.386  12.651  0.8636  0.1206 -0.3000
   35DOPE   H5Y 4477   3.908   3.447  12.769  2.1377 -0.9615  1.8264
   35DOPE   C36 4478   3.860   3.244  12.812  0.3438 -0.0314  0.6665
   35DOPE   H6X 4479   3.826   3.147  12.770 -3.9464  0.8339  1.6394
   35DOPE   H6Y 4480   3.770   3.279  12.867 -0.9691 -0.7918 -0.9037
   35DOPE   C37 4481   3.982   3.218  12.902  0.5780 -0.2016  0.1545
   35DOPE   H7X 4482   3.942   3.161  12.988  2.0114 -0.6990  0.5208
   35DOPE   H7Y 4483   4.049   3.159  12.834  0.5489 -0.5018  0.3843
   35DOPE   C38 4484   4.052   3.350  12.962 -0.8171 -0.2332 -0.6338
   35DOPE   H8X 4485   4.091   3.424  12.888  2.0426 -0.6489  0.3256
   35DOPE   H8Y 4486   4.150   3.316  13.002  0.5978  3.4049 -0.5909
   35DOPE   C39 4487   3.979   3.424  13.072  0.0927  0.7382 -0.3446
   35DOPE   H9X 4488   3.898   3.492  13.042 -0.4312  0.5869  0.7034
   35DOPE  C310 4489   3.980   3.390  13.205  0.1053  0.2327  0.5564
   35DOPE  H10X 4490   3.916   3.443  13.277 -1.1365 -0.1072 -0.2600
   35DOPE  C311 4491   4.069   3.279  13.261  0.4756  0.3469  0.2531
   35DOPE  H11X 4492   4.103   3.207  13.183 -0.0981  1.1379 -0.7537
   35DOPE  H11Y 4493   4.159   3.332  13.299 -0.9564  1.8860  1.6440
   35DOPE  C312 4494   4.019   3.192  13.371  0.2990  0.5733 -0.4127
   35DOPE  H12X 4495   4.086   3.107  13.395  1.2454  1.1250 -1.0557
   35DOPE  H12Y 4496   3.920   3.148  13.345 -0.7760  2.4815  0.2828
   35DOPE  C313 4497   3.981   3.276  13.493  0.8403  0.2383 -0.6995
   35DOPE  H13X 4498   4.071   3.341  13.504  1.1078 -0.1698 -0.4313
   35DOPE  H13Y 4499   3.896   3.341  13.463  1.5857  0.7973 -1.6774
   35DOPE  C314 4500   3.945   3.196  13.615 -0.3349 -0.3542 -0.1250
   35DOPE  H14X 4501   4.025   3.120  13.628  0.3140  0.3374  0.0528
   35DOPE  H14Y 4502   3.861   3.129  13.588  0.7317 -0.7265 -2.8922
   35DOPE  C315 4503   3.911   3.281  13.738  0.2797 -0.2512  0.6704
   35DOPE  H15X 4504   3.812   3.331  13.733 -0.3459 -1.5611 -1.6303
   35DOPE  H15Y 4505   4.001   3.345  13.751  0.4652 -0.6303  1.2590
   35DOPE  C316 4506   3.900   3.189  13.857  0.3973 -0.5166  0.2359
   35DOPE  H16X 4507   4.009   3.172  13.876  0.6803  0.3874 -0.5008
   35DOPE  H16Y 4508   3.867   3.088  13.823  1.1158 -0.7347  0.1663
   35DOPE  C317 4509   3.838   3.254  13.979  0.2803  0.3605 -0.0871
   35DOPE  H17X 4510   3.883   3.355  13.981 -1.5312  1.2021  0.4451
   35DOPE  H17Y 4511   3.729   3.272  13.969  0.3396  0.5701 -0.3785
   35DOPE  C318 4512   3.877   3.182  14.115  0.1587 -1.0758 -0.0692
   35DOPE  H18X 4513   3.852   3.263  14.187 -0.3532 -0.7855 -0.5658
   35DOPE  H18Y 4514   3.817   3.089  14.126  2.0342 -2.5110 -1.2396
   35DOPE  H18Z 4515   3.987   3.167  14.108  0.1680 -0.7241 -0.7862
   36DOPE     N 4516   2.570   5.377  12.591  0.3743 -0.0963 -0.1161
   36DOPE   HN1 4517   2.670   5.356  12.607 -0.3993 -2.4879  2.4096
   36DOPE   HN2 4518   2.568   5.424  12.498  1.8610 -1.2162 -0.7591
   36DOPE   HN3 4519   2.539   5.445  12.663 -1.2561 -1.2512  0.3527
   36DOPE   C12 4520   2.484   5.260  12.594  0.4993 -0.4407  0.4329
   36DOPE  H12A 4521   2.392   5.283  12.536  1.0086  1.7988  0.4171
   36DOPE  H12B 4522   2.455   5.246  12.701  0.5587  0.8425  0.6274
   36DOPE   C11 4523   2.553   5.140  12.528  0.1625  0.3665  0.9036
   36DOPE  H11A 4524   2.577   5.153  12.421 -2.4202 -0.8471  0.1074
   36DOPE  H11B 4525   2.484   5.055  12.545 -0.3576  0.9735  1.9491
   36DOPE     P 4526   2.770   4.997  12.560  0.1880 -0.1260  0.1775
   36DOPE   O13 4527   2.839   5.049  12.443  0.9234 -1.0599 -0.1775
   36DOPE   O14 4528   2.682   4.878  12.539  0.4305  0.0223  0.0084
   36DOPE   O11 4529   2.871   4.977  12.676  0.0646  0.2771 -0.3216
   36DOPE   O12 4530   2.673   5.122  12.602  0.1398 -0.2358 -0.0295
   36DOPE    C1 4531   2.959   5.078  12.719 -0.6357  0.1223  0.1140
   36DOPE    HA 4532   2.919   5.182  12.723 -0.0992  0.4258 -1.5811
   36DOPE    HB 4533   3.022   5.100  12.630 -3.1579 -1.0700 -2.1410
   36DOPE    C2 4534   3.040   5.056  12.849 -0.4660  0.0966 -0.2281
   36DOPE    HS 4535   3.142   5.098  12.841 -1.1558  2.1424  0.9728
   36DOPE   O21 4536   3.070   4.922  12.881 -0.4367 -0.3669  0.0027
   36DOPE   C21 4537   3.132   4.849  12.780  0.3681  0.8450 -0.0820
   36DOPE   O22 4538   3.179   4.890  12.680 -0.2367 -0.2173  0.2499
   36DOPE   C22 4539   3.103   4.706  12.807 -0.2101  1.0401 -0.1260
   36DOPE   H2R 4540   2.994   4.683  12.811  0.0814 -0.2867  0.6635
   36DOPE   H2S 4541   3.140   4.679  12.908 -0.3045 -0.4782 -0.4718
   36DOPE    C3 4542   2.967   5.118  12.970  0.1925  0.0924 -0.6791
   36DOPE    HX 4543   2.860   5.088  12.966  0.2505 -0.9125  2.2233
   36DOPE    HY 4544   2.967   5.229  12.967 -1.1897  0.2436  1.7109
   36DOPE   O31 4545   3.029   5.075  13.095  0.3764  0.4629  0.1786
   36DOPE   C31 4546   2.962   5.120  13.199  0.0949 -0.2890 -0.7222
   36DOPE   O32 4547   2.887   5.218  13.198 -0.2801  0.0315 -0.0772
   36DOPE   C32 4548   2.992   5.037  13.315 -0.0519 -0.4781  0.5955
   36DOPE   H2X 4549   2.926   4.949  13.296  0.0037 -0.7042  1.4102
   36DOPE   H2Y 4550   3.098   5.005  13.309 -0.1073 -0.8286  1.3137
   36DOPE   C23 4551   3.178   4.615  12.709  0.0643  0.1738  0.1919
   36DOPE   H3R 4552   3.150   4.642  12.605  0.2528 -2.8308 -0.7305
   36DOPE   H3S 4553   3.135   4.514  12.725 -1.1097  0.6759  0.3145
   36DOPE   C24 4554   3.327   4.628  12.719  0.3604  0.5338  1.1970
   36DOPE   H4R 4555   3.348   4.724  12.668  1.3076  0.1344  0.8073
   36DOPE   H4S 4556   3.373   4.555  12.649 -0.8878 -0.0621  0.9702
   36DOPE   C25 4557   3.401   4.630  12.852 -0.4108  0.3057  0.4411
   36DOPE   H5R 4558   3.353   4.559  12.922 -0.4046 -0.4393 -0.2874
   36DOPE   H5S 4559   3.403   4.730  12.900  0.9698  0.3679  0.2994
   36DOPE   C26 4560   3.546   4.590  12.833  1.1911 -0.8235  0.7322
   36DOPE   H6R 4561   3.595   4.667  12.770 -1.3996  0.2905 -0.0485
   36DOPE   H6S 4562   3.544   4.498  12.770 -1.0667 -0.1566 -0.2516
   36DOPE   C27 4563   3.630   4.569  12.959 -0.0150 -0.2726 -0.2003
   36DOPE   H7R 4564   3.591   4.475  13.003 -1.5232 -0.0397 -0.9645
   36DOPE   H7S 4565   3.600   4.658  13.018 -0.1202 -0.3593 -0.1246
   36DOPE   C28 4566   3.784   4.568  12.954  0.3407  0.3522  0.2874
   36DOPE   H8R 4567   3.799   4.504  12.865 -0.5393  3.6097 -2.3941
   36DOPE   H8S 4568   3.817   4.535  13.055  0.5475  1.4064  0.5715
   36DOPE   C29 4569   3.847   4.703  12.924 -0.2203 -0.4608  0.1537
   36DOPE   H9R 4570   3.884   4.715  12.821  0.3608 -0.0801  0.4037
   36DOPE  C210 4571   3.886   4.799  13.015  0.2264 -0.2865  0.8993
   36DOPE  H10R 4572   3.945   4.889  12.991 -2.0956  0.8918 -0.7151
   36DOPE  C211 4573   3.861   4.783  13.168 -0.3371 -0.2423 -0.8948
   36DOPE  H11R 4574   3.805   4.699  13.213  2.0387 -1.8912 -0.8290
   36DOPE  H11S 4575   3.800   4.873  13.189  0.6805  1.0058 -2.9291
   36DOPE  C212 4576   3.998   4.812  13.248 -0.1634  0.1531 -0.7980
   36DOPE  H12R 4577   4.074   4.866  13.188 -0.4107 -1.6337 -2.8446
   36DOPE  H12S 4578   4.045   4.711  13.248 -0.9574 -0.2700  1.1349
   36DOPE  C213 4579   3.996   4.865  13.394  0.5567  0.6697  0.2838
   36DOPE  H13R 4580   4.000   4.976  13.392 -1.7862  0.7860 -0.5051
   36DOPE  H13S 4581   4.091   4.825  13.436  0.0239 -2.4354 -1.1720
   36DOPE  C214 4582   3.874   4.818  13.475  0.2484 -0.1856  0.4027
   36DOPE  H14R 4583   3.863   4.707  13.475 -1.3348 -0.0571  0.6016
   36DOPE  H14S 4584   3.787   4.855  13.417  1.6738 -1.9010 -3.1633
   36DOPE  C215 4585   3.859   4.877  13.615 -1.0497 -0.2591  0.4445
   36DOPE  H15R 4586   3.766   4.836  13.659  0.8507 -3.1124  2.0982
   36DOPE  H15S 4587   3.861   4.988  13.625 -1.2176 -0.2973  0.9238
   36DOPE  C216 4588   3.973   4.846  13.697 -0.0282  0.3633  0.0569
   36DOPE  H16R 4589   4.067   4.883  13.653  1.7793 -0.4953  2.9283
   36DOPE  H16S 4590   3.989   4.736  13.704  1.5088  0.6187  0.8900
   36DOPE  C217 4591   3.960   4.903  13.838  0.4065  0.1064  0.3424
   36DOPE  H17R 4592   3.932   5.009  13.823  0.5385 -0.1046 -1.7887
   36DOPE  H17S 4593   4.065   4.890  13.873 -0.0816 -0.3234  1.6876
   36DOPE  C218 4594   3.857   4.830  13.927  0.4084 -0.3891  0.4712
   36DOPE  H18R 4595   3.848   4.876  14.027 -1.0262  0.4299 -0.0014
   36DOPE  H18S 4596   3.889   4.724  13.927 -0.8812 -0.8129 -0.1307
   36DOPE  H18T 4597   3.756   4.828  13.879  1.3159  1.8348 -1.7530
   36DOPE   C33 4598   2.974   5.114  13.451 -0.4026  0.9859 -0.4515
   36DOPE   H3X 4599   2.864   5.130  13.456 -0.7643 -1.0582 -0.8032
   36DOPE   H3Y 4600   3.031   5.209  13.452 -0.2551  0.8992 -0.5393
   36DOPE   C34 4601   3.011   5.024  13.579 -0.0789 -0.0320 -0.1467
   36DOPE   H4X 4602   2.961   4.926  13.561  2.8242 -1.6457 -0.1518
   36DOPE   H4Y 4603   3.120   5.001  13.569 -0.6137 -2.9327 -0.3008
   36DOPE   C35 4604   2.967   5.081  13.717 -0.6107  0.7508 -0.7072
   36DOPE   H5X 4605   2.857   5.089  13.726 -0.4071  1.5781  2.2438
   36DOPE   H5Y 4606   3.010   5.183  13.718 -0.3615  0.6668  0.9259
   36DOPE   C36 4607   3.037   5.012  13.833  0.7689  0.1211 -0.2864
   36DOPE   H6X 4608   3.144   4.990  13.811  0.9678 -1.4332  1.8454
   36DOPE   H6Y 4609   2.992   4.910  13.842  3.1789 -1.0149 -0.3057
   36DOPE   C37 4610   3.048   5.084  13.971 -0.4267  0.1100  0.0043
   36DOPE   H7X 4611   3.133   5.040  14.026 -2.0347 -0.6570  2.0012
   36DOPE   H7Y 4612   3.076   5.187  13.938 -1.5325 -0.3616 -2.7302
   36DOPE   C38 4613   2.926   5.082  14.058  0.5764  0.2350  0.2555
   36DOPE   H8X 4614   2.890   4.981  14.090 -3.1443  1.6044  0.9236
   36DOPE   H8Y 4615   2.847   5.113  13.986  0.3770 -1.4898 -0.3336
   36DOPE   C39 4616   2.937   5.164  14.181 -0.7474 -0.2793  0.5665
   36DOPE   H9X 4617   2.896   5.265  14.168  1.2941  0.6084  0.5036
   36DOPE  C310 4618   3.021   5.135  14.285 -0.3741 -0.5981  0.1626
   36DOPE  H10X 4619   3.023   5.209  14.366 -0.7832 -1.9048  1.4074
   36DOPE  C311 4620   3.082   5.004  14.312 -0.5420  0.0016 -0.5260
   36DOPE  H11X 4621   3.023   4.920  14.271  0.1415 -1.1080  0.7196
   36DOPE  H11Y 4622   3.188   4.997  14.279 -0.4356  0.1462 -0.2134
   36DOPE  C312 4623   3.095   4.983  14.465 -0.4856  0.2910 -0.6479
   36DOPE  H12X 4624   3.003   5.005  14.524  1.0977 -2.3450  3.2245
   36DOPE  H12Y 4625   3.171   5.055  14.502 -0.0148  0.4805 -1.9331
   36DOPE  C313 4626   3.119   4.838  14.489 -0.1028 -0.0209 -0.4251
   36DOPE  H13X 4627   3.028   4.784  14.455 -0.4519  1.0039 -1.1907
   36DOPE  H13Y 4628   3.198   4.805  14.418  0.1762  1.5667 -0.8939
   36DOPE  C314 4629   3.166   4.807  14.633  0.3968  0.4622 -0.2938
   36DOPE  H14X 4630   3.260   4.861  14.654 -0.4489  1.1137  2.1588
   36DOPE  H14Y 4631   3.179   4.697  14.646  0.5486  0.6564  1.4201
   36DOPE  C315 4632   3.076   4.865  14.743 -0.3711 -0.0245  0.2346
   36DOPE  H15X 4633   2.972   4.826  14.736  0.4164 -2.7544  1.9106
   36DOPE  H15Y 4634   3.071   4.975  14.746 -3.9741 -0.0577 -0.8167
   36DOPE  C316 4635   3.115   4.824  14.885  0.1634 -0.7494 -0.6565
   36DOPE  H16X 4636   3.210   4.876  14.908  0.4102 -1.3272 -0.3255
   36DOPE  H16Y 4637   3.141   4.716  14.885  1.3203 -0.6198 -4.8422
   36DOPE  C317 4638   3.010   4.879  14.990  0.2779  0.4863  0.3416
   36DOPE  H17X 4639   2.994   4.989  14.977 -1.4966  0.2874  0.7048
   36DOPE  H17Y 4640   2.914   4.827  14.976  0.5294 -0.4272  1.8150
   36DOPE  C318 4641   3.068   4.869  15.138 -0.0301 -0.3363  0.2279
   36DOPE  H18X 4642   3.114   4.769  15.152  1.4491  0.5109  1.7311
   36DOPE  H18Y 4643   3.145   4.945  15.161  1.6474 -1.5297 -1.1818
   36DOPE  H18Z 4644   2.984   4.869  15.210 -0.4158  0.4019 -0.2155
   37DOPE     N 4645   1.999   3.707  12.417 -0.0749  0.1111  0.1707
   37DOPE   HN1 4646   1.932   3.772  12.462  0.0968  0.0903  0.4614
   37DOPE   HN2 4647   2.062   3.764  12.356 -1.6460  2.9098  1.0062
   37DOPE   HN3 4648   1.944   3.645  12.354  1.4413 -2.5899  1.3302
   37DOPE   C12 4649   2.082   3.608  12.510  0.4768 -0.4828  0.3927
   37DOPE  H12A 4650   2.000   3.545  12.550 -0.2577 -1.0906 -1.9246
   37DOPE  H12B 4651   2.129   3.671  12.589 -0.1894 -0.7053  0.9800
   37DOPE   C11 4652   2.186   3.529  12.426 -0.1891 -0.1291  0.4826
   37DOPE  H11A 4653   2.123   3.461  12.364  0.2638  0.6169 -0.8521
   37DOPE  H11B 4654   2.253   3.462  12.484  0.5200 -1.1987 -1.4631
   37DOPE     P 4655   2.390   3.692  12.376  0.0016 -0.1904 -0.0439
   37DOPE   O13 4656   2.416   3.786  12.265 -0.4538 -0.0401 -0.1012
   37DOPE   O14 4657   2.499   3.589  12.404  0.5172 -0.4204  0.5775
   37DOPE   O11 4658   2.358   3.761  12.514  0.4425 -0.0150 -0.4099
   37DOPE   O12 4659   2.259   3.616  12.335  0.1718 -0.5357 -0.7347
   37DOPE    C1 4660   2.449   3.776  12.624 -0.2854  0.3140 -0.8898
   37DOPE    HA 4661   2.482   3.881  12.638 -1.2490  0.2920  2.2343
   37DOPE    HB 4662   2.546   3.727  12.599 -1.0015 -0.6693 -1.8813
   37DOPE    C2 4663   2.401   3.721  12.756 -0.3358 -0.1991 -0.1310
   37DOPE    HS 4664   2.479   3.729  12.835 -0.9492 -0.0171  0.4694
   37DOPE   O21 4665   2.349   3.586  12.739  0.3272 -0.4400 -0.1825
   37DOPE   C21 4666   2.451   3.499  12.739  0.2453 -0.0524 -0.2828
   37DOPE   O22 4667   2.566   3.521  12.744  0.0092  0.2758  0.0508
   37DOPE   C22 4668   2.403   3.357  12.730  0.6379 -0.1463 -0.1223
   37DOPE   H2R 4669   2.481   3.282  12.755  1.9585  0.2029 -2.7974
   37DOPE   H2S 4670   2.361   3.336  12.629 -0.8262  0.2347  0.3870
   37DOPE    C3 4671   2.280   3.808  12.812  0.7079  0.1754  0.5452
   37DOPE    HX 4672   2.208   3.820  12.728  0.5541  2.3993  0.9298
   37DOPE    HY 4673   2.321   3.910  12.828  1.1389 -0.0124  0.6478
   37DOPE   O31 4674   2.227   3.756  12.937  0.2900  0.1170  0.1859
   37DOPE   C31 4675   2.105   3.711  12.932  0.5974  0.6329  0.0217
   37DOPE   O32 4676   2.030   3.697  12.835  0.2156  0.1364 -0.9667
   37DOPE   C32 4677   2.062   3.666  13.073 -1.1302 -0.6343 -0.0141
   37DOPE   H2X 4678   2.159   3.637  13.120 -0.1788  0.9718 -0.8983
   37DOPE   H2Y 4679   2.029   3.759  13.125  0.2787  0.2276 -0.6016
   37DOPE   C23 4680   2.296   3.342  12.843  0.5282  0.1666  0.5450
   37DOPE   H3R 4681   2.247   3.246  12.818 -0.0730  0.5767  0.1059
   37DOPE   H3S 4682   2.222   3.423  12.825  1.9647  1.3224 -0.4701
   37DOPE   C24 4683   2.367   3.350  12.980  0.7528  0.1152 -0.4584
   37DOPE   H4R 4684   2.372   3.455  13.015  0.8098 -0.8945  2.9347
   37DOPE   H4S 4685   2.469   3.307  12.973  0.1942 -1.2408 -0.5355
   37DOPE   C25 4686   2.295   3.285  13.098  0.1342  0.7976 -0.6462
   37DOPE   H5R 4687   2.285   3.179  13.064 -1.2168  0.5800  0.3566
   37DOPE   H5S 4688   2.194   3.324  13.121 -0.6112 -1.2587 -0.1800
   37DOPE   C26 4689   2.388   3.280  13.216  0.1121  0.6939  0.0898
   37DOPE   H6R 4690   2.487   3.244  13.182 -0.5002 -0.5576 -0.4326
   37DOPE   H6S 4691   2.358   3.192  13.279  0.4257 -0.1430 -0.9011
   37DOPE   C27 4692   2.387   3.413  13.296  1.0421  0.2427 -0.0445
   37DOPE   H7R 4693   2.284   3.410  13.337 -0.5143 -0.6212 -3.6698
   37DOPE   H7S 4694   2.400   3.497  13.225 -1.7760 -0.4152 -1.4529
   37DOPE   C28 4695   2.485   3.420  13.415  0.3653 -0.1461 -0.1589
   37DOPE   H8R 4696   2.452   3.503  13.481  0.0675 -1.7542  1.8173
   37DOPE   H8S 4697   2.591   3.441  13.391  1.0917 -2.3952  0.8674
   37DOPE   C29 4698   2.490   3.291  13.487  0.2607  0.3225  0.2665
   37DOPE   H9R 4699   2.539   3.216  13.424 -2.2137  1.4127 -3.2451
   37DOPE  C210 4700   2.442   3.275  13.611 -0.4998 -0.1980 -0.2535
   37DOPE  H10R 4701   2.452   3.176  13.659 -1.5445  0.1639  0.7504
   37DOPE  C211 4702   2.382   3.382  13.701  0.0536  0.3401 -1.1612
   37DOPE  H11R 4703   2.277   3.398  13.668 -0.0993 -0.6764 -1.2141
   37DOPE  H11S 4704   2.428   3.483  13.696 -2.0498  1.2959 -2.9224
   37DOPE  C212 4705   2.368   3.334  13.843  0.1654 -0.3474  0.1491
   37DOPE  H12R 4706   2.327   3.232  13.852  0.9522 -0.5332  2.3001
   37DOPE  H12S 4707   2.293   3.396  13.896 -1.8542 -1.3914 -1.3847
   37DOPE  C213 4708   2.503   3.331  13.927  0.3316 -0.7410 -0.2050
   37DOPE  H13R 4709   2.544   3.434  13.934 -1.5976  0.0401  0.5913
   37DOPE  H13S 4710   2.578   3.268  13.876  1.1667  0.0736 -0.0088
   37DOPE  C214 4711   2.501   3.290  14.079 -0.2630 -0.5293  0.3550
   37DOPE  H14R 4712   2.461   3.188  14.089  1.8824 -1.4513  0.1783
   37DOPE  H14S 4713   2.422   3.347  14.132 -1.5356 -1.4801 -0.4616
   37DOPE  C215 4714   2.640   3.305  14.142 -1.1229  0.6902  0.2823
   37DOPE  H15R 4715   2.637   3.415  14.151 -1.0855  0.6238  1.1637
   37DOPE  H15S 4716   2.715   3.280  14.063 -2.7446 -0.0292 -1.1061
   37DOPE  C216 4717   2.658   3.245  14.278  0.2001  0.8114  0.1673
   37DOPE  H16R 4718   2.645   3.135  14.266 -2.1323  1.2461 -2.4061
   37DOPE  H16S 4719   2.567   3.267  14.338 -1.0590  0.2860 -1.4574
   37DOPE  C217 4720   2.782   3.293  14.349  0.1763 -0.4768 -0.2192
   37DOPE  H17R 4721   2.766   3.398  14.383  4.7390  0.4055 -0.0745
   37DOPE  H17S 4722   2.866   3.283  14.277  0.3642  0.6075 -0.1643
   37DOPE  C218 4723   2.815   3.210  14.467  0.4131 -0.1428  0.1943
   37DOPE  H18R 4724   2.911   3.251  14.503 -0.0498  2.5096 -1.3008
   37DOPE  H18S 4725   2.825   3.103  14.439  1.2647 -0.8568  2.9533
   37DOPE  H18T 4726   2.732   3.226  14.539 -0.7755 -0.9454 -0.9374
   37DOPE   C33 4727   1.956   3.565  13.083 -0.4196 -0.0748 -0.3652
   37DOPE   H3X 4728   2.003   3.472  13.043  0.0137  0.5124 -1.2573
   37DOPE   H3Y 4729   1.868   3.589  13.020 -0.0745  0.2325 -0.7319
   37DOPE   C34 4730   1.907   3.536  13.221 -0.5895  0.2022  0.4452
   37DOPE   H4X 4731   1.882   3.633  13.270  0.5867  0.5500  0.3951
   37DOPE   H4Y 4732   1.812   3.479  13.214 -0.5613  0.3244 -1.4106
   37DOPE   C35 4733   2.007   3.456  13.309 -0.0307  0.9564  0.4575
   37DOPE   H5X 4734   2.099   3.518  13.317  1.5347 -0.9599 -1.4459
   37DOPE   H5Y 4735   2.039   3.361  13.261 -1.4721  1.0753 -0.8015
   37DOPE   C36 4736   1.951   3.414  13.450 -0.2146  0.2159  0.7192
   37DOPE   H6X 4737   2.023   3.342  13.495 -0.8869  0.1157  1.6573
   37DOPE   H6Y 4738   1.848   3.375  13.432 -0.4477  0.0498  2.2673
   37DOPE   C37 4739   1.926   3.530  13.543 -0.5632 -0.1407  0.2772
   37DOPE   H7X 4740   2.020   3.587  13.558 -1.2866  0.9688  0.7155
   37DOPE   H7Y 4741   1.864   3.610  13.496  0.1382 -0.4497 -1.2376
   37DOPE   C38 4742   1.869   3.493  13.683  0.4298  0.2207  0.4739
   37DOPE   H8X 4743   1.946   3.425  13.725  0.9863  0.1448 -0.6258
   37DOPE   H8Y 4744   1.771   3.443  13.670 -0.1646  0.1688  4.1081
   37DOPE   C39 4745   1.851   3.616  13.766  0.0341 -0.6999 -0.6391
   37DOPE   H9X 4746   1.781   3.688  13.721 -0.7622  0.1278  1.7699
   37DOPE  C310 4747   1.908   3.649  13.883  0.0681 -0.1430  0.0041
   37DOPE  H10X 4748   1.903   3.753  13.921  2.2166 -0.3938  1.1354
   37DOPE  C311 4749   1.992   3.560  13.977 -0.3504 -0.2291 -0.4595
   37DOPE  H11X 4750   1.974   3.454  13.950  0.3852  0.1027 -2.4029
   37DOPE  H11Y 4751   2.098   3.577  13.948 -0.2979 -0.7451 -0.5766
   37DOPE  C312 4752   1.957   3.593  14.123 -0.0265 -0.3124 -0.0618
   37DOPE  H12X 4753   1.853   3.566  14.153 -0.2254  0.6798  0.1624
   37DOPE  H12Y 4754   1.970   3.701  14.142 -0.9488  0.0131 -1.1575
   37DOPE  C313 4755   2.066   3.526  14.217 -0.6825  0.3280  0.2793
   37DOPE  H13X 4756   2.056   3.418  14.193 -0.1737 -0.0021  1.4782
   37DOPE  H13Y 4757   2.171   3.551  14.191 -0.7828  0.2893 -0.1746
   37DOPE  C314 4758   2.040   3.547  14.369 -0.4676 -0.2565  0.6811
   37DOPE  H14X 4759   2.041   3.654  14.399  0.0158 -0.3693  1.0854
   37DOPE  H14Y 4760   2.123   3.495  14.422 -0.3943  1.2481  2.1209
   37DOPE  C315 4761   1.922   3.480  14.431 -0.1555 -0.2583 -0.1142
   37DOPE  H15X 4762   1.904   3.376  14.398 -0.0234 -0.3825  0.2043
   37DOPE  H15Y 4763   1.834   3.547  14.417 -1.0206 -1.6488 -1.6558
   37DOPE  C316 4764   1.940   3.461  14.585  0.3940  0.1825 -0.2142
   37DOPE  H16X 4765   1.934   3.563  14.628  2.1633 -0.6692  2.3208
   37DOPE  H16Y 4766   2.043   3.426  14.611 -0.2369 -2.3864 -0.8637
   37DOPE  C317 4767   1.843   3.356  14.631  0.0846  0.0771  0.5472
   37DOPE  H17X 4768   1.741   3.375  14.592  1.0127  2.5512 -0.9338
   37DOPE  H17Y 4769   1.880   3.261  14.588 -0.0864 -0.0061  0.5849
   37DOPE  C318 4770   1.839   3.347  14.783 -0.6209 -0.0105 -0.2093
   37DOPE  H18X 4771   1.939   3.374  14.825  0.0604 -1.4465 -0.8135
   37DOPE  H18Y 4772   1.770   3.415  14.836  2.3511  0.9053  2.8778
   37DOPE  H18Z 4773   1.819   3.246  14.826 -1.5917  0.6815  1.0160
   38DOPE     N 4774   3.422   0.567  12.626 -0.3393 -0.4193  0.7101
   38DOPE   HN1 4775   3.496   0.548  12.556 -1.0498  1.1456 -0.5513
   38DOPE   HN2 4776   3.356   0.489  12.642 -1.0245  0.0917  0.4509
   38DOPE   HN3 4777   3.360   0.641  12.586  0.8075 -0.2218 -0.8112
   38DOPE   C12 4778   3.472   0.602  12.764 -0.4554  0.7783  0.0372
   38DOPE  H12A 4779   3.402   0.592  12.849 -0.2549 -3.0915 -0.1102
   38DOPE  H12B 4780   3.502   0.709  12.756 -2.2452  1.2369 -1.2888
   38DOPE   C11 4781   3.588   0.518  12.803  0.3308  0.3983  0.4104
   38DOPE  H11A 4782   3.548   0.415  12.810 -2.0756  1.3537  2.2765
   38DOPE  H11B 4783   3.624   0.547  12.904 -0.0398 -1.2797  1.0525
   38DOPE     P 4784   3.797   0.639  12.703  0.1208 -0.5749 -0.3549
   38DOPE   O13 4785   3.718   0.748  12.648  0.0442 -0.0560  0.4099
   38DOPE   O14 4786   3.915   0.586  12.631 -0.0582 -0.1607 -0.0541
   38DOPE   O11 4787   3.840   0.666  12.854  0.3321  0.0867  0.0897
   38DOPE   O12 4788   3.700   0.525  12.715  0.2176 -0.2368  0.3672
   38DOPE    C1 4789   3.957   0.614  12.917  0.4556 -0.0214 -0.7699
   38DOPE    HA 4790   3.940   0.630  13.026 -1.7442 -0.3580 -1.0071
   38DOPE    HB 4791   4.049   0.664  12.881 -0.0847  0.0666 -2.0893
   38DOPE    C2 4792   3.979   0.464  12.916  0.0257  0.7361 -0.0632
   38DOPE    HS 4793   4.005   0.429  12.814 -2.0227  0.4058 -0.5049
   38DOPE   O21 4794   3.865   0.392  12.966  0.4732  0.3559  0.3334
   38DOPE   C21 4795   3.842   0.275  12.901  0.1008 -0.3768 -0.2875
   38DOPE   O22 4796   3.898   0.228  12.806 -0.0510  0.2277  0.2919
   38DOPE   C22 4797   3.729   0.211  12.977 -0.6728 -0.0118 -0.7079
   38DOPE   H2R 4798   3.649   0.203  12.900 -1.4674  1.1400 -0.0542
   38DOPE   H2S 4799   3.690   0.285  13.050  1.4219  0.3625  0.0903
   38DOPE    C3 4800   4.109   0.433  12.999  0.7937  0.0811 -0.0669
   38DOPE    HX 4801   4.192   0.495  12.959  0.8199  0.2540  0.2552
   38DOPE    HY 4802   4.132   0.326  12.978  0.1340  0.0555 -0.7131
   38DOPE   O31 4803   4.096   0.466  13.140  0.2828 -0.1887 -0.1211
   38DOPE   C31 4804   4.201   0.458  13.217  0.5136 -0.1827 -0.0438
   38DOPE   O32 4805   4.313   0.436  13.171 -0.0357  0.8944  0.0146
   38DOPE   C32 4806   4.170   0.480  13.361 -0.0819  0.5520 -0.3927
   38DOPE   H2X 4807   4.117   0.578  13.360  0.4243  0.9038  1.6483
   38DOPE   H2Y 4808   4.088   0.410  13.390  1.0095 -1.2748 -1.4951
   38DOPE   C23 4809   3.772   0.082  13.046 -0.0364  0.6771  0.1358
   38DOPE   H3R 4810   3.823   0.007  12.982  0.6202 -1.3949  2.8794
   38DOPE   H3S 4811   3.684   0.026  13.083  0.1901 -0.6781 -1.2478
   38DOPE   C24 4812   3.861   0.100  13.170  0.4841 -0.3364 -0.1967
   38DOPE   H4R 4813   3.954   0.153  13.140 -1.0493  2.3092 -0.6588
   38DOPE   H4S 4814   3.876   0.005  13.225 -2.1379 -0.6378  0.1353
   38DOPE   C25 4815   3.794   0.191  13.275  0.6634  0.0384 -0.1896
   38DOPE   H5R 4816   3.703   0.246  13.244 -0.4623 -1.5202  0.2213
   38DOPE   H5S 4817   3.869   0.272  13.290  0.1400  0.4808  0.0781
   38DOPE   C26 4818   3.768   0.119  13.407 -0.3312 -0.1279  0.0224
   38DOPE   H6R 4819   3.850   0.049  13.433 -0.0900  0.4545  0.8751
   38DOPE   H6S 4820   3.676   0.060  13.391 -0.8297  0.6683 -0.0939
   38DOPE   C27 4821   3.734   0.214  13.519 -0.0494 -0.1083 -1.1285
   38DOPE   H7R 4822   3.625   0.220  13.541  0.3048 -0.6881  0.9916
   38DOPE   H7S 4823   3.766   0.315  13.485  1.1149  1.1952  3.1391
   38DOPE   C28 4824   3.817   0.197  13.647 -0.1961  0.0189 -0.0380
   38DOPE   H8R 4825   3.794   0.292  13.700  0.5750 -0.3362  0.9515
   38DOPE   H8S 4826   3.924   0.205  13.618  0.1451  1.4710  1.4316
   38DOPE   C29 4827   3.782   0.073  13.722  0.4711 -0.4260  0.2037
   38DOPE   H9R 4828   3.721   0.004  13.662 -0.5226  0.2887  0.3684
   38DOPE  C210 4829   3.837   0.035  13.846 -0.2080 -0.6841  0.4442
   38DOPE  H10R 4830   3.812  -0.054  13.905  0.1361 -0.9194  0.2382
   38DOPE  C211 4831   3.947   0.105  13.916  0.1888 -0.3265 -0.2736
   38DOPE  H11R 4832   3.958   0.197  13.855 -0.8230  0.3515  0.5354
   38DOPE  H11S 4833   4.044   0.054  13.900  0.7115  0.9698 -1.4976
   38DOPE  C212 4834   3.917   0.151  14.060  0.0637  0.7286  0.0189
   38DOPE  H12R 4835   3.852   0.241  14.055 -1.5682 -0.2414  2.2488
   38DOPE  H12S 4836   4.015   0.174  14.107  0.9531 -1.7145 -0.5062
   38DOPE  C213 4837   3.858   0.052  14.157 -0.1211  0.2445  0.2756
   38DOPE  H13R 4838   3.926  -0.033  14.179  0.3942  0.8923  1.2580
   38DOPE  H13S 4839   3.767   0.002  14.117  1.3494 -0.3568 -2.5647
   38DOPE  C214 4840   3.822   0.119  14.295 -0.2066  0.6223 -0.2649
   38DOPE  H14R 4841   3.744   0.196  14.277 -0.4395  0.2309 -0.9521
   38DOPE  H14S 4842   3.915   0.166  14.333  0.0505  1.0989 -1.4425
   38DOPE  C215 4843   3.767   0.016  14.403 -0.0567  0.1688  0.9109
   38DOPE  H15R 4844   3.841  -0.065  14.420 -1.0889 -1.1677 -0.7421
   38DOPE  H15S 4845   3.688  -0.049  14.359 -1.1840  2.3406 -0.4309
   38DOPE  C216 4846   3.701   0.076  14.527 -0.3630 -0.1595  0.0672
   38DOPE  H16R 4847   3.633   0.162  14.511  0.7122  0.7935  0.5152
   38DOPE  H16S 4848   3.782   0.103  14.599 -0.5200 -1.1557  0.6351
   38DOPE  C217 4849   3.609  -0.031  14.597  0.0635  0.3555 -0.3478
   38DOPE  H17R 4850   3.574   0.022  14.689  1.1120 -0.5201  0.5776
   38DOPE  H17S 4851   3.664  -0.118  14.638 -3.2043 -1.5859  0.2570
   38DOPE  C218 4852   3.488  -0.087  14.526 -0.2726  0.1225  0.5672
   38DOPE  H18R 4853   3.520  -0.158  14.447  0.6098  0.1341  0.9086
   38DOPE  H18S 4854   3.425  -0.008  14.480 -2.5204 -0.6289  2.1251
   38DOPE  H18T 4855   3.429  -0.146  14.600  0.4831 -0.5416  0.6547
   38DOPE   C33 4856   4.298   0.471  13.450 -0.5267  1.0096  0.3645
   38DOPE   H3X 4857   4.376   0.540  13.412 -0.6912  0.6470 -0.6621
   38DOPE   H3Y 4858   4.329   0.365  13.437  0.1221  1.3243 -0.8206
   38DOPE   C34 4859   4.277   0.511  13.595 -0.2209 -0.0202  0.4280
   38DOPE   H4X 4860   4.377   0.505  13.643 -0.6393 -1.3138  1.1965
   38DOPE   H4Y 4861   4.249   0.618  13.604  2.0403  0.8048 -1.4383
   38DOPE   C35 4862   4.180   0.415  13.675 -1.5090  0.4995 -0.4614
   38DOPE   H5X 4863   4.233   0.321  13.699 -0.2490  0.8350 -1.7999
   38DOPE   H5Y 4864   4.110   0.378  13.597 -1.5934 -1.4651  0.4907
   38DOPE   C36 4865   4.110   0.471  13.795  0.3643 -0.2395  0.3941
   38DOPE   H6X 4866   4.028   0.401  13.821 -1.8320  1.8967 -0.4193
   38DOPE   H6Y 4867   4.067   0.570  13.769 -0.9784 -0.8867  0.0951
   38DOPE   C37 4868   4.195   0.483  13.924 -0.3647  0.3536  0.2370
   38DOPE   H7X 4869   4.259   0.394  13.938  3.3123  2.5324 -1.2332
   38DOPE   H7Y 4870   4.271   0.561  13.905  0.6258 -0.1958  1.7705
   38DOPE   C38 4871   4.123   0.526  14.056  0.9860 -0.2996 -0.9144
   38DOPE   H8X 4872   4.064   0.435  14.077  0.1568 -0.2682 -2.8737
   38DOPE   H8Y 4873   4.043   0.600  14.033  0.4734 -0.6401 -0.2664
   38DOPE   C39 4874   4.209   0.566  14.170  0.8117 -0.1199 -0.7378
   38DOPE   H9X 4875   4.285   0.634  14.129  0.7247  0.0401 -0.6366
   38DOPE  C310 4876   4.210   0.509  14.292  0.5751 -0.1355  0.3705
   38DOPE  H10X 4877   4.271   0.567  14.362  2.4734 -2.1361  0.5006
   38DOPE  C311 4878   4.112   0.407  14.347 -0.7146 -0.5738  0.0890
   38DOPE  H11X 4879   4.012   0.396  14.300 -0.7407 -1.0323  0.2443
   38DOPE  H11Y 4880   4.158   0.306  14.342  1.3021  0.2522  0.8003
   38DOPE  C312 4881   4.093   0.422  14.500  0.8045  1.0598  0.1576
   38DOPE  H12X 4882   4.030   0.511  14.522 -0.6460  0.0260  0.3625
   38DOPE  H12Y 4883   4.192   0.448  14.543  2.6749  0.4063 -3.4162
   38DOPE  C313 4884   4.033   0.294  14.564  0.0279  0.1607  0.2013
   38DOPE  H13X 4885   3.930   0.277  14.524  0.3928 -3.4612  0.4630
   38DOPE  H13Y 4886   4.089   0.205  14.529 -0.3270  1.1189 -3.2109
   38DOPE  C314 4887   4.031   0.306  14.716 -1.0374  0.0108  0.5637
   38DOPE  H14X 4888   3.939   0.360  14.745 -0.4773 -0.6553  4.0054
   38DOPE  H14Y 4889   4.111   0.372  14.755  0.5000 -0.7328 -1.1357
   38DOPE  C315 4890   4.030   0.175  14.794  0.2538 -0.8069 -0.0019
   38DOPE  H15X 4891   3.941   0.110  14.778  0.8614 -1.6433 -0.0503
   38DOPE  H15Y 4892   4.031   0.193  14.903  2.0177 -4.1150  0.6497
   38DOPE  C316 4893   4.156   0.091  14.780 -0.2875 -0.1274  0.5014
   38DOPE  H16X 4894   4.171   0.065  14.674 -3.0963  1.3170 -0.3608
   38DOPE  H16Y 4895   4.150  -0.004  14.836  0.6413 -1.7400 -1.9995
   38DOPE  C317 4896   4.276   0.164  14.825 -0.4547 -0.2705  0.0859
   38DOPE  H17X 4897   4.360   0.108  14.779 -0.6670 -0.0250 -0.6099
   38DOPE  H17Y 4898   4.293   0.268  14.789 -0.1619  0.3531  1.9236
   38DOPE  C318 4899   4.279   0.162  14.981 -0.0724  0.0366 -0.1818
   38DOPE  H18X 4900   4.273   0.055  15.011  0.2772 -0.4178 -1.6117
   38DOPE  H18Y 4901   4.369   0.216  15.017 -0.8251  1.3076 -0.1660
   38DOPE  H18Z 4902   4.192   0.221  15.017 -0.9498 -1.4311  0.1870
   39DOPE     N 4903   1.881   5.000  12.806 -0.1302  0.5581 -0.1384
   39DOPE   HN1 4904   1.835   5.034  12.892 -0.1194  1.5513 -0.5125
   39DOPE   HN2 4905   1.969   4.963  12.846  0.6042  0.7117 -1.5332
   39DOPE   HN3 4906   1.908   5.083  12.749 -1.6434  2.4000  1.6624
   39DOPE   C12 4907   1.803   4.895  12.738 -0.0180  0.2215  0.3955
   39DOPE  H12A 4908   1.856   4.803  12.770  0.9187  1.0850  1.3807
   39DOPE  H12B 4909   1.812   4.909  12.628  0.6910  1.5171  0.6038
   39DOPE   C11 4910   1.653   4.881  12.777  0.0656  0.4018  0.2457
   39DOPE  H11A 4911   1.648   4.858  12.886  2.7872  1.0801  0.6032
   39DOPE  H11B 4912   1.615   4.794  12.720  0.0607  0.1574  0.6168
   39DOPE     P 4913   1.421   5.009  12.744 -0.1937 -0.1284 -0.1173
   39DOPE   O13 4914   1.361   4.910  12.653 -0.1500 -0.0881 -0.0171
   39DOPE   O14 4915   1.378   5.150  12.709  0.6447 -0.1757 -0.0392
   39DOPE   O11 4916   1.388   4.970  12.883  0.2038 -0.4113 -0.4572
   39DOPE   O12 4917   1.581   4.990  12.738  0.5334 -0.3048  0.3673
   39DOPE    C1 4918   1.456   5.006  13.003 -0.1474 -0.1253  0.3921
   39DOPE    HA 4919   1.543   5.074  12.992 -1.1188  1.2130  0.7034
   39DOPE    HB 4920   1.503   4.917  13.049 -0.8172 -0.7218 -0.0408
   39DOPE    C2 4921   1.363   5.062  13.115  0.7966 -0.1568  0.3771
   39DOPE    HS 4922   1.432   5.087  13.199 -0.4255 -1.0551  1.7075
   39DOPE   O21 4923   1.262   4.971  13.149  0.0216 -0.0997 -0.3562
   39DOPE   C21 4924   1.274   4.932  13.280  0.2244 -0.1695 -0.1529
   39DOPE   O22 4925   1.380   4.932  13.338  0.0723 -0.0802 -0.5191
   39DOPE   C22 4926   1.141   4.903  13.343 -0.0945  0.3750 -0.8832
   39DOPE   H2R 4927   1.094   4.815  13.293 -2.9820  1.4060 -0.1471
   39DOPE   H2S 4928   1.072   4.985  13.316  0.8475  0.7658 -2.2098
   39DOPE    C3 4929   1.301   5.194  13.054  0.3975  0.7878 -0.2205
   39DOPE    HX 4930   1.245   5.155  12.966 -0.0646  0.8651  0.0363
   39DOPE    HY 4931   1.381   5.260  13.013  0.5980 -1.0529 -3.0454
   39DOPE   O31 4932   1.215   5.261  13.146 -0.1434  0.0568  0.0219
   39DOPE   C31 4933   1.173   5.380  13.108  0.8585  0.1093 -0.5568
   39DOPE   O32 4934   1.206   5.441  13.011  0.5025 -0.5107 -0.0463
   39DOPE   C32 4935   1.084   5.431  13.224  0.0008 -0.6925  0.2575
   39DOPE   H2X 4936   1.120   5.517  13.285  0.8569 -0.1002 -1.0437
   39DOPE   H2Y 4937   0.998   5.475  13.170  0.3659 -1.4862 -1.0138
   39DOPE   C23 4938   1.160   4.871  13.496  0.2087  0.1787 -0.1516
   39DOPE   H3R 4939   1.242   4.797  13.512  1.4535  1.2819 -1.2223
   39DOPE   H3S 4940   1.060   4.835  13.527  0.9753  0.0424  2.4508
   39DOPE   C24 4941   1.187   4.998  13.583  0.3143 -0.5205 -0.1615
   39DOPE   H4R 4942   1.118   5.079  13.549 -0.8109 -1.0064  0.8951
   39DOPE   H4S 4943   1.292   5.035  13.575  0.0410  0.1505 -0.8616
   39DOPE   C25 4944   1.157   4.959  13.731 -0.4453  0.1759 -0.3536
   39DOPE   H5R 4945   1.246   4.905  13.769 -0.0176  1.1390  0.0363
   39DOPE   H5S 4946   1.073   4.886  13.735  0.9085 -1.4380 -0.3125
   39DOPE   C26 4947   1.148   5.080  13.826 -0.6514 -0.1076  0.7455
   39DOPE   H6R 4948   1.078   5.158  13.788 -1.5233 -1.3794 -0.3296
   39DOPE   H6S 4949   1.254   5.113  13.829  0.0898 -2.2217 -0.3496
   39DOPE   C27 4950   1.092   5.036  13.969  0.0829  0.1128 -0.3640
   39DOPE   H7R 4951   0.986   5.004  13.957 -0.6176  2.0119  0.4647
   39DOPE   H7S 4952   1.100   5.123  14.037 -0.9409 -0.3239  0.3581
   39DOPE   C28 4953   1.167   4.924  14.046  0.2555 -0.5587 -0.0947
   39DOPE   H8R 4954   1.164   4.838  13.976  2.3647  1.1405 -2.4565
   39DOPE   H8S 4955   1.110   4.895  14.136  2.5845 -1.0238  1.3124
   39DOPE   C29 4956   1.304   4.963  14.090 -0.3539 -0.4875 -0.0214
   39DOPE   H9R 4957   1.373   4.968  14.005  0.1564  2.4964  0.4528
   39DOPE  C210 4958   1.346   4.992  14.215 -0.1707 -0.4708  0.6523
   39DOPE  H10R 4959   1.444   5.041  14.223 -0.5500  0.8492 -1.8089
   39DOPE  C211 4960   1.246   5.002  14.330 -0.4565 -0.3479  0.7413
   39DOPE  H11R 4961   1.142   5.026  14.298  0.4077  2.3419 -0.3072
   39DOPE  H11S 4962   1.264   5.089  14.396 -0.3060 -0.2176  0.5307
   39DOPE  C212 4963   1.246   4.874  14.421 -0.4097  0.1764 -0.4139
   39DOPE  H12R 4964   1.230   4.783  14.359  1.6566 -0.7423  0.2917
   39DOPE  H12S 4965   1.162   4.884  14.494  1.1882 -0.0036  1.5318
   39DOPE  C213 4966   1.365   4.854  14.519  0.4224  0.2351 -0.7379
   39DOPE  H13R 4967   1.454   4.830  14.457  2.5647  1.2757  1.7211
   39DOPE  H13S 4968   1.335   4.767  14.581  1.2856  0.9965  0.8080
   39DOPE  C214 4969   1.409   4.971  14.607 -0.0578  0.1116  0.7875
   39DOPE  H14R 4970   1.320   5.010  14.661  0.1917 -1.2553  2.2511
   39DOPE  H14S 4971   1.424   5.059  14.540  1.9508 -0.2346  0.7419
   39DOPE  C215 4972   1.528   4.953  14.697  0.0762 -0.0127  0.8106
   39DOPE  H15R 4973   1.611   4.931  14.626 -0.7964  0.4009 -0.3851
   39DOPE  H15S 4974   1.524   4.868  14.768  1.5878 -2.9978 -2.3826
   39DOPE  C216 4975   1.571   5.084  14.768  0.7202 -0.6609  0.0428
   39DOPE  H16R 4976   1.635   5.144  14.701  0.4944 -0.1710  0.2594
   39DOPE  H16S 4977   1.644   5.047  14.843  1.2960 -0.5343 -0.4469
   39DOPE  C217 4978   1.460   5.170  14.830  0.3069  0.2476  0.3555
   39DOPE  H17R 4979   1.390   5.207  14.752 -0.2877 -1.8226 -0.1648
   39DOPE  H17S 4980   1.510   5.255  14.880  0.6991  0.4308 -0.3383
   39DOPE  C218 4981   1.370   5.111  14.935  0.0513  0.2202 -0.1416
   39DOPE  H18R 4982   1.287   5.182  14.955  0.2332  0.7605 -1.2079
   39DOPE  H18S 4983   1.430   5.085  15.024  0.4201 -0.8005 -0.6711
   39DOPE  H18T 4984   1.314   5.020  14.903 -0.6030  1.8459 -4.3507
   39DOPE   C33 4985   1.041   5.326  13.324 -0.0323  0.0101 -0.0182
   39DOPE   H3X 4986   1.136   5.296  13.372 -0.0603  0.4582  0.3266
   39DOPE   H3Y 4987   1.011   5.227  13.283  1.7425 -0.7057  0.3267
   39DOPE   C34 4988   0.946   5.372  13.438  0.1154  0.4681 -0.3075
   39DOPE   H4X 4989   0.918   5.477  13.413  2.5727  1.1637 -0.3593
   39DOPE   H4Y 4990   0.858   5.304  13.437  0.4054 -0.0640  2.3453
   39DOPE   C35 4991   0.999   5.370  13.576 -0.5765  0.3799  0.2597
   39DOPE   H5X 4992   1.086   5.432  13.605 -1.5934  3.2286 -2.2978
   39DOPE   H5Y 4993   1.030   5.267  13.607  0.6653  0.3609 -0.9431
   39DOPE   C36 4994   0.891   5.424  13.666  0.2426  0.2596 -0.1030
   39DOPE   H6X 4995   0.794   5.371  13.651 -0.8595  2.4640 -1.3419
   39DOPE   H6Y 4996   0.868   5.528  13.633 -2.9325 -0.4923 -0.5670
   39DOPE   C37 4997   0.917   5.424  13.815 -0.1988 -0.1637 -0.4507
   39DOPE   H7X 4998   0.968   5.327  13.833 -0.3289 -0.6014 -2.2950
   39DOPE   H7Y 4999   0.997   5.499  13.833 -0.7436  0.9320 -2.3364
   39DOPE   C38 5000   0.806   5.424  13.910 -0.2258 -0.2931 -0.2887
   39DOPE   H8X 5001   0.855   5.404  14.008 -2.0086  0.4598  0.8044
   39DOPE   H8Y 5002   0.735   5.339  13.899 -0.9949  0.2848  0.0983
   39DOPE   C39 5003   0.725   5.551  13.924 -0.4128  0.4196 -0.5018
   39DOPE   H9X 5004   0.667   5.575  13.833 -1.1306  0.5392 -0.0146
   39DOPE  C310 5005   0.704   5.631  14.033  0.3522  0.4722 -0.2866
   39DOPE  H10X 5006   0.643   5.720  14.013  0.7005  0.6402 -0.6273
   39DOPE  C311 5007   0.752   5.620  14.163  0.9114 -0.0194  0.4438
   39DOPE  H11X 5008   0.863   5.606  14.166  1.0139  0.2774 -0.9882
   39DOPE  H11Y 5009   0.742   5.721  14.208 -2.1203  0.0953 -0.2986
   39DOPE  C312 5010   0.672   5.525  14.260  0.2059  0.2402  0.3815
   39DOPE  H12X 5011   0.671   5.424  14.214 -1.4315  0.8369 -1.0006
   39DOPE  H12Y 5012   0.570   5.565  14.276  0.7516  0.8479  2.8429
   39DOPE  C313 5013   0.729   5.502  14.396 -0.8328 -0.6770 -0.0795
   39DOPE  H13X 5014   0.661   5.428  14.444 -2.8072  1.3106  0.3234
   39DOPE  H13Y 5015   0.829   5.458  14.374  0.1057  1.1491  0.3884
   39DOPE  C314 5016   0.757   5.622  14.487  0.0815 -0.1035  0.8809
   39DOPE  H14X 5017   0.657   5.663  14.514  0.6265  1.7217  0.2252
   39DOPE  H14Y 5018   0.801   5.700  14.422  0.1890 -1.8452 -1.2814
   39DOPE  C315 5019   0.858   5.589  14.602  0.3142  0.4516  0.4844
   39DOPE  H15X 5020   0.903   5.677  14.653  0.6701 -0.5495  1.9677
   39DOPE  H15Y 5021   0.940   5.527  14.560 -0.4692 -1.1838  1.2842
   39DOPE  C316 5022   0.790   5.511  14.716  0.1377  0.1347 -0.3189
   39DOPE  H16X 5023   0.859   5.496  14.802 -3.4792  1.0978  3.0279
   39DOPE  H16Y 5024   0.752   5.415  14.675 -1.3050  0.3901  0.3657
   39DOPE  C317 5025   0.675   5.580  14.788 -0.1796 -0.1524  0.0172
   39DOPE  H17X 5026   0.717   5.666  14.845 -1.8041 -0.2803  1.5159
   39DOPE  H17Y 5027   0.612   5.638  14.717 -1.3036  0.8967  1.7925
   39DOPE  C318 5028   0.596   5.497  14.891 -0.2301  0.4305 -0.7956
   39DOPE  H18X 5029   0.650   5.485  14.987 -1.7778  0.3233  0.1010
   39DOPE  H18Y 5030   0.505   5.551  14.926 -0.2406 -0.8073  1.2426
   39DOPE  H18Z 5031   0.569   5.398  14.848  0.3920  0.0296 -0.2862
   40DOPE     N 5032   3.051   6.590  12.472  0.6422  0.4519 -0.0656
   40DOPE   HN1 5033   3.053   6.619  12.372  1.8499  0.9419  0.0830
   40DOPE   HN2 5034   3.098   6.662  12.530 -0.5457  1.2389 -0.0449
   40DOPE   HN3 5035   3.106   6.502  12.481  0.6297  0.5200  0.7386
   40DOPE   C12 5036   2.904   6.588  12.497 -0.0393 -0.5079 -0.5236
   40DOPE  H12A 5037   2.862   6.690  12.482  0.3654 -0.1515  0.6466
   40DOPE  H12B 5038   2.899   6.570  12.607  0.4042 -0.2862 -0.4630
   40DOPE   C11 5039   2.830   6.471  12.435 -0.0078  0.5167 -0.7302
   40DOPE  H11A 5040   2.832   6.485  12.324 -0.1838 -0.2746 -0.8397
   40DOPE  H11B 5041   2.724   6.474  12.468  0.6904 -0.7887  1.8745
   40DOPE     P 5042   2.839   6.224  12.533 -0.2238 -0.6500 -0.3391
   40DOPE   O13 5043   2.934   6.110  12.522 -0.2203 -0.1297  0.0619
   40DOPE   O14 5044   2.700   6.194  12.478 -0.6994 -0.1087  0.0020
   40DOPE   O11 5045   2.825   6.277  12.678  0.1578  0.6687 -0.3261
   40DOPE   O12 5046   2.898   6.351  12.459 -0.4284 -0.2512  0.4766
   40DOPE    C1 5047   2.941   6.307  12.761  0.6445 -0.3745 -0.3413
   40DOPE    HA 5048   2.910   6.377  12.842  2.8728 -2.3480  2.4472
   40DOPE    HB 5049   3.021   6.363  12.708  1.3727 -1.0807 -0.0209
   40DOPE    C2 5050   3.005   6.187  12.811 -0.0399  0.0354 -0.2655
   40DOPE    HS 5051   2.972   6.100  12.750 -0.4871  1.8017 -2.7127
   40DOPE   O21 5052   2.980   6.179  12.949  0.5722  0.0088  0.3035
   40DOPE   C21 5053   3.003   6.058  13.004  0.4140  0.4754  0.3267
   40DOPE   O22 5054   3.048   5.960  12.949  0.1147 -0.1881 -1.0308
   40DOPE   C22 5055   2.955   6.064  13.150 -0.2625 -0.2723  0.9415
   40DOPE   H2R 5056   2.846   6.045  13.142 -0.3936  1.1148 -1.2636
   40DOPE   H2S 5057   2.968   6.167  13.190  0.5619 -0.2643  0.6745
   40DOPE    C3 5058   3.164   6.196  12.793 -0.1317  0.5198 -0.6560
   40DOPE    HX 5059   3.171   6.222  12.685  3.1853 -0.0266 -0.6699
   40DOPE    HY 5060   3.210   6.097  12.815  0.5782  1.2585  1.4216
   40DOPE   O31 5061   3.227   6.300  12.863  0.0376 -0.5675  0.8357
   40DOPE   C31 5062   3.306   6.277  12.967 -0.5240  0.1969 -0.6033
   40DOPE   O32 5063   3.329   6.169  13.015 -0.2200  0.3093 -0.3052
   40DOPE   C32 5064   3.349   6.397  13.041  0.8136 -0.8365 -0.5321
   40DOPE   H2X 5065   3.362   6.378  13.149 -0.0669 -1.2141 -0.4830
   40DOPE   H2Y 5066   3.449   6.424  13.001  1.2034 -0.4241  0.7037
   40DOPE   C23 5067   3.025   5.961  13.241 -0.0386 -0.2086  0.4392
   40DOPE   H3R 5068   3.135   5.978  13.249  0.1357 -0.5152 -1.0227
   40DOPE   H3S 5069   3.003   5.856  13.213  2.0660 -0.1127 -1.9360
   40DOPE   C24 5070   2.968   5.980  13.386  0.3639  0.2716 -0.6003
   40DOPE   H4R 5071   2.995   5.895  13.453 -4.1310 -0.9689 -0.0539
   40DOPE   H4S 5072   2.858   5.972  13.374  0.4010 -0.6975 -0.3826
   40DOPE   C25 5073   3.014   6.117  13.449  0.1198  0.4496  0.0591
   40DOPE   H5R 5074   2.985   6.202  13.384  1.3901  1.1007  0.3164
   40DOPE   H5S 5075   3.125   6.113  13.447  0.0778 -1.3123 -1.6005
   40DOPE   C26 5076   2.970   6.132  13.593 -0.0019  0.0888  0.0767
   40DOPE   H6R 5077   2.973   6.035  13.646 -1.2757 -0.1698 -0.2912
   40DOPE   H6S 5078   2.867   6.175  13.594 -0.3151 -0.5962 -1.2951
   40DOPE   C27 5079   3.059   6.230  13.667  0.0913 -0.1844 -0.1230
   40DOPE   H7R 5080   3.042   6.326  13.613  0.4757  0.1254  0.2962
   40DOPE   H7S 5081   3.167   6.203  13.660  0.0456 -0.4031  0.0177
   40DOPE   C28 5082   3.022   6.249  13.815 -0.0580 -0.0323 -0.7267
   40DOPE   H8R 5083   3.060   6.161  13.871 -0.6748 -0.3782 -0.8381
   40DOPE   H8S 5084   2.911   6.253  13.822 -0.3302 -3.8854 -0.6426
   40DOPE   C29 5085   3.083   6.378  13.873  0.1999 -0.4163 -0.8598
   40DOPE   H9R 5086   3.065   6.472  13.820  2.2218 -0.4111 -1.6049
   40DOPE  C210 5087   3.153   6.397  13.985 -0.6812  0.5931 -0.3928
   40DOPE  H10R 5088   3.178   6.496  14.026  0.0089 -0.0746  0.8787
   40DOPE  C211 5089   3.184   6.280  14.084 -0.0807 -0.1541  0.3236
   40DOPE  H11R 5090   3.281   6.305  14.133  0.1102 -1.1926  0.5072
   40DOPE  H11S 5091   3.197   6.180  14.037  0.5695 -0.0819  0.3318
   40DOPE  C212 5092   3.078   6.269  14.195  0.5944 -1.0333 -0.9953
   40DOPE  H12R 5093   3.089   6.179  14.259 -0.6007  0.1488  1.0033
   40DOPE  H12S 5094   2.983   6.250  14.139  0.6741  0.8626 -1.8590
   40DOPE  C213 5095   3.056   6.392  14.291 -0.1404  0.4133  0.2820
   40DOPE  H13R 5096   2.972   6.372  14.362 -0.3031 -0.6697 -0.1942
   40DOPE  H13S 5097   3.024   6.475  14.225 -0.2853  0.6487  0.6439
   40DOPE  C214 5098   3.182   6.444  14.365  0.0200  0.3546 -0.3712
   40DOPE  H14R 5099   3.164   6.545  14.408  0.4626  0.9014 -1.4256
   40DOPE  H14S 5100   3.272   6.457  14.302  0.5207 -1.9172 -0.2338
   40DOPE  C215 5101   3.234   6.338  14.466  0.4743 -0.3096 -0.9070
   40DOPE  H15R 5102   3.333   6.377  14.497  0.6292  0.2597 -2.0644
   40DOPE  H15S 5103   3.259   6.244  14.413  2.3652 -0.2536 -0.2103
   40DOPE  C216 5104   3.151   6.328  14.596 -0.0759 -0.0269 -0.3006
   40DOPE  H16R 5105   3.048   6.289  14.578  0.5898 -2.3683  0.6049
   40DOPE  H16S 5106   3.154   6.426  14.649 -0.2909 -0.8542  1.3067
   40DOPE  C217 5107   3.228   6.234  14.686  0.2870  0.3678 -0.5472
   40DOPE  H17R 5108   3.338   6.241  14.673  0.3097 -0.1983 -0.7004
   40DOPE  H17S 5109   3.223   6.132  14.642  0.6143 -1.0864  2.5397
   40DOPE  C218 5110   3.195   6.236  14.838 -0.3420 -0.5649  0.7403
   40DOPE  H18R 5111   3.085   6.229  14.857 -0.6975  3.3315  0.8120
   40DOPE  H18S 5112   3.229   6.339  14.860 -3.4233  1.4351 -2.7317
   40DOPE  H18T 5113   3.250   6.152  14.885  0.6043 -0.8630 -0.8239
   40DOPE   C33 5114   3.260   6.522  13.023  0.3952 -0.6765 -0.1866
   40DOPE   H3X 5115   3.155   6.489  13.007  0.1964 -0.3410  0.4047
   40DOPE   H3Y 5116   3.279   6.570  12.925  0.4144 -0.4926 -0.0938
   40DOPE   C34 5117   3.289   6.632  13.142 -0.1609  0.8594  0.2882
   40DOPE   H4X 5118   3.399   6.631  13.152  0.1303  0.1009 -2.3974
   40DOPE   H4Y 5119   3.253   6.725  13.095  0.0771 -0.2555 -2.2528
   40DOPE   C35 5120   3.205   6.597  13.267 -0.1331  0.4360  0.1439
   40DOPE   H5X 5121   3.219   6.491  13.297 -0.1802  0.7010  1.1355
   40DOPE   H5Y 5122   3.099   6.626  13.254  0.2425  1.4861 -0.8001
   40DOPE   C36 5123   3.258   6.686  13.380  0.7220 -0.1024 -0.3971
   40DOPE   H6X 5124   3.221   6.787  13.354 -0.5938 -0.5449 -0.3184
   40DOPE   H6Y 5125   3.368   6.672  13.378  0.8290  0.8057 -1.6208
   40DOPE   C37 5126   3.204   6.655  13.522 -0.0389 -0.2527 -0.5750
   40DOPE   H7X 5127   3.094   6.667  13.514 -0.4126 -3.1330 -1.0426
   40DOPE   H7Y 5128   3.229   6.555  13.564  0.3548 -0.4404 -1.2482
   40DOPE   C38 5129   3.236   6.763  13.630  0.5683  0.2470 -0.1144
   40DOPE   H8X 5130   3.167   6.744  13.715  1.2747 -1.9227  0.0264
   40DOPE   H8Y 5131   3.207   6.865  13.596 -0.8652 -1.2551 -3.9888
   40DOPE   C39 5132   3.379   6.762  13.676 -0.0641 -0.5386  0.5544
   40DOPE   H9X 5133   3.451   6.745  13.594 -1.2068 -0.4219 -0.5023
   40DOPE  C310 5134   3.427   6.776  13.796 -0.3529  0.1235 -0.3272
   40DOPE  H10X 5135   3.535   6.762  13.813 -0.1538 -1.2902 -2.3641
   40DOPE  C311 5136   3.356   6.814  13.917  0.5927 -0.8910 -0.3290
   40DOPE  H11X 5137   3.350   6.925  13.918 -2.5579 -0.9527 -1.2706
   40DOPE  H11Y 5138   3.250   6.781  13.912  0.3662 -0.3596  0.5901
   40DOPE  C312 5139   3.436   6.770  14.042 -0.0279 -0.7492 -0.2156
   40DOPE  H12X 5140   3.523   6.836  14.063  0.2223 -0.6594 -1.4427
   40DOPE  H12Y 5141   3.481   6.669  14.042  1.6905 -0.0113 -0.2038
   40DOPE  C313 5142   3.339   6.773  14.162 -0.0667  0.6204 -0.3293
   40DOPE  H13X 5143   3.247   6.723  14.125 -1.1053  2.4864 -0.3739
   40DOPE  H13Y 5144   3.381   6.707  14.241 -1.8846 -1.3036 -0.8702
   40DOPE  C314 5145   3.281   6.904  14.211  0.3053  0.1852  0.4550
   40DOPE  H14X 5146   3.196   6.884  14.280 -0.4745  0.5162 -0.3930
   40DOPE  H14Y 5147   3.241   6.968  14.130  0.7030 -1.8562 -1.4279
   40DOPE  C315 5148   3.373   6.981  14.311 -0.1299  0.7763 -0.0092
   40DOPE  H15X 5149   3.417   7.065  14.254  0.2338  0.6325  0.0573
   40DOPE  H15Y 5150   3.460   6.921  14.344  2.5847  4.6038  0.4949
   40DOPE  C316 5151   3.318   7.031  14.441  0.2412 -0.6138  0.8387
   40DOPE  H16X 5152   3.238   6.964  14.479 -0.5726 -0.0447  0.1633
   40DOPE  H16Y 5153   3.266   7.128  14.429  0.7857 -0.5405 -1.3399
   40DOPE  C317 5154   3.426   7.030  14.549  0.5291  0.8292 -0.3320
   40DOPE  H17X 5155   3.428   6.929  14.595 -2.1392  0.4530 -0.8611
   40DOPE  H17Y 5156   3.525   7.061  14.510  1.0613  0.0318  0.3439
   40DOPE  C318 5157   3.386   7.115  14.671  0.0828 -0.4574 -0.5346
   40DOPE  H18X 5158   3.302   7.065  14.724  0.4497  0.7902  1.2990
   40DOPE  H18Y 5159   3.473   7.124  14.738  0.8692  1.5014 -1.7221
   40DOPE  H18Z 5160   3.356   7.213  14.628 -0.0020  0.1344  0.8476
   41DOPE     N 5161   1.969   6.024  13.008  0.7621  0.8600 -0.5279
   41DOPE   HN1 5162   2.023   6.109  12.981  0.4023  1.6624  1.1206
   41DOPE   HN2 5163   2.031   5.940  13.013 -0.6097 -0.1238  1.0223
   41DOPE   HN3 5164   1.891   5.997  12.944  0.2384  2.5565 -0.6378
   41DOPE   C12 5165   1.916   6.063  13.150 -0.9234 -0.7613  0.2117
   41DOPE  H12A 5166   1.830   5.994  13.163  1.1342 -2.9753  3.4029
   41DOPE  H12B 5167   1.886   6.169  13.132 -0.0194 -0.6260 -0.6042
   41DOPE   C11 5168   2.017   6.042  13.253 -0.1137 -0.6106  0.0196
   41DOPE  H11A 5169   1.962   6.078  13.342 -2.0710 -1.5509 -0.7522
   41DOPE  H11B 5170   2.101   6.115  13.248  0.7049 -1.4521  1.1497
   41DOPE     P 5171   2.075   5.837  13.406  0.5214  0.0528 -0.1564
   41DOPE   O13 5172   2.176   5.902  13.494  0.2382 -0.2649 -0.5467
   41DOPE   O14 5173   2.097   5.695  13.379  0.3461 -0.2705 -0.1098
   41DOPE   O11 5174   1.933   5.855  13.467 -0.3950  0.5954  0.3692
   41DOPE   O12 5175   2.069   5.911  13.266  0.1230 -0.4805 -0.1108
   41DOPE    C1 5176   1.823   5.780  13.402 -0.3566 -0.0996 -0.1334
   41DOPE    HA 5177   1.837   5.670  13.406 -2.0396 -0.3050  1.2354
   41DOPE    HB 5178   1.815   5.818  13.298  0.4059 -1.4421 -0.7148
   41DOPE    C2 5179   1.690   5.791  13.464  0.2199  0.0015 -0.1056
   41DOPE    HS 5180   1.660   5.898  13.461 -0.3287 -0.1723 -1.1023
   41DOPE   O21 5181   1.705   5.731  13.594 -0.0800  0.1929 -0.1254
   41DOPE   C21 5182   1.627   5.781  13.693  0.3685 -0.4001  0.9049
   41DOPE   O22 5183   1.536   5.861  13.672  0.5732 -0.4575 -0.7432
   41DOPE   C22 5184   1.662   5.718  13.828  0.5808  0.2295  0.6833
   41DOPE   H2R 5185   1.769   5.747  13.843 -0.0343  2.0543  1.8787
   41DOPE   H2S 5186   1.656   5.608  13.812  1.9598  0.2992 -0.5063
   41DOPE    C3 5187   1.583   5.706  13.390 -0.5798  0.0144 -0.1621
   41DOPE    HX 5188   1.579   5.753  13.289  2.6373 -0.7114 -0.7281
   41DOPE    HY 5189   1.483   5.715  13.438 -1.2279  1.1570 -1.6160
   41DOPE   O31 5190   1.625   5.564  13.374 -0.4261 -0.1304  0.1773
   41DOPE   C31 5191   1.539   5.486  13.306 -0.1912 -0.6574 -0.1081
   41DOPE   O32 5192   1.444   5.529  13.240  0.4558 -0.5848  0.9045
   41DOPE   C32 5193   1.554   5.345  13.358  0.2137 -0.2023  0.5237
   41DOPE   H2X 5194   1.567   5.285  13.265  1.2419 -0.3924  0.7849
   41DOPE   H2Y 5195   1.641   5.334  13.426  0.9165 -0.8125 -0.4434
   41DOPE   C23 5196   1.582   5.771  13.948  0.3169  0.2840 -0.3637
   41DOPE   H3R 5197   1.473   5.760  13.928  0.7721 -0.3464 -2.9024
   41DOPE   H3S 5198   1.598   5.880  13.962 -1.8947  0.7613 -1.0445
   41DOPE   C24 5199   1.626   5.708  14.074  0.1538 -0.2096 -0.3221
   41DOPE   H4R 5200   1.737   5.707  14.088 -0.0537 -2.8695  1.9104
   41DOPE   H4S 5201   1.610   5.599  14.081 -0.7716 -0.0115  1.0595
   41DOPE   C25 5202   1.570   5.777  14.200 -0.3906  0.9188 -0.2653
   41DOPE   H5R 5203   1.589   5.714  14.289 -0.5428 -1.9721 -2.1344
   41DOPE   H5S 5204   1.459   5.785  14.200 -0.5430 -0.7857  0.4784
   41DOPE   C26 5205   1.631   5.916  14.226 -0.2680 -0.9014  0.5115
   41DOPE   H6R 5206   1.602   5.984  14.143  1.1142  0.5312  1.1588
   41DOPE   H6S 5207   1.741   5.922  14.217 -0.3370  0.8515  0.4092
   41DOPE   C27 5208   1.592   5.975  14.360 -0.6598 -0.0853  0.4822
   41DOPE   H7R 5209   1.483   5.955  14.363 -0.3945 -1.6913  0.6050
   41DOPE   H7S 5210   1.606   6.085  14.370  0.5331 -0.2343  0.5964
   41DOPE   C28 5211   1.661   5.909  14.483 -0.0271  0.1827 -0.4300
   41DOPE   H8R 5212   1.624   5.805  14.476 -0.1587 -0.0218  2.3686
   41DOPE   H8S 5213   1.610   5.957  14.569  0.7192  1.3348 -0.6030
   41DOPE   C29 5214   1.814   5.901  14.491 -0.4886  0.3066  0.2185
   41DOPE   H9R 5215   1.854   5.811  14.441  0.8791  0.3821  1.1164
   41DOPE  C210 5216   1.901   5.987  14.541 -0.2303  0.3390  0.5036
   41DOPE  H10R 5217   2.010   5.970  14.543 -0.5580 -2.2068  0.0446
   41DOPE  C211 5218   1.859   6.106  14.621  0.1339 -0.0556  0.3794
   41DOPE  H11R 5219   1.761   6.153  14.600  0.8314  0.9284 -0.8181
   41DOPE  H11S 5220   1.929   6.189  14.602  0.5490 -0.6403 -0.7441
   41DOPE  C212 5221   1.838   6.061  14.762 -0.6387  0.3407  0.0763
   41DOPE  H12R 5222   1.931   6.014  14.799  0.0559 -0.9165 -2.9927
   41DOPE  H12S 5223   1.771   5.973  14.758  1.0953 -0.9965 -2.4463
   41DOPE  C213 5224   1.796   6.164  14.866  0.1779 -0.0963 -0.1913
   41DOPE  H13R 5225   1.712   6.116  14.921  2.9754 -1.8945  2.8515
   41DOPE  H13S 5226   1.753   6.245  14.804  1.5849  1.0262  0.2429
   41DOPE  C214 5227   1.898   6.231  14.959 -0.2462 -0.5156 -0.3162
   41DOPE  H14R 5228   1.986   6.256  14.896 -1.2065  2.7651 -0.5695
   41DOPE  H14S 5229   1.914   6.154  15.037 -1.8997  1.6635  2.3454
   41DOPE  C215 5230   1.846   6.356  15.037 -0.9582 -0.7800  0.5346
   41DOPE  H15R 5231   1.756   6.338  15.099 -0.9254  2.3547  1.6309
   41DOPE  H15S 5232   1.810   6.424  14.957  1.3453 -1.3734 -1.1394
   41DOPE  C216 5233   1.964   6.425  15.107 -0.7099 -0.2043  0.1119
   41DOPE  H16R 5234   1.935   6.532  15.107 -0.0206 -0.0152  0.0552
   41DOPE  H16S 5235   2.062   6.423  15.054 -0.4670 -1.9105  0.5501
   41DOPE  C217 5236   1.978   6.388  15.258 -0.4275  0.0025  0.0136
   41DOPE  H17R 5237   2.008   6.281  15.264 -2.2478 -0.4720  1.4876
   41DOPE  H17S 5238   1.879   6.404  15.307 -1.6056  0.5734 -2.3791
   41DOPE  C218 5239   2.070   6.475  15.337 -0.3492  0.4792 -0.2715
   41DOPE  H18R 5240   2.177   6.470  15.308 -1.0335 -1.3160 -2.8857
   41DOPE  H18S 5241   2.051   6.456  15.445 -0.0611  0.8331 -0.1561
   41DOPE  H18T 5242   2.024   6.576  15.332 -1.0343  0.3864  2.6396
   41DOPE   C33 5243   1.416   5.286  13.404 -0.0113  0.2841  0.5045
   41DOPE   H3X 5244   1.443   5.181  13.428 -0.7291  0.2144  1.0413
   41DOPE   H3Y 5245   1.343   5.281  13.320 -2.3914  0.6493  2.4387
   41DOPE   C34 5246   1.346   5.359  13.512  0.2261  0.5800  0.0837
   41DOPE   H4X 5247   1.299   5.454  13.477 -0.8650 -0.3173 -0.9692
   41DOPE   H4Y 5248   1.261   5.292  13.536  0.1506  0.8043  0.4573
   41DOPE   C35 5249   1.424   5.378  13.639 -0.0329 -0.6753 -1.0780
   41DOPE   H5X 5250   1.512   5.440  13.615 -0.1758 -0.6802 -1.6302
   41DOPE   H5Y 5251   1.459   5.277  13.668  1.8769 -0.4758 -2.5202
   41DOPE   C36 5252   1.337   5.421  13.755  0.1217  0.2682 -0.1562
   41DOPE   H6X 5253   1.244   5.360  13.748  0.0996  0.2251  0.4414
   41DOPE   H6Y 5254   1.327   5.532  13.756  0.3976  0.2927  0.7669
   41DOPE   C37 5255   1.409   5.392  13.892  0.0821 -0.0556  0.8791
   41DOPE   H7X 5256   1.477   5.304  13.887  2.8264  1.9246  0.6763
   41DOPE   H7Y 5257   1.485   5.472  13.906  0.5554 -0.2130 -0.5460
   41DOPE   C38 5258   1.313   5.377  14.012 -0.0555  0.3897 -0.1753
   41DOPE   H8X 5259   1.365   5.337  14.102  0.1025  1.8394  0.3972
   41DOPE   H8Y 5260   1.238   5.299  13.987  1.2108 -0.5098 -1.3833
   41DOPE   C39 5261   1.245   5.507  14.045  0.0483 -0.0699  0.9410
   41DOPE   H9X 5262   1.267   5.591  13.979 -2.0607 -0.3620 -0.2023
   41DOPE  C310 5263   1.150   5.526  14.140 -0.4473 -0.3027 -0.0518
   41DOPE  H10X 5264   1.106   5.626  14.153  2.1611  0.6367  2.8558
   41DOPE  C311 5265   1.100   5.424  14.245 -0.6058  0.3731  0.0425
   41DOPE  H11X 5266   0.992   5.399  14.242 -1.7170  4.5009 -1.8258
   41DOPE  H11Y 5267   1.153   5.327  14.231 -0.0680  0.9984 -2.8669
   41DOPE  C312 5268   1.124   5.478  14.391 -0.1721 -0.1798 -0.1405
   41DOPE  H12X 5269   1.069   5.416  14.465  2.4140 -0.0756  2.0054
   41DOPE  H12Y 5270   1.085   5.582  14.388 -1.8341 -0.7760 -0.5722
   41DOPE  C313 5271   1.273   5.466  14.431 -0.0219 -0.9746 -0.6239
   41DOPE  H13X 5272   1.323   5.367  14.425  1.5980 -0.2781  0.4341
   41DOPE  H13Y 5273   1.329   5.536  14.365  0.2445 -2.6869 -2.2999
   41DOPE  C314 5274   1.285   5.501  14.583  0.1217 -0.0674  0.3531
   41DOPE  H14X 5275   1.230   5.424  14.641 -0.0194  0.6294  1.1713
   41DOPE  H14Y 5276   1.231   5.597  14.600  1.2314  0.2144  2.6461
   41DOPE  C315 5277   1.434   5.506  14.622 -0.2701 -0.3077 -0.5449
   41DOPE  H15X 5278   1.492   5.575  14.558  1.1645  0.9295  1.9288
   41DOPE  H15Y 5279   1.459   5.399  14.611 -1.9321 -0.8206  0.3093
   41DOPE  C316 5280   1.461   5.550  14.772  0.8588 -0.0168  0.0463
   41DOPE  H16X 5281   1.416   5.482  14.847  0.7776  1.5321  1.4643
   41DOPE  H16Y 5282   1.413   5.650  14.780  1.5577  0.3587 -0.3496
   41DOPE  C317 5283   1.608   5.581  14.805 -0.8071 -0.2916  0.0915
   41DOPE  H17X 5284   1.679   5.496  14.817 -2.2075 -1.2288  2.3084
   41DOPE  H17Y 5285   1.647   5.647  14.724 -1.0838 -0.1478  0.0757
   41DOPE  C318 5286   1.619   5.663  14.936  0.2748  0.1964  0.2591
   41DOPE  H18X 5287   1.559   5.615  15.015  0.7049  1.2139  1.2367
   41DOPE  H18Y 5288   1.718   5.667  14.987  0.6034  0.4032 -0.3901
   41DOPE  H18Z 5289   1.565   5.759  14.923 -2.5344 -1.4247 -0.7680
   42DOPE     N 5290   0.044   4.962  12.198  0.3247 -0.2618 -0.4598
   42DOPE   HN1 5291  -0.018   4.957  12.115 -0.6611  0.1279  0.2304
   42DOPE   HN2 5292  -0.011   5.021  12.263  1.3419 -0.7112  0.8509
   42DOPE   HN3 5293   0.130   5.017  12.176  0.3049 -0.2131 -0.4139
   42DOPE   C12 5294   0.087   4.830  12.270  0.7278  0.4372 -0.1276
   42DOPE  H12A 5295   0.134   4.865  12.365  0.2265 -0.3711  0.4343
   42DOPE  H12B 5296   0.153   4.773  12.203 -1.4498 -2.2051 -0.1988
   42DOPE   C11 5297  -0.039   4.741  12.301 -0.1452  0.4846 -0.1629
   42DOPE  H11A 5298   0.006   4.647  12.338  0.5209  1.2858  1.1528
   42DOPE  H11B 5299  -0.088   4.721  12.203 -1.6109 -0.3917  0.7173
   42DOPE     P 5300  -0.117   4.792  12.556  0.0817  0.0936  0.2577
   42DOPE   O13 5301  -0.246   4.812  12.623 -0.2504 -0.2967 -0.1504
   42DOPE   O14 5302  -0.010   4.890  12.588  0.0592 -0.3597  0.0955
   42DOPE   O11 5303  -0.063   4.651  12.594  0.0842 -0.3997  0.1838
   42DOPE   O12 5304  -0.138   4.790  12.396  0.4473 -0.5619  0.4260
   42DOPE    C1 5305  -0.014   4.630  12.730 -0.2856  0.4107 -0.2192
   42DOPE    HA 5306   0.055   4.711  12.762  0.6695 -0.4312 -0.1085
   42DOPE    HB 5307   0.052   4.543  12.748 -0.3109  0.2193 -1.0238
   42DOPE    C2 5308  -0.130   4.624  12.837  0.1791  0.4024 -0.0222
   42DOPE    HS 5309  -0.183   4.719  12.817  1.2131  0.2451 -4.4288
   42DOPE   O21 5310  -0.053   4.619  12.957  0.1699  0.0894 -0.2799
   42DOPE   C21 5311  -0.089   4.690  13.071 -0.9176  0.1870  0.7539
   42DOPE   O22 5312  -0.179   4.768  13.076 -0.4968  0.1104 -0.6039
   42DOPE   C22 5313  -0.002   4.639  13.186  0.5713  0.1018  0.3482
   42DOPE   H2R 5314   0.104   4.628  13.152  0.5775 -0.2206  0.4714
   42DOPE   H2S 5315  -0.034   4.535  13.207  2.4203 -0.7226 -0.6644
   42DOPE    C3 5316  -0.214   4.502  12.822 -0.3662 -0.4297  0.1379
   42DOPE    HX 5317  -0.149   4.417  12.791 -0.1709  0.2890 -1.5717
   42DOPE    HY 5318  -0.286   4.502  12.737  0.5458  0.6440 -0.6698
   42DOPE   O31 5319  -0.278   4.468  12.951  0.2759 -0.1794  0.3112
   42DOPE   C31 5320  -0.387   4.530  12.976  0.6676 -0.0598  0.6799
   42DOPE   O32 5321  -0.442   4.609  12.896  0.3413 -0.2191 -0.1569
   42DOPE   C32 5322  -0.442   4.490  13.110  0.3111  0.0820  1.0168
   42DOPE   H2X 5323  -0.433   4.379  13.110  0.2532  0.0340 -1.0047
   42DOPE   H2Y 5324  -0.373   4.540  13.182  1.3924 -0.4538  0.3785
   42DOPE   C23 5325  -0.024   4.715  13.316  1.1583 -0.3865 -0.2797
   42DOPE   H3R 5326  -0.012   4.650  13.406 -2.2573 -1.2246 -0.2997
   42DOPE   H3S 5327  -0.130   4.745  13.327  0.6985 -1.6512 -1.0357
   42DOPE   C24 5328   0.065   4.840  13.333  0.1575 -0.3025 -0.3722
   42DOPE   H4R 5329   0.044   4.913  13.252  3.1293 -0.6223 -1.5850
   42DOPE   H4S 5330   0.174   4.822  13.321  0.3535  0.3784  0.3058
   42DOPE   C25 5331   0.039   4.910  13.466  0.1417 -0.0228  0.6003
   42DOPE   H5R 5332  -0.071   4.908  13.480 -0.0711 -0.1025 -0.8882
   42DOPE   H5S 5333   0.078   5.014  13.461 -0.2809  0.1008 -3.4275
   42DOPE   C26 5334   0.107   4.834  13.582 -0.0214  0.9884 -0.0456
   42DOPE   H6R 5335   0.214   4.818  13.557 -0.1573 -0.8709  0.4210
   42DOPE   H6S 5336   0.074   4.728  13.589 -0.6682  1.2660  1.7422
   42DOPE   C27 5337   0.089   4.903  13.721  0.2628  0.0600 -0.0848
   42DOPE   H7R 5338  -0.019   4.884  13.739 -0.5648  1.0395 -3.3569
   42DOPE   H7S 5339   0.105   5.012  13.707  2.2080 -0.1288  0.3751
   42DOPE   C28 5340   0.176   4.860  13.844 -0.2473  1.0761 -0.2717
   42DOPE   H8R 5341   0.283   4.841  13.819  0.3222  1.1199  1.8901
   42DOPE   H8S 5342   0.152   4.752  13.857  0.8192  0.9662  1.0417
   42DOPE   C29 5343   0.173   4.931  13.980 -0.2995 -0.3433  0.0171
   42DOPE   H9R 5344   0.239   5.020  13.976 -2.2999  1.1709 -2.8630
   42DOPE  C210 5345   0.106   4.906  14.090 -0.1180  0.1064 -0.0329
   42DOPE  H10R 5346   0.116   4.973  14.177  1.7490  0.8958 -0.7892
   42DOPE  C211 5347   0.023   4.788  14.127  0.0484  0.4163 -0.6457
   42DOPE  H11R 5348   0.077   4.720  14.196  0.1593  0.6692 -0.4781
   42DOPE  H11S 5349  -0.015   4.735  14.038  0.7355 -0.0120 -0.6880
   42DOPE  C212 5350  -0.106   4.834  14.203  1.3702 -0.9339 -0.1828
   42DOPE  H12R 5351  -0.182   4.754  14.190  1.1657 -0.7783  0.0481
   42DOPE  H12S 5352  -0.160   4.920  14.159  0.2710 -0.5790  1.7472
   42DOPE  C213 5353  -0.077   4.852  14.354 -0.3254  0.5419 -0.1967
   42DOPE  H13R 5354   0.016   4.913  14.363  0.9970 -1.3642 -0.1763
   42DOPE  H13S 5355  -0.044   4.755  14.396 -0.8691  0.2655 -0.4042
   42DOPE  C214 5356  -0.179   4.926  14.436 -0.6238 -0.5678  0.9550
   42DOPE  H14R 5357  -0.264   4.858  14.454 -0.3606 -1.5202 -1.1234
   42DOPE  H14S 5358  -0.201   5.005  14.361  2.2211 -3.1802 -3.0552
   42DOPE  C215 5359  -0.122   4.993  14.564 -0.0745 -0.5355 -0.4783
   42DOPE  H15R 5360  -0.216   5.026  14.613 -0.9360  1.1149 -3.0237
   42DOPE  H15S 5361  -0.058   5.083  14.552  0.1730 -0.3852  1.6433
   42DOPE  C216 5362  -0.044   4.901  14.657  0.5564  0.3294  0.3633
   42DOPE  H16R 5363   0.030   4.843  14.597 -0.5564  0.4016 -1.1384
   42DOPE  H16S 5364  -0.112   4.825  14.701  0.4306 -0.2995 -0.8785
   42DOPE  C217 5365   0.011   4.985  14.771  0.1104  0.8190 -0.0732
   42DOPE  H17R 5366  -0.079   5.031  14.816 -1.6718 -0.6155 -2.0130
   42DOPE  H17S 5367   0.074   5.066  14.728 -0.9287  1.6155 -0.1218
   42DOPE  C218 5368   0.094   4.904  14.865  0.0283 -0.1256  0.0235
   42DOPE  H18R 5369   0.042   4.830  14.929 -0.6380  1.6169  1.5855
   42DOPE  H18S 5370   0.136   4.966  14.947 -1.4017  1.1342 -0.1589
   42DOPE  H18T 5371   0.173   4.856  14.804 -2.2544 -1.5200 -1.9911
   42DOPE   C33 5372  -0.590   4.497  13.131  0.9049 -1.0757 -0.3626
   42DOPE   H3X 5373  -0.645   4.440  13.054 -0.9075 -0.8446  0.7053
   42DOPE   H3Y 5374  -0.621   4.603  13.119  0.8729 -1.1639 -1.0972
   42DOPE   C34 5375  -0.629   4.440  13.268 -0.2777 -0.1037 -0.3020
   42DOPE   H4X 5376  -0.740   4.442  13.258 -0.5185 -0.6797  1.8961
   42DOPE   H4Y 5377  -0.600   4.332  13.269  1.5101  0.1777 -3.6848
   42DOPE   C35 5378  -0.575   4.529  13.379 -0.2378  0.5984 -0.1788
   42DOPE   H5X 5379  -0.608   4.634  13.362 -2.2440  0.5566  2.7269
   42DOPE   H5Y 5380  -0.464   4.524  13.386 -0.2683 -0.1515 -0.1248
   42DOPE   C36 5381  -0.624   4.479  13.525 -0.3649 -0.2124 -0.5628
   42DOPE   H6X 5382  -0.590   4.374  13.540 -0.0496  0.0625  0.8123
   42DOPE   H6Y 5383  -0.735   4.476  13.518 -0.3772  1.3651 -1.6681
   42DOPE   C37 5384  -0.584   4.564  13.642 -0.7386  0.0491 -0.5380
   42DOPE   H7X 5385  -0.473   4.566  13.635 -0.6282 -1.2667  0.4172
   42DOPE   H7Y 5386  -0.606   4.671  13.621 -0.2428  0.0304 -1.1796
   42DOPE   C38 5387  -0.648   4.527  13.769  0.5566  0.4561  0.4454
   42DOPE   H8X 5388  -0.619   4.420  13.776  1.1701  0.6323  0.6781
   42DOPE   H8Y 5389  -0.758   4.534  13.756  0.2634 -1.2170  1.7405
   42DOPE   C39 5390  -0.593   4.615  13.880  0.1696  0.5188  0.0048
   42DOPE   H9X 5391  -0.615   4.721  13.862 -1.6907  0.0524 -0.7477
   42DOPE  C310 5392  -0.524   4.584  13.995  0.6277  0.2897 -0.4334
   42DOPE  H10X 5393  -0.493   4.664  14.063 -0.9869 -1.0897  2.0901
   42DOPE  C311 5394  -0.470   4.447  14.026  0.1242  0.2665 -0.2009
   42DOPE  H11X 5395  -0.550   4.374  14.050  0.2011 -0.3695 -1.7987
   42DOPE  H11Y 5396  -0.427   4.394  13.938  0.2580 -1.8698  1.0766
   42DOPE  C312 5397  -0.364   4.445  14.136 -0.1853  0.3668  0.2831
   42DOPE  H12X 5398  -0.284   4.520  14.120  2.6296 -1.9651  2.3212
   42DOPE  H12Y 5399  -0.313   4.347  14.122 -0.4078 -0.1114  2.4581
   42DOPE  C313 5400  -0.413   4.458  14.285 -0.2271  0.7717 -0.3703
   42DOPE  H13X 5401  -0.478   4.548  14.294  0.7170  2.0097 -4.0369
   42DOPE  H13Y 5402  -0.467   4.369  14.325 -1.4507  1.2489 -0.8910
   42DOPE  C314 5403  -0.289   4.479  14.373  0.1203  0.1886 -0.4148
   42DOPE  H14X 5404  -0.234   4.566  14.332  0.7677 -1.0672 -2.3698
   42DOPE  H14Y 5405  -0.221   4.391  14.368 -1.3480 -1.0106  0.0401
   42DOPE  C315 5406  -0.318   4.491  14.526 -0.3221 -0.3908 -0.5072
   42DOPE  H15X 5407  -0.390   4.573  14.545  0.5645  0.0628  1.0595
   42DOPE  H15Y 5408  -0.228   4.517  14.585  0.2866 -0.1648 -1.5015
   42DOPE  C316 5409  -0.386   4.366  14.578 -0.1503  0.6413 -0.8805
   42DOPE  H16X 5410  -0.327   4.273  14.559  0.6163  0.8369  0.4333
   42DOPE  H16Y 5411  -0.486   4.347  14.534 -0.0462 -0.3110 -0.7171
   42DOPE  C317 5412  -0.406   4.365  14.727 -0.1267 -0.2141  0.0988
   42DOPE  H17X 5413  -0.454   4.269  14.757  0.1426 -0.4594 -0.2439
   42DOPE  H17Y 5414  -0.307   4.378  14.777 -0.9600 -0.2884  1.8639
   42DOPE  C318 5415  -0.499   4.469  14.797  0.0643  0.6070  0.2570
   42DOPE  H18X 5416  -0.465   4.572  14.772  0.3156  0.7109  0.9976
   42DOPE  H18Y 5417  -0.606   4.468  14.768  0.1904  2.0198 -0.3294
   42DOPE  H18Z 5418  -0.501   4.460  14.908 -1.0868  0.0315  0.2095
   43DOPE     N 5419   1.262   3.892  12.729  0.3717 -0.2836  0.2444
   43DOPE   HN1 5420   1.164   3.926  12.722  0.1268 -0.1169  3.0654
   43DOPE   HN2 5421   1.287   3.901  12.830  0.6481 -1.9247  0.3514
   43DOPE   HN3 5422   1.316   3.967  12.682  0.5625 -0.1287  0.7019
   43DOPE   C12 5423   1.273   3.747  12.684 -0.0026 -0.4802  0.3569
   43DOPE  H12A 5424   1.193   3.687  12.732 -1.3503  0.1730 -0.9484
   43DOPE  H12B 5425   1.368   3.708  12.724 -0.6195 -1.7803  0.6037
   43DOPE   C11 5426   1.257   3.712  12.537  0.0699  0.5748  0.7026
   43DOPE  H11A 5427   1.287   3.606  12.524  0.0947  0.0262  4.2584
   43DOPE  H11B 5428   1.339   3.748  12.473  0.9309 -1.6129  0.4896
   43DOPE     P 5429   1.000   3.665  12.478  0.2876  0.0254  0.3319
   43DOPE   O13 5430   1.026   3.525  12.523 -0.2401 -0.1480 -0.1711
   43DOPE   O14 5431   0.941   3.670  12.341  0.0201 -0.2934 -0.0344
   43DOPE   O11 5432   0.915   3.740  12.587 -0.9233 -0.8944  0.4980
   43DOPE   O12 5433   1.131   3.754  12.486 -0.4879  0.4289 -0.1355
   43DOPE    C1 5434   0.771   3.729  12.587 -0.2658  0.5660 -0.4846
   43DOPE    HA 5435   0.726   3.642  12.535 -1.9617  1.0645  0.0705
   43DOPE    HB 5436   0.719   3.820  12.549  2.6880  2.2129 -0.9020
   43DOPE    C2 5437   0.742   3.701  12.737 -0.3576 -0.3334 -0.6022
   43DOPE    HS 5438   0.635   3.674  12.747 -0.0907 -0.7299  1.7964
   43DOPE   O21 5439   0.772   3.814  12.817  0.2763 -0.7417  0.3158
   43DOPE   C21 5440   0.689   3.919  12.814 -0.1309 -0.2451 -0.6949
   43DOPE   O22 5441   0.592   3.941  12.745 -0.5451 -0.4224 -0.3981
   43DOPE   C22 5442   0.725   4.018  12.932 -0.6944 -0.2437 -0.1509
   43DOPE   H2R 5443   0.664   4.108  12.910 -0.9049 -0.3198  0.1082
   43DOPE   H2S 5444   0.828   4.055  12.911 -0.6637  0.0736  0.5305
   43DOPE    C3 5445   0.809   3.578  12.804  0.5072 -0.3613 -0.1094
   43DOPE    HX 5446   0.911   3.564  12.762  0.5841 -1.4992  0.4228
   43DOPE    HY 5447   0.748   3.493  12.766  0.8454  0.0986 -1.7614
   43DOPE   O31 5448   0.803   3.583  12.946  0.3325 -0.0240  0.2882
   43DOPE   C31 5449   0.912   3.621  12.996 -0.0794  0.0126 -0.1961
   43DOPE   O32 5450   1.019   3.638  12.943 -0.1326  0.2479  0.3392
   43DOPE   C32 5451   0.895   3.603  13.149  0.1089  0.0988  0.1376
   43DOPE   H2X 5452   0.820   3.681  13.172  0.0254 -0.1250  0.6464
   43DOPE   H2Y 5453   0.860   3.499  13.164  1.0547 -0.2673 -0.1012
   43DOPE   C23 5454   0.704   3.962  13.069  0.0453 -0.0649 -0.0050
   43DOPE   H3R 5455   0.772   3.875  13.083 -0.0761 -0.2686 -0.6550
   43DOPE   H3S 5456   0.599   3.930  13.086  0.1521  0.0120  0.8268
   43DOPE   C24 5457   0.732   4.072  13.173  0.0549  0.0239  0.1437
   43DOPE   H4R 5458   0.663   4.154  13.145  0.7007  0.9789  1.2622
   43DOPE   H4S 5459   0.841   4.094  13.161 -0.5894  1.7969 -4.5573
   43DOPE   C25 5460   0.708   4.036  13.316  0.3731  0.2465 -0.5137
   43DOPE   H5R 5461   0.792   3.972  13.351  0.5306  0.9599  0.4561
   43DOPE   H5S 5462   0.620   3.970  13.332 -1.3219  2.8807  2.0082
   43DOPE   C26 5463   0.698   4.166  13.399  0.2762  0.9288 -0.0197
   43DOPE   H6R 5464   0.625   4.244  13.368 -0.9617  0.2304  1.0589
   43DOPE   H6S 5465   0.785   4.236  13.396 -0.7406  2.2704  0.6951
   43DOPE   C27 5466   0.650   4.118  13.538  0.1630 -0.1417  0.8800
   43DOPE   H7R 5467   0.558   4.056  13.530 -0.3203  0.6320  0.3408
   43DOPE   H7S 5468   0.632   4.209  13.599 -0.7939  1.4977 -1.7103
   43DOPE   C28 5469   0.748   4.023  13.610 -0.4979 -0.1356  0.0318
   43DOPE   H8R 5470   0.835   4.091  13.616 -1.7500  1.5776 -0.6105
   43DOPE   H8S 5471   0.776   3.937  13.546  0.5497  0.0593  0.2009
   43DOPE   C29 5472   0.688   3.962  13.733  0.2503 -0.0529 -0.4537
   43DOPE   H9R 5473   0.610   3.887  13.714  3.1055 -2.9412 -1.8277
   43DOPE  C210 5474   0.725   3.976  13.859  0.3861  0.5867 -0.4975
   43DOPE  H10R 5475   0.658   3.944  13.939 -0.3059  3.2737  0.1046
   43DOPE  C211 5476   0.841   4.060  13.905 -0.4372 -0.2022 -0.7268
   43DOPE  H11R 5477   0.890   4.106  13.817  1.5761 -2.6645 -1.0094
   43DOPE  H11S 5478   0.915   3.994  13.954 -3.0305 -1.7423  1.4150
   43DOPE  C212 5479   0.793   4.165  14.013 -0.5044 -0.6485  0.0990
   43DOPE  H12R 5480   0.715   4.222  13.958  0.6298  1.3253  0.4401
   43DOPE  H12S 5481   0.873   4.241  14.026 -1.5049  0.3492  0.6957
   43DOPE  C213 5482   0.747   4.109  14.141  0.6108 -0.2639  0.7617
   43DOPE  H13R 5483   0.816   4.033  14.184  3.2285  0.2594 -2.1633
   43DOPE  H13S 5484   0.656   4.048  14.121  0.9744 -1.5690  2.7652
   43DOPE  C214 5485   0.710   4.210  14.251 -0.7056 -0.0836  0.1454
   43DOPE  H14R 5486   0.619   4.268  14.223  0.4832  1.4900 -0.6159
   43DOPE  H14S 5487   0.797   4.279  14.253  0.2249 -1.2367  1.6782
   43DOPE  C215 5488   0.694   4.144  14.387 -0.0981  0.0136  0.3859
   43DOPE  H15R 5489   0.784   4.083  14.409 -0.3528 -0.6925 -0.4657
   43DOPE  H15S 5490   0.604   4.079  14.382 -0.0023 -0.1328  0.5412
   43DOPE  C216 5491   0.666   4.250  14.490  0.5137 -0.0517  0.2343
   43DOPE  H16R 5492   0.577   4.303  14.450 -0.9644 -0.8326  2.3236
   43DOPE  H16S 5493   0.744   4.327  14.510 -0.5801  0.9084  0.9382
   43DOPE  C217 5494   0.629   4.200  14.633  0.8315  0.1823  0.2906
   43DOPE  H17R 5495   0.535   4.142  14.623  0.4141  0.7602  0.7933
   43DOPE  H17S 5496   0.599   4.287  14.694 -2.4158 -1.3458  1.0752
   43DOPE  C218 5497   0.734   4.113  14.685 -0.1350  0.1835  0.1283
   43DOPE  H18R 5498   0.835   4.157  14.670 -0.3884 -0.1089 -3.1548
   43DOPE  H18S 5499   0.750   4.020  14.627  1.2614  0.6017 -0.1968
   43DOPE  H18T 5500   0.717   4.097  14.793  0.4239  0.3533  0.2468
   43DOPE   C33 5501   1.010   3.624  13.245 -0.2073 -0.6157 -0.3748
   43DOPE   H3X 5502   1.063   3.717  13.217 -0.6864 -0.8202 -2.0998
   43DOPE   H3Y 5503   1.089   3.547  13.229  1.2390  0.7784 -0.1222
   43DOPE   C34 5504   0.961   3.631  13.385 -0.2310 -0.4063  0.1029
   43DOPE   H4X 5505   0.906   3.727  13.391 -1.7459 -1.2623  0.6923
   43DOPE   H4Y 5506   0.892   3.545  13.404 -0.3722  0.0537  1.8001
   43DOPE   C35 5507   1.074   3.629  13.485  0.2121 -0.2854 -1.1221
   43DOPE   H5X 5508   1.131   3.723  13.470  0.1523  0.0786  0.7340
   43DOPE   H5Y 5509   1.144   3.542  13.483  0.3706 -0.2219  0.2537
   43DOPE   C36 5510   1.018   3.646  13.634 -0.3075  0.4791  0.1396
   43DOPE   H6X 5511   0.960   3.740  13.630  1.1782  1.4633 -4.4872
   43DOPE   H6Y 5512   1.102   3.669  13.703  0.1916  0.0230 -0.2943
   43DOPE   C37 5513   0.933   3.531  13.678 -0.1331 -0.0022  0.0732
   43DOPE   H7X 5514   0.837   3.527  13.622  0.3682 -2.7202 -0.7008
   43DOPE   H7Y 5515   0.987   3.437  13.656 -0.6475 -0.1714 -0.5016
   43DOPE   C38 5516   0.894   3.550  13.835 -0.7903 -0.3311  0.2839
   43DOPE   H8X 5517   0.809   3.481  13.858  0.8323 -1.9561  1.6845
   43DOPE   H8Y 5518   0.860   3.654  13.852 -1.0027 -0.4202  0.4151
   43DOPE   C39 5519   1.006   3.505  13.927 -0.2058  0.0398 -0.1437
   43DOPE   H9X 5520   1.045   3.407  13.895 -0.8881 -0.4793  0.5846
   43DOPE  C310 5521   1.066   3.571  14.028  0.1786 -0.6384 -0.0809
   43DOPE  H10X 5522   1.148   3.517  14.079  0.6469 -0.4675 -0.6409
   43DOPE  C311 5523   1.034   3.712  14.067 -0.1032  0.1811 -0.3028
   43DOPE  H11X 5524   1.135   3.758  14.077 -0.3869  0.3881  2.1826
   43DOPE  H11Y 5525   0.985   3.771  13.986 -1.1745  0.3288  0.4273
   43DOPE  C312 5526   0.955   3.712  14.202 -0.2326  0.4103  0.0261
   43DOPE  H12X 5527   0.957   3.816  14.241 -0.1093 -0.2917  1.9807
   43DOPE  H12Y 5528   0.996   3.626  14.259  0.7469 -0.3867 -1.7920
   43DOPE  C313 5529   0.807   3.690  14.168  0.2321  0.0952  0.1766
   43DOPE  H13X 5530   0.777   3.739  14.073 -0.9306  1.2477  1.1105
   43DOPE  H13Y 5531   0.796   3.579  14.169  3.4718 -0.3513 -0.3702
   43DOPE  C314 5532   0.709   3.754  14.268 -0.0432 -0.0861  0.1010
   43DOPE  H14X 5533   0.609   3.716  14.238 -0.4994  0.3343  1.0277
   43DOPE  H14Y 5534   0.714   3.865  14.276  1.4859 -0.0729 -0.7461
   43DOPE  C315 5535   0.747   3.708  14.407 -1.0264 -0.0364  0.1506
   43DOPE  H15X 5536   0.673   3.758  14.473 -1.5844  2.4988 -2.1928
   43DOPE  H15Y 5537   0.850   3.729  14.444 -1.2632 -1.5531  1.7492
   43DOPE  C316 5538   0.716   3.559  14.426 -0.4553 -0.7915 -0.0554
   43DOPE  H16X 5539   0.769   3.500  14.349  0.9904 -1.5121  1.4205
   43DOPE  H16Y 5540   0.607   3.545  14.416 -0.4297 -0.3020 -1.0925
   43DOPE  C317 5541   0.754   3.508  14.559 -0.3416 -0.9717  0.5254
   43DOPE  H17X 5542   0.709   3.407  14.567 -0.4655 -0.8610  1.3138
   43DOPE  H17Y 5543   0.860   3.482  14.580 -0.1509 -2.5637 -2.0125
   43DOPE  C318 5544   0.706   3.586  14.678  0.3621  0.0168 -0.4350
   43DOPE  H18X 5545   0.602   3.624  14.664  0.1859 -0.5939 -0.8019
   43DOPE  H18Y 5546   0.691   3.530  14.772  0.1465  2.9770  1.4439
   43DOPE  H18Z 5547   0.778   3.668  14.701 -0.4740  0.0487  2.4965
   44DOPE     N 5548   2.533   1.708  12.408 -0.3585 -0.2979 -0.5762
   44DOPE   HN1 5549   2.512   1.770  12.326 -1.7564 -0.1956 -0.1610
   44DOPE   HN2 5550   2.635   1.689  12.411 -0.5608 -1.2620  0.6385
   44DOPE   HN3 5551   2.485   1.619  12.385 -1.1488  0.1337 -0.6197
   44DOPE   C12 5552   2.473   1.771  12.533 -0.0871 -0.0252 -0.3219
   44DOPE  H12A 5553   2.396   1.844  12.498 -2.2547 -1.5923  0.9209
   44DOPE  H12B 5554   2.551   1.836  12.579 -0.2646 -0.2369  0.2834
   44DOPE   C11 5555   2.420   1.666  12.627  0.1774 -0.2118  0.6206
   44DOPE  H11A 5556   2.410   1.706  12.730 -1.6245  0.4667  0.2221
   44DOPE  H11B 5557   2.485   1.576  12.635 -0.1907 -0.4752  0.7127
   44DOPE     P 5558   2.162   1.659  12.633 -0.2331 -0.0705  0.0111
   44DOPE   O13 5559   2.064   1.560  12.576 -0.2034  0.4342  0.0623
   44DOPE   O14 5560   2.136   1.803  12.604  0.2922  0.3840 -0.2258
   44DOPE   O11 5561   2.186   1.638  12.790  0.0098 -0.1526  0.2645
   44DOPE   O12 5562   2.300   1.617  12.570  0.2774  0.2282 -1.2464
   44DOPE    C1 5563   2.177   1.505  12.849 -0.4249 -0.6205  0.2164
   44DOPE    HA 5564   2.266   1.441  12.834  0.9313  0.9697  1.1028
   44DOPE    HB 5565   2.085   1.451  12.817 -2.0009  1.9495  0.1349
   44DOPE    C2 5566   2.152   1.515  13.006 -0.2269 -0.5337 -1.1896
   44DOPE    HS 5567   2.164   1.412  13.046  2.1771  0.0068 -0.3488
   44DOPE   O21 5568   2.019   1.569  13.039 -0.4825  0.5513 -0.3774
   44DOPE   C21 5569   1.958   1.528  13.148 -0.0271  0.1808 -0.1957
   44DOPE   O22 5570   2.000   1.446  13.222 -0.5347  0.3417 -0.0830
   44DOPE   C22 5571   1.830   1.609  13.179 -0.0002 -0.3309 -0.2445
   44DOPE   H2R 5572   1.759   1.597  13.094 -0.8033  0.9928  0.2108
   44DOPE   H2S 5573   1.865   1.714  13.185  2.6592 -1.1382 -0.5156
   44DOPE    C3 5574   2.264   1.597  13.066  0.4752 -0.5560  0.7593
   44DOPE    HX 5575   2.256   1.698  13.021 -1.5803 -1.3623 -0.8573
   44DOPE    HY 5576   2.368   1.562  13.045  0.0802 -1.3705  0.1247
   44DOPE   O31 5577   2.246   1.616  13.212  0.2110 -0.0105  0.4528
   44DOPE   C31 5578   2.277   1.508  13.290  0.0047  0.4315  0.6802
   44DOPE   O32 5579   2.327   1.405  13.247  0.0981  0.3453  0.2080
   44DOPE   C32 5580   2.231   1.531  13.434  0.2652  0.0748  0.0321
   44DOPE   H2X 5581   2.245   1.641  13.445  2.5570 -0.0593 -1.0314
   44DOPE   H2Y 5582   2.129   1.491  13.453 -0.1083  1.1424  0.3817
   44DOPE   C23 5583   1.781   1.568  13.320 -0.5387 -0.1122  0.4829
   44DOPE   H3R 5584   1.792   1.458  13.334 -0.3480 -0.3152 -1.0332
   44DOPE   H3S 5585   1.672   1.588  13.319 -0.2835  1.4969 -1.0116
   44DOPE   C24 5586   1.837   1.640  13.436  0.4486 -1.1644 -0.2198
   44DOPE   H4R 5587   1.803   1.746  13.445  2.1865 -0.7008  1.6080
   44DOPE   H4S 5588   1.948   1.644  13.443  0.3959 -1.0866  0.6716
   44DOPE   C25 5589   1.806   1.557  13.560  0.1007  0.1497 -0.5923
   44DOPE   H5R 5590   1.856   1.458  13.556 -1.0453 -0.4941  0.4268
   44DOPE   H5S 5591   1.698   1.536  13.576  0.1032  0.7025  0.2102
   44DOPE   C26 5592   1.869   1.625  13.689  0.0827 -0.1558  0.3441
   44DOPE   H6R 5593   1.804   1.707  13.727  0.2429 -0.6100  1.6187
   44DOPE   H6S 5594   1.968   1.665  13.659 -0.2453 -0.2209 -0.9046
   44DOPE   C27 5595   1.897   1.527  13.804  0.1785  0.6416  0.2146
   44DOPE   H7R 5596   1.938   1.434  13.760 -2.0326  0.5469 -1.8294
   44DOPE   H7S 5597   1.805   1.497  13.859  1.3773 -0.5387  1.6667
   44DOPE   C28 5598   2.000   1.585  13.903 -0.1957  0.0136  0.6194
   44DOPE   H8R 5599   2.078   1.645  13.852 -1.6395  0.9294 -0.5935
   44DOPE   H8S 5600   2.058   1.499  13.942 -0.7962 -1.3500 -1.3639
   44DOPE   C29 5601   1.934   1.677  14.003  0.2549 -0.4809  0.5731
   44DOPE   H9R 5602   1.901   1.770  13.955 -0.0190 -0.2394  1.2140
   44DOPE  C210 5603   1.916   1.666  14.135 -0.4200 -0.0608  0.2303
   44DOPE  H10R 5604   1.871   1.746  14.196  1.1946 -0.0224  1.4247
   44DOPE  C211 5605   1.957   1.550  14.234  0.3947 -0.6689 -0.2984
   44DOPE  H11R 5606   2.015   1.478  14.173  1.5220  1.0904 -1.3928
   44DOPE  H11S 5607   1.869   1.496  14.276 -0.0977  0.2557 -0.1201
   44DOPE  C212 5608   2.031   1.588  14.364  0.0644 -0.1236  0.2458
   44DOPE  H12R 5609   2.131   1.631  14.343  1.3425 -2.9591 -0.0121
   44DOPE  H12S 5610   2.060   1.497  14.421 -2.7129 -0.7295  0.8808
   44DOPE  C213 5611   1.942   1.679  14.448 -0.2896 -0.1052  0.3585
   44DOPE  H13R 5612   1.837   1.661  14.418 -0.5956  0.4941  1.0354
   44DOPE  H13S 5613   1.953   1.778  14.399 -1.8977 -0.9430 -1.8273
   44DOPE  C214 5614   1.960   1.665  14.603 -0.0150 -0.4600 -0.1626
   44DOPE  H14R 5615   2.063   1.690  14.637  0.1256 -1.7729  0.4252
   44DOPE  H14S 5616   1.932   1.561  14.631 -0.9948 -0.2035 -0.1685
   44DOPE  C215 5617   1.861   1.753  14.678 -0.1876 -0.1534 -1.0571
   44DOPE  H15R 5618   1.756   1.729  14.650 -0.2523 -0.1721 -0.7998
   44DOPE  H15S 5619   1.861   1.863  14.658 -1.4541  0.1348  0.3539
   44DOPE  C216 5620   1.893   1.738  14.827  0.0813  0.0167  0.6527
   44DOPE  H16R 5621   1.992   1.781  14.856 -0.7428  2.4008  0.1837
   44DOPE  H16S 5622   1.898   1.627  14.833 -0.0975 -0.0123  0.2513
   44DOPE  C217 5623   1.783   1.769  14.924 -0.3033 -0.4007 -0.5333
   44DOPE  H17R 5624   1.804   1.716  15.019 -1.9017  0.1167  0.1520
   44DOPE  H17S 5625   1.690   1.726  14.882  1.4994 -2.8923 -2.2298
   44DOPE  C218 5626   1.759   1.917  14.956 -0.5013  0.1988 -0.0420
   44DOPE  H18R 5627   1.673   1.937  15.023 -1.3763  0.4575 -1.2061
   44DOPE  H18S 5628   1.732   1.969  14.861  2.3051 -1.9501 -2.1903
   44DOPE  H18T 5629   1.850   1.961  15.000 -0.1887 -0.4109 -0.0673
   44DOPE   C33 5630   2.327   1.468  13.536  0.0477  0.3835  0.2379
   44DOPE   H3X 5631   2.432   1.503  13.527  0.0778  0.9082  2.1751
   44DOPE   H3Y 5632   2.328   1.358  13.518 -0.3363  0.2386  1.0644
   44DOPE   C34 5633   2.284   1.497  13.680  0.2981 -0.1165  0.1817
   44DOPE   H4X 5634   2.265   1.606  13.679 -1.2038 -0.3513  0.4127
   44DOPE   H4Y 5635   2.186   1.454  13.709  0.6900 -0.1613  1.5292
   44DOPE   C35 5636   2.399   1.471  13.790 -0.0146 -0.2635  0.5808
   44DOPE   H5X 5637   2.492   1.523  13.760 -1.1727  1.3670 -0.3307
   44DOPE   H5Y 5638   2.407   1.361  13.802 -1.8845 -0.6237 -1.0969
   44DOPE   C36 5639   2.372   1.529  13.929  0.1702  0.1407  0.6959
   44DOPE   H6X 5640   2.285   1.471  13.966 -0.6967  1.9113  1.5370
   44DOPE   H6Y 5641   2.339   1.634  13.918  1.3220  0.3394 -1.5768
   44DOPE   C37 5642   2.499   1.520  14.017  0.1319 -0.0309 -0.8540
   44DOPE   H7X 5643   2.595   1.509  13.964 -0.2509 -0.2176 -1.5186
   44DOPE   H7Y 5644   2.516   1.622  14.058 -2.0564 -0.4415  1.3435
   44DOPE   C38 5645   2.491   1.426  14.145  0.7637 -0.0431  0.3051
   44DOPE   H8X 5646   2.593   1.405  14.182 -0.2500 -3.5497  1.4417
   44DOPE   H8Y 5647   2.457   1.322  14.130 -1.2303  0.4477  1.0954
   44DOPE   C39 5648   2.406   1.492  14.249 -0.2503 -0.2498  0.2220
   44DOPE   H9X 5649   2.354   1.580  14.209  1.1465  0.1707 -0.7490
   44DOPE  C310 5650   2.400   1.454  14.383  0.1601 -0.3052  0.2950
   44DOPE  H10X 5651   2.349   1.524  14.451  3.3011  2.1277  0.4082
   44DOPE  C311 5652   2.471   1.343  14.453 -0.3848  0.0743 -0.1209
   44DOPE  H11X 5653   2.395   1.266  14.480  0.8506 -1.8488 -1.7800
   44DOPE  H11Y 5654   2.541   1.297  14.380 -0.7947 -2.4503  0.9636
   44DOPE  C312 5655   2.542   1.384  14.589 -0.3160 -0.3433 -0.5052
   44DOPE  H12X 5656   2.594   1.291  14.621 -0.9214 -0.6574 -0.4284
   44DOPE  H12Y 5657   2.469   1.425  14.662  1.1374 -0.0107  0.8348
   44DOPE  C313 5658   2.650   1.486  14.579 -0.1551  0.4280 -0.0686
   44DOPE  H13X 5659   2.731   1.446  14.514  2.0411  3.1131  0.8113
   44DOPE  H13Y 5660   2.600   1.569  14.525 -4.8049 -1.4360  0.8731
   44DOPE  C314 5661   2.716   1.533  14.714  0.2658 -0.1381 -0.0115
   44DOPE  H14X 5662   2.782   1.447  14.740 -0.3890 -0.2186  1.5013
   44DOPE  H14Y 5663   2.642   1.538  14.796  0.6171 -0.1094  0.3080
   44DOPE  C315 5664   2.781   1.671  14.713 -0.3449  0.3057 -0.1424
   44DOPE  H15X 5665   2.702   1.747  14.697 -0.0953  0.4196 -0.8675
   44DOPE  H15Y 5666   2.857   1.661  14.633 -1.2695 -2.8350 -0.7607
   44DOPE  C316 5667   2.858   1.684  14.851 -0.5197 -0.3146  0.5024
   44DOPE  H16X 5668   2.914   1.591  14.875 -0.0417  0.6941  3.7941
   44DOPE  H16Y 5669   2.773   1.706  14.919 -1.5055  0.7987 -1.0336
   44DOPE  C317 5670   2.956   1.801  14.861  0.6474 -0.8180 -0.3519
   44DOPE  H17X 5671   3.051   1.782  14.807  2.2132  2.8837  0.7419
   44DOPE  H17Y 5672   2.912   1.892  14.814  0.6703 -1.5744 -1.8845
   44DOPE  C318 5673   2.995   1.834  15.004  0.2954  0.7277 -0.4238
   44DOPE  H18X 5674   3.027   1.940  15.003 -0.7147  1.0423 -0.4705
   44DOPE  H18Y 5675   2.912   1.815  15.075 -0.0386  1.8473 -0.4969
   44DOPE  H18Z 5676   3.078   1.766  15.033  2.1570  3.7013  1.7931
   45DOPE     N 5677   3.279   1.615  12.234  0.0828 -0.2745 -0.2525
   45DOPE   HN1 5678   3.273   1.685  12.157  0.7253 -0.0197 -0.0783
   45DOPE   HN2 5679   3.374   1.607  12.277  0.4273 -2.8268 -1.3256
   45DOPE   HN3 5680   3.251   1.530  12.182  0.1445 -1.3091  1.3371
   45DOPE   C12 5681   3.177   1.640  12.338 -0.5341  0.5700 -0.4653
   45DOPE  H12A 5682   3.224   1.719  12.401 -0.1796 -1.4103  1.9094
   45DOPE  H12B 5683   3.170   1.546  12.397 -0.2297 -0.9436 -2.7209
   45DOPE   C11 5684   3.046   1.692  12.275 -0.7006 -0.5885  0.4563
   45DOPE  H11A 5685   2.979   1.721  12.359  0.5487  0.9724  0.9692
   45DOPE  H11B 5686   2.986   1.615  12.221  1.2278 -1.6329 -0.2974
   45DOPE     P 5687   3.105   1.947  12.233  0.1411  0.4220 -0.1497
   45DOPE   O13 5688   3.086   2.045  12.122 -0.2401  0.1188 -0.2602
   45DOPE   O14 5689   3.236   1.947  12.299  0.2408  0.1698  0.0566
   45DOPE   O11 5690   2.994   1.972  12.345 -0.3755  0.3844 -0.2101
   45DOPE   O12 5691   3.074   1.798  12.185  0.1964  0.5613 -0.3606
   45DOPE    C1 5692   3.009   2.080  12.441  0.2705 -0.4009 -0.1287
   45DOPE    HA 5693   2.918   2.142  12.431  0.0649 -0.7049 -0.1484
   45DOPE    HB 5694   3.088   2.153  12.413  0.2987  0.3985  1.8895
   45DOPE    C2 5695   3.027   2.020  12.581  0.2468 -0.1136  0.0815
   45DOPE    HS 5696   2.964   1.929  12.579 -2.5063  1.6250  1.0548
   45DOPE   O21 5697   2.973   2.110  12.680  0.2632  0.7503 -0.2296
   45DOPE   C21 5698   2.928   2.058  12.792 -0.0754 -0.0209  0.0443
   45DOPE   O22 5699   2.916   1.939  12.820  0.4618  0.0797  0.0518
   45DOPE   C22 5700   2.888   2.171  12.891 -0.1310 -0.2713  0.1128
   45DOPE   H2R 5701   2.820   2.232  12.827  0.9072 -1.2485 -2.0237
   45DOPE   H2S 5702   2.986   2.222  12.905  0.5458 -0.3527 -3.4263
   45DOPE    C3 5703   3.180   1.982  12.618  0.7983  0.2492  0.0622
   45DOPE    HX 5704   3.235   2.069  12.659  1.2233  0.6118 -1.2260
   45DOPE    HY 5705   3.246   1.958  12.532  0.2881  0.7124 -0.4678
   45DOPE   O31 5706   3.183   1.870  12.711  0.5030  0.0563  0.5591
   45DOPE   C31 5707   3.233   1.896  12.830  1.1792 -0.4367 -0.0207
   45DOPE   O32 5708   3.263   2.004  12.873 -0.7367  0.1846  0.4879
   45DOPE   C32 5709   3.253   1.771  12.906 -0.1545 -0.1366  0.0546
   45DOPE   H2X 5710   3.155   1.724  12.931 -0.1303 -1.0811 -1.4671
   45DOPE   H2Y 5711   3.306   1.701  12.838 -0.5478  0.7506 -1.2069
   45DOPE   C23 5712   2.822   2.112  13.015  0.5091 -0.8332 -0.3399
   45DOPE   H3R 5713   2.888   2.030  13.050  0.0939 -0.0942  2.4111
   45DOPE   H3S 5714   2.722   2.068  12.992  0.7072 -1.2445 -0.4254
   45DOPE   C24 5715   2.799   2.227  13.120 -0.1514 -0.4689 -0.0462
   45DOPE   H4R 5716   2.737   2.299  13.063  1.7689 -0.2516 -1.9669
   45DOPE   H4S 5717   2.890   2.287  13.143  1.0846 -1.0495 -2.9734
   45DOPE   C25 5718   2.732   2.189  13.253  0.1569  0.2019  0.1860
   45DOPE   H5R 5719   2.796   2.128  13.321 -0.4222 -0.8152 -0.1642
   45DOPE   H5S 5720   2.653   2.118  13.222  1.4207 -1.0113 -0.3388
   45DOPE   C26 5721   2.689   2.310  13.331  0.2522  0.3850  0.4742
   45DOPE   H6R 5722   2.609   2.360  13.273  0.3976  0.2406  0.1446
   45DOPE   H6S 5723   2.765   2.390  13.348 -0.7798  2.2971 -3.0197
   45DOPE   C27 5724   2.620   2.278  13.461 -0.8176 -0.2177  0.5260
   45DOPE   H7R 5725   2.531   2.215  13.442  0.0680 -1.0332 -1.2159
   45DOPE   H7S 5726   2.572   2.368  13.506 -0.2374 -1.2476  3.3668
   45DOPE   C28 5727   2.711   2.218  13.567  0.6709 -0.4205 -0.0239
   45DOPE   H8R 5728   2.740   2.119  13.524  0.5313 -0.5430  0.1634
   45DOPE   H8S 5729   2.651   2.198  13.658  0.5897  1.2409  0.3102
   45DOPE   C29 5730   2.837   2.286  13.607 -0.1409 -0.0861  0.1533
   45DOPE   H9R 5731   2.895   2.321  13.519 -2.1919  3.2525 -0.0555
   45DOPE  C210 5732   2.890   2.290  13.732  0.4883 -0.0584  0.2116
   45DOPE  H10R 5733   2.968   2.363  13.759 -0.6248  0.7985  1.2288
   45DOPE  C211 5734   2.844   2.220  13.856 -0.9595 -0.0161  0.1932
   45DOPE  H11R 5735   2.932   2.188  13.915 -1.0621  1.1966  1.0113
   45DOPE  H11S 5736   2.797   2.122  13.830  1.1158 -1.3365  1.1573
   45DOPE  C212 5737   2.741   2.301  13.935 -0.4222 -1.0806 -1.3150
   45DOPE  H12R 5738   2.644   2.308  13.881 -1.1883  0.3648  0.1638
   45DOPE  H12S 5739   2.788   2.399  13.959  0.2114 -0.8756 -3.1931
   45DOPE  C213 5740   2.708   2.233  14.065 -0.0875 -0.6834 -0.1963
   45DOPE  H13R 5741   2.804   2.220  14.119  0.3159  1.5818 -0.2755
   45DOPE  H13S 5742   2.660   2.133  14.059 -1.4779 -0.0351 -0.3615
   45DOPE  C214 5743   2.611   2.319  14.146  0.5472 -0.1252 -0.8680
   45DOPE  H14R 5744   2.512   2.291  14.103 -0.8798  0.8409  1.5597
   45DOPE  H14S 5745   2.628   2.428  14.136  0.7871  0.0371  0.8922
   45DOPE  C215 5746   2.601   2.278  14.292 -0.6294  0.4555 -0.0014
   45DOPE  H15R 5747   2.691   2.311  14.347  0.7578  1.3617 -2.6021
   45DOPE  H15S 5748   2.593   2.167  14.299  2.2875  0.1677  0.1041
   45DOPE  C216 5749   2.491   2.343  14.368  0.6935  0.2511  0.0492
   45DOPE  H16R 5750   2.389   2.316  14.332  1.0210 -0.9823  0.0174
   45DOPE  H16S 5751   2.491   2.453  14.355 -0.3948  0.2219 -0.3175
   45DOPE  C217 5752   2.474   2.301  14.515  0.1249 -0.0164 -0.0563
   45DOPE  H17R 5753   2.562   2.329  14.577 -0.3728 -0.1541  0.7239
   45DOPE  H17S 5754   2.454   2.192  14.531 -2.7796  0.2107 -1.4611
   45DOPE  C218 5755   2.359   2.378  14.583 -0.1654 -0.4381  1.2666
   45DOPE  H18R 5756   2.341   2.363  14.691 -2.5968  0.8224  1.1135
   45DOPE  H18S 5757   2.272   2.324  14.539  0.6681  0.5400 -1.8839
   45DOPE  H18T 5758   2.351   2.488  14.571  0.9916 -0.2606  1.9894
   45DOPE   C33 5759   3.332   1.797  13.036 -0.0704 -0.6424  0.0182
   45DOPE   H3X 5760   3.295   1.885  13.092 -0.8986 -0.8174 -0.2447
   45DOPE   H3Y 5761   3.438   1.829  13.022  0.0100 -1.8746 -2.9257
   45DOPE   C34 5762   3.337   1.667  13.122  0.9287 -0.4043 -0.0510
   45DOPE   H4X 5763   3.235   1.630  13.141  1.7319 -1.6537  2.1791
   45DOPE   H4Y 5764   3.392   1.582  13.075  1.9322 -0.3088  0.9195
   45DOPE   C35 5765   3.402   1.685  13.259 -0.3537 -0.0257  0.1187
   45DOPE   H5X 5766   3.355   1.772  13.309 -0.3646 -1.4702  2.8174
   45DOPE   H5Y 5767   3.509   1.714  13.255 -0.4063  0.0123 -2.3009
   45DOPE   C36 5768   3.386   1.555  13.338  0.6774  0.5057  0.0807
   45DOPE   H6X 5769   3.440   1.476  13.282  0.1663  0.0792  0.1813
   45DOPE   H6Y 5770   3.279   1.526  13.334  0.7382  0.3921 -1.0928
   45DOPE   C37 5771   3.437   1.572  13.482 -0.1426 -0.2347  0.0858
   45DOPE   H7X 5772   3.526   1.639  13.486  1.3314 -2.1554  1.1910
   45DOPE   H7Y 5773   3.362   1.610  13.554 -1.1407 -2.4592  0.2945
   45DOPE   C38 5774   3.488   1.444  13.549 -0.2587  0.2239  0.3197
   45DOPE   H8X 5775   3.579   1.475  13.605 -0.0957  0.8489 -0.2705
   45DOPE   H8Y 5776   3.536   1.369  13.483  0.4453  1.3354 -0.4743
   45DOPE   C39 5777   3.385   1.373  13.631 -0.0598  0.2205  0.4420
   45DOPE   H9X 5778   3.310   1.324  13.567 -0.6243  2.7432 -0.9869
   45DOPE  C310 5779   3.354   1.403  13.761  0.3020 -0.2198 -0.2982
   45DOPE  H10X 5780   3.266   1.366  13.816  0.4565  0.8204  0.7095
   45DOPE  C311 5781   3.434   1.511  13.843 -0.0173  0.4207  0.5745
   45DOPE  H11X 5782   3.544   1.496  13.834 -0.0737  0.2817  0.0656
   45DOPE  H11Y 5783   3.403   1.613  13.814 -2.3986 -0.3564  0.1264
   45DOPE  C312 5784   3.396   1.501  13.997  0.8703 -0.3222 -0.4362
   45DOPE  H12X 5785   3.463   1.558  14.065 -0.3443 -0.6910  1.1284
   45DOPE  H12Y 5786   3.394   1.397  14.034 -2.9819  0.3444  1.8101
   45DOPE  C313 5787   3.260   1.560  14.030  0.2122 -0.6178 -0.1123
   45DOPE  H13X 5788   3.235   1.656  13.981  1.3530  1.2775  2.7318
   45DOPE  H13Y 5789   3.174   1.495  14.003 -1.6177  0.9405  1.6383
   45DOPE  C314 5790   3.231   1.578  14.184  0.5900 -0.0013  0.8077
   45DOPE  H14X 5791   3.137   1.635  14.197  0.2094 -0.3667 -0.1868
   45DOPE  H14Y 5792   3.313   1.639  14.225  0.2874  1.0291 -0.0750
   45DOPE  C315 5793   3.224   1.436  14.250  0.2299 -0.5839  0.3383
   45DOPE  H15X 5794   3.321   1.384  14.237 -0.0893 -1.8901  2.7112
   45DOPE  H15Y 5795   3.138   1.388  14.199  0.0453 -0.1633  0.2491
   45DOPE  C316 5796   3.211   1.424  14.398 -0.2018  0.1697 -0.0981
   45DOPE  H16X 5797   3.264   1.511  14.442  1.2238 -0.4581 -0.5450
   45DOPE  H16Y 5798   3.254   1.328  14.432 -1.6197 -0.4513  0.0428
   45DOPE  C317 5799   3.063   1.425  14.439  0.8272 -0.5648  0.5055
   45DOPE  H17X 5800   3.002   1.514  14.412  0.4488 -0.8859  0.2887
   45DOPE  H17Y 5801   3.011   1.336  14.399  0.1717  0.0079  0.0414
   45DOPE  C318 5802   3.064   1.416  14.591 -0.2812 -0.0824  0.4976
   45DOPE  H18X 5803   3.088   1.519  14.627  0.3121 -0.2397  0.5707
   45DOPE  H18Y 5804   2.967   1.378  14.628 -0.8419  0.1737 -0.6821
   45DOPE  H18Z 5805   3.144   1.344  14.620 -0.5167 -0.4987  0.1260
   46DOPE     N 5806   2.992   0.351  12.704 -0.6474 -0.2098 -0.0281
   46DOPE   HN1 5807   2.959   0.332  12.607  1.5959 -0.6512 -0.7536
   46DOPE   HN2 5808   2.970   0.450  12.729 -1.1954 -0.4196  0.3540
   46DOPE   HN3 5809   3.095   0.342  12.693 -0.7490 -2.1496  0.2777
   46DOPE   C12 5810   2.943   0.250  12.807  0.0296  0.0021 -0.2745
   46DOPE  H12A 5811   2.943   0.147  12.764 -2.2756  0.0401 -0.4667
   46DOPE  H12B 5812   2.843   0.281  12.844 -0.3765 -0.4227 -0.9821
   46DOPE   C11 5813   3.044   0.253  12.921  0.1463  0.3441 -0.1180
   46DOPE  H11A 5814   2.994   0.204  13.007  2.8693  0.6940  1.8002
   46DOPE  H11B 5815   3.060   0.360  12.947 -0.1407  0.8432 -1.8565
   46DOPE     P 5816   3.303   0.258  12.842  0.1824 -0.0534 -0.1263
   46DOPE   O13 5817   3.266   0.357  12.733 -0.4349  0.3303  0.6767
   46DOPE   O14 5818   3.401   0.155  12.806 -0.3298 -0.4422  0.9235
   46DOPE   O11 5819   3.347   0.338  12.971 -0.6482 -0.1153 -0.4418
   46DOPE   O12 5820   3.168   0.186  12.889  0.2332  0.3217  0.5344
   46DOPE    C1 5821   3.324   0.292  13.101 -0.8120 -0.2965  0.1488
   46DOPE    HA 5822   3.371   0.192  13.115  0.5869  0.5095  1.5436
   46DOPE    HB 5823   3.214   0.287  13.112 -0.7374 -0.9120  0.6877
   46DOPE    C2 5824   3.381   0.390  13.205  0.7431 -0.1979 -0.2552
   46DOPE    HS 5825   3.313   0.478  13.204 -0.1942 -0.8185  1.7986
   46DOPE   O21 5826   3.518   0.422  13.184 -0.0737  0.4408  0.3123
   46DOPE   C21 5827   3.557   0.543  13.218 -0.4595 -0.3626  0.2884
   46DOPE   O22 5828   3.491   0.638  13.263  0.5212  0.3112  0.0348
   46DOPE   C22 5829   3.707   0.543  13.229 -0.2508  0.4801  0.9431
   46DOPE   H2R 5830   3.749   0.604  13.146 -0.4452  0.0170  0.4987
   46DOPE   H2S 5831   3.748   0.442  13.210  0.7895  1.1403 -0.4982
   46DOPE    C3 5832   3.358   0.330  13.346  0.2978 -0.0829 -0.4934
   46DOPE    HX 5833   3.399   0.227  13.348  1.3505  0.3191 -0.2906
   46DOPE    HY 5834   3.248   0.314  13.349  0.1529  0.1729 -2.6668
   46DOPE   O31 5835   3.416   0.411  13.446 -0.1322  0.2188 -0.4131
   46DOPE   C31 5836   3.331   0.479  13.526  0.0970 -0.0556 -0.1227
   46DOPE   O32 5837   3.209   0.484  13.520 -0.0112  0.5632  0.2476
   46DOPE   C32 5838   3.401   0.545  13.644 -0.0406  0.2615 -0.0917
   46DOPE   H2X 5839   3.480   0.613  13.605 -0.4495  1.0379  0.3937
   46DOPE   H2Y 5840   3.328   0.606  13.702 -0.3539  0.8555 -1.0805
   46DOPE   C23 5841   3.764   0.588  13.367 -0.2330 -0.3150 -0.0702
   46DOPE   H3R 5842   3.872   0.560  13.372 -0.3186 -1.1874 -2.0505
   46DOPE   H3S 5843   3.705   0.548  13.452  1.9805  0.0343  1.7256
   46DOPE   C24 5844   3.759   0.738  13.394  0.6764 -0.1205  0.1295
   46DOPE   H4R 5845   3.650   0.758  13.403  0.6393 -0.5112  0.5998
   46DOPE   H4S 5846   3.796   0.792  13.304  0.1850 -2.3232 -1.4678
   46DOPE   C25 5847   3.819   0.762  13.534  0.1785 -0.2554 -0.2857
   46DOPE   H5R 5848   3.929   0.752  13.539  0.3103  1.5039  1.2484
   46DOPE   H5S 5849   3.769   0.689  13.602 -1.1157  2.5761  2.0052
   46DOPE   C26 5850   3.790   0.902  13.583  0.0641 -0.7400 -0.0808
   46DOPE   H6R 5851   3.692   0.938  13.546  0.6713 -1.0960 -2.1830
   46DOPE   H6S 5852   3.861   0.966  13.526  0.6531 -0.3379  1.0837
   46DOPE   C27 5853   3.823   0.910  13.734  0.2725  0.8410  0.7806
   46DOPE   H7R 5854   3.930   0.892  13.759 -0.3276 -1.3283  1.9322
   46DOPE   H7S 5855   3.761   0.844  13.797 -0.3361  0.8737  0.2271
   46DOPE   C28 5856   3.791   1.050  13.785 -0.1532 -0.2694  0.3694
   46DOPE   H8R 5857   3.771   1.041  13.894  0.6690  0.1126  0.5653
   46DOPE   H8S 5858   3.693   1.090  13.751  0.2418 -1.2363 -2.1069
   46DOPE   C29 5859   3.901   1.152  13.763  0.5042 -0.4480  0.0096
   46DOPE   H9R 5860   3.991   1.116  13.710  0.2282  0.0866 -0.8362
   46DOPE  C210 5861   3.898   1.284  13.793  0.2259  1.1436  0.3445
   46DOPE  H10R 5862   3.980   1.355  13.774  2.0135  0.2305  3.7036
   46DOPE  C211 5863   3.786   1.359  13.864 -0.2082  0.4207  0.1814
   46DOPE  H11R 5864   3.693   1.298  13.864  0.6801 -0.9683  0.6318
   46DOPE  H11S 5865   3.769   1.454  13.808  1.3895  0.2796 -0.5934
   46DOPE  C212 5866   3.827   1.384  14.011  0.2641  0.8218 -0.2990
   46DOPE  H12R 5867   3.916   1.449  14.020  1.0307 -0.4414  2.8398
   46DOPE  H12S 5868   3.857   1.284  14.050  2.8296  2.2934  1.8683
   46DOPE  C213 5869   3.713   1.431  14.091  0.4154  0.1330  0.1872
   46DOPE  H13R 5870   3.640   1.346  14.087  1.0863 -0.4813  0.7341
   46DOPE  H13S 5871   3.676   1.531  14.060 -0.8541 -0.3575  0.0444
   46DOPE  C214 5872   3.751   1.461  14.240 -0.2234  0.5249 -0.4105
   46DOPE  H14R 5873   3.798   1.562  14.245  0.3438  0.4925 -3.1504
   46DOPE  H14S 5874   3.825   1.382  14.263 -1.9658 -1.0469  0.0475
   46DOPE  C215 5875   3.637   1.437  14.337  1.3490  0.7305  0.4381
   46DOPE  H15R 5876   3.619   1.328  14.343 -0.6823  1.0157  0.2817
   46DOPE  H15S 5877   3.540   1.479  14.304  0.8505  0.7031  1.8224
   46DOPE  C216 5878   3.661   1.503  14.474 -0.1468  0.7532  0.0925
   46DOPE  H16R 5879   3.643   1.612  14.463  1.2410  0.9227 -0.6928
   46DOPE  H16S 5880   3.765   1.480  14.504 -0.7075  0.2348  1.8211
   46DOPE  C217 5881   3.563   1.443  14.577 -0.1706  0.0511  0.6323
   46DOPE  H17R 5882   3.578   1.333  14.572 -0.7929 -0.0080 -0.0406
   46DOPE  H17S 5883   3.462   1.450  14.533 -0.3100  1.3885  1.1313
   46DOPE  C218 5884   3.560   1.505  14.715 -0.5814  0.4097 -0.4717
   46DOPE  H18R 5885   3.542   1.614  14.709  0.6533  0.6659  0.2499
   46DOPE  H18S 5886   3.659   1.505  14.765 -0.6883  3.4214 -0.0915
   46DOPE  H18T 5887   3.490   1.450  14.782 -0.2432  1.0938  0.4548
   46DOPE   C33 5888   3.468   0.452  13.747 -0.0507  0.3682  0.0891
   46DOPE   H3X 5889   3.538   0.385  13.692  0.4724  1.0085 -0.0350
   46DOPE   H3Y 5890   3.401   0.391  13.811  0.5838 -0.8229 -0.3499
   46DOPE   C34 5891   3.555   0.535  13.839  0.5262 -0.2338  0.3641
   46DOPE   H4X 5892   3.633   0.587  13.779 -0.7004  1.4598  0.1329
   46DOPE   H4Y 5893   3.495   0.616  13.886  1.4641 -0.6976  2.4701
   46DOPE   C35 5894   3.612   0.450  13.947 -0.2774  0.8468 -0.2460
   46DOPE   H5X 5895   3.665   0.369  13.893  1.5383  1.1536  1.0151
   46DOPE   H5Y 5896   3.526   0.416  14.008 -1.4276 -1.0569 -2.7459
   46DOPE   C36 5897   3.706   0.522  14.048 -0.4707 -0.4754  0.2023
   46DOPE   H6X 5898   3.794   0.558  13.991 -1.5091  0.2017 -1.0206
   46DOPE   H6Y 5899   3.758   0.451  14.116 -1.8183  1.1288  3.1100
   46DOPE   C37 5900   3.640   0.639  14.129 -0.6258 -0.3513 -0.0405
   46DOPE   H7X 5901   3.635   0.721  14.055 -1.0251 -1.9713 -1.8819
   46DOPE   H7Y 5902   3.537   0.608  14.158 -0.8478  1.1428  0.9033
   46DOPE   C38 5903   3.717   0.684  14.251  0.1511  0.4124  1.2574
   46DOPE   H8X 5904   3.763   0.599  14.307  3.2133  1.2603  0.2545
   46DOPE   H8Y 5905   3.650   0.741  14.318 -0.2130  1.1489  0.2889
   46DOPE   C39 5906   3.835   0.762  14.198  0.3359  0.3025  0.4142
   46DOPE   H9X 5907   3.881   0.718  14.108 -1.3608 -0.8479  0.0649
   46DOPE  C310 5908   3.891   0.876  14.251 -0.5792  0.4596  0.2702
   46DOPE  H10X 5909   3.995   0.902  14.225  0.3993 -0.7284  2.6790
   46DOPE  C311 5910   3.832   0.962  14.358  0.0161 -1.1989  0.0028
   46DOPE  H11X 5911   3.774   1.047  14.317  0.1877 -0.5824  1.0089
   46DOPE  H11Y 5912   3.765   0.911  14.430  0.3831  0.0152  1.2481
   46DOPE  C312 5913   3.934   1.028  14.448 -0.8077 -0.6364 -0.6188
   46DOPE  H12X 5914   4.023   1.053  14.386  1.0163 -4.1269  0.3264
   46DOPE  H12Y 5915   3.983   0.963  14.524  0.0905  1.2004  0.4616
   46DOPE  C313 5916   3.878   1.147  14.518  0.1726 -0.8386  0.0935
   46DOPE  H13X 5917   3.827   1.217  14.447 -1.8898 -0.7947  1.5340
   46DOPE  H13Y 5918   3.793   1.109  14.579 -1.7401  0.9124 -1.3208
   46DOPE  C314 5919   3.971   1.221  14.616  0.1670  0.2359  0.2454
   46DOPE  H14X 5920   3.917   1.312  14.649 -1.4789 -0.0459 -1.5035
   46DOPE  H14Y 5921   4.069   1.248  14.570 -0.3401  0.2817 -0.8327
   46DOPE  C315 5922   3.999   1.134  14.740 -0.3560  0.4251  0.4328
   46DOPE  H15X 5923   4.025   1.032  14.706  0.1591  0.3370  1.0763
   46DOPE  H15Y 5924   3.913   1.108  14.805  0.5229 -0.4990  1.2622
   46DOPE  C316 5925   4.108   1.207  14.817  0.9647  0.3072 -0.6673
   46DOPE  H16X 5926   4.089   1.317  14.818  2.1727  0.6813  3.8352
   46DOPE  H16Y 5927   4.207   1.186  14.772  1.4346 -1.7189  1.1458
   46DOPE  C317 5928   4.099   1.172  14.972 -0.3551 -0.5518 -0.1185
   46DOPE  H17X 5929   3.995   1.184  15.010 -0.2763  3.0320 -0.6848
   46DOPE  H17Y 5930   4.119   1.063  14.968  1.4962 -0.2659  0.4950
   46DOPE  C318 5931   4.199   1.238  15.062  1.0127  0.2311  0.5863
   46DOPE  H18X 5932   4.190   1.193  15.163  2.8049  0.0275  0.6948
   46DOPE  H18Y 5933   4.301   1.246  15.017  0.1333  2.9943 -1.1938
   46DOPE  H18Z 5934   4.155   1.339  15.080  0.6591  0.0802  0.5644
   47DOPE     N 5935   1.328   5.665  12.872 -0.2807  0.3182 -0.3775
   47DOPE   HN1 5936   1.249   5.598  12.872  0.0114 -0.0587  1.2807
   47DOPE   HN2 5937   1.321   5.715  12.963 -1.0997  1.8840 -1.2472
   47DOPE   HN3 5938   1.316   5.747  12.808  1.3647  2.7645  2.1788
   47DOPE   C12 5939   1.451   5.588  12.866  0.3556  0.0526  0.8353
   47DOPE  H12A 5940   1.436   5.509  12.790  0.5993  0.9941 -0.2182
   47DOPE  H12B 5941   1.473   5.538  12.963  0.1377 -0.1565  0.7781
   47DOPE   C11 5942   1.575   5.676  12.827 -0.1182  0.3709  0.2331
   47DOPE  H11A 5943   1.551   5.712  12.725 -0.6229  0.3329  0.3372
   47DOPE  H11B 5944   1.659   5.603  12.824  1.4984  2.1396  0.3911
   47DOPE     P 5945   1.631   5.919  12.866  0.3575  0.0672 -0.3853
   47DOPE   O13 5946   1.538   5.958  12.759  0.4041  0.0841 -0.0001
   47DOPE   O14 5947   1.771   5.924  12.834  0.6751 -0.1823  1.0651
   47DOPE   O11 5948   1.604   6.022  12.974  0.1964 -0.4373  0.4133
   47DOPE   O12 5949   1.590   5.781  12.923 -0.2674  0.0056 -0.1073
   47DOPE    C1 5950   1.503   5.996  13.076 -0.4098 -0.6188 -0.3099
   47DOPE    HA 5951   1.545   5.930  13.155 -1.3357 -0.2289  0.5415
   47DOPE    HB 5952   1.415   5.944  13.032  0.0731  0.0110 -2.1180
   47DOPE    C2 5953   1.442   6.119  13.134 -0.1471 -0.3748  0.0378
   47DOPE    HS 5954   1.508   6.154  13.216 -0.1622  1.2309 -0.6080
   47DOPE   O21 5955   1.311   6.109  13.185 -0.1617 -0.0689 -0.1475
   47DOPE   C21 5956   1.291   6.029  13.296 -0.5261 -0.1723  0.4744
   47DOPE   O22 5957   1.378   5.979  13.359 -0.1677  0.4534  0.2391
   47DOPE   C22 5958   1.146   6.018  13.337 -0.1266 -1.0940  0.4236
   47DOPE   H2R 5959   1.095   5.969  13.252  0.1197  0.7718 -0.8647
   47DOPE   H2S 5960   1.116   6.124  13.354 -0.0166 -1.1131  0.7421
   47DOPE    C3 5961   1.437   6.232  13.022 -0.0559 -0.5669 -0.4047
   47DOPE    HX 5962   1.366   6.209  12.940  2.8854 -4.0411 -2.2831
   47DOPE    HY 5963   1.540   6.239  12.982  0.3353  0.0692  0.6640
   47DOPE   O31 5964   1.401   6.365  13.082  0.6576 -0.4524  0.0558
   47DOPE   C31 5965   1.507   6.424  13.143 -0.0491  0.4364  0.0839
   47DOPE   O32 5966   1.617   6.379  13.151  0.2611 -0.0159  0.6714
   47DOPE   C32 5967   1.475   6.556  13.209  0.1810  0.0753  0.6886
   47DOPE   H2X 5968   1.553   6.616  13.156 -0.2043  0.3671  0.4455
   47DOPE   H2Y 5969   1.372   6.580  13.174  0.7020  2.9689  0.8690
   47DOPE   C23 5970   1.125   5.925  13.464  0.1714 -0.3216 -0.0720
   47DOPE   H3R 5971   1.191   5.967  13.542  0.2786 -1.4709  0.4700
   47DOPE   H3S 5972   1.158   5.824  13.434  1.2016 -0.3768  1.1845
   47DOPE   C24 5973   0.984   5.914  13.515  0.3023 -0.2439  0.5496
   47DOPE   H4R 5974   0.926   5.874  13.430 -0.3237  0.4022  0.6640
   47DOPE   H4S 5975   0.938   6.012  13.543  3.6727  1.1529  1.8082
   47DOPE   C25 5976   0.980   5.830  13.642 -0.1144  0.0578 -0.0502
   47DOPE   H5R 5977   1.044   5.739  13.632 -1.0053 -0.4679 -1.3134
   47DOPE   H5S 5978   0.877   5.789  13.648  0.1766 -0.8606 -0.9711
   47DOPE   C26 5979   1.016   5.908  13.764  0.3198 -0.2997  0.2115
   47DOPE   H6R 5980   0.919   5.946  13.804  0.3158 -0.3078  0.2092
   47DOPE   H6S 5981   1.092   5.985  13.739  2.4239 -2.5804 -0.7742
   47DOPE   C27 5982   1.072   5.819  13.874  1.0902  0.4349 -0.3063
   47DOPE   H7R 5983   1.156   5.760  13.834 -1.4567 -3.3631 -0.5591
   47DOPE   H7S 5984   0.995   5.741  13.893 -1.0104  1.9277 -2.0848
   47DOPE   C28 5985   1.104   5.897  13.998  0.3981  0.4404  0.5832
   47DOPE   H8R 5986   1.182   5.970  13.968 -1.1680  1.6946 -0.6116
   47DOPE   H8S 5987   1.147   5.820  14.066 -1.5970 -0.7095  0.6322
   47DOPE   C29 5988   0.996   5.981  14.064  0.1327  0.9869  0.1556
   47DOPE   H9R 5989   0.951   6.055  13.995  0.0399  0.2839 -0.5490
   47DOPE  C210 5990   0.958   5.981  14.195 -0.1117  0.0703 -0.3552
   47DOPE  H10R 5991   0.893   6.059  14.235 -0.5847 -0.2216 -0.5484
   47DOPE  C211 5992   1.020   5.897  14.303 -0.2532  0.0637  0.2617
   47DOPE  H11R 5993   1.066   5.798  14.279 -0.1498 -0.3660  2.0623
   47DOPE  H11S 5994   0.936   5.863  14.367  0.1310 -1.2008  0.1213
   47DOPE  C212 5995   1.117   5.987  14.385 -0.0191 -0.4052  0.7558
   47DOPE  H12R 5996   1.067   6.086  14.394 -1.4163 -0.7485 -2.0332
   47DOPE  H12S 5997   1.214   6.003  14.332  0.8373  3.3680  3.0553
   47DOPE  C213 5998   1.140   5.924  14.517  0.0767 -0.3632 -1.1873
   47DOPE  H13R 5999   1.161   5.817  14.497  0.1770 -0.2080 -1.9419
   47DOPE  H13S 6000   1.045   5.919  14.575  1.4505 -0.2937  1.2007
   47DOPE  C214 6001   1.249   5.989  14.605 -0.9461  0.1443 -0.0278
   47DOPE  H14R 6002   1.213   6.091  14.627 -2.6940 -0.4370  0.0159
   47DOPE  H14S 6003   1.346   5.975  14.553 -0.0529 -1.1521  1.8777
   47DOPE  C215 6004   1.273   5.919  14.739  0.1772  0.2462  0.3359
   47DOPE  H15R 6005   1.287   5.809  14.731  0.1930  0.2457  0.3711
   47DOPE  H15S 6006   1.177   5.929  14.795 -0.8424 -2.0578 -0.8437
   47DOPE  C216 6007   1.372   5.986  14.831  0.6712  0.1183 -0.2096
   47DOPE  H16R 6008   1.475   5.991  14.790  0.7728  0.9798  0.1423
   47DOPE  H16S 6009   1.399   5.926  14.920 -0.2871 -0.7119 -0.4520
   47DOPE  C217 6010   1.324   6.129  14.879  0.0543  0.1319 -0.0874
   47DOPE  H17R 6011   1.218   6.106  14.906  0.5169 -1.9871  0.1327
   47DOPE  H17S 6012   1.319   6.176  14.779 -0.5808 -0.7996 -0.5112
   47DOPE  C218 6013   1.407   6.206  14.985  0.3616 -0.3151  0.1058
   47DOPE  H18R 6014   1.357   6.303  15.007  0.9134 -0.1701  0.7611
   47DOPE  H18S 6015   1.508   6.217  14.940  2.1265 -0.2873  3.6380
   47DOPE  H18T 6016   1.428   6.142  15.074  1.9946 -3.5517 -2.4177
   47DOPE   C33 6017   1.491   6.556  13.363 -0.2192  0.3626 -0.1070
   47DOPE   H3X 6018   1.526   6.455  13.392  0.4631  0.2563 -1.2586
   47DOPE   H3Y 6019   1.389   6.567  13.406 -0.3154 -0.0154 -0.2381
   47DOPE   C34 6020   1.590   6.660  13.430  0.0075  0.7857 -0.0841
   47DOPE   H4X 6021   1.553   6.758  13.392  1.3478  1.5035  0.3873
   47DOPE   H4Y 6022   1.593   6.662  13.541 -0.4228 -2.8677  0.1035
   47DOPE   C35 6023   1.743   6.631  13.388  0.2909 -0.8638  0.1540
   47DOPE   H5X 6024   1.801   6.724  13.402  0.8762 -1.2798  0.5685
   47DOPE   H5Y 6025   1.751   6.612  13.279  2.8417 -0.6019  0.2298
   47DOPE   C36 6026   1.814   6.515  13.466  0.1921  0.0396 -0.9176
   47DOPE   H6X 6027   1.890   6.475  13.396 -0.7560 -1.3008 -1.2165
   47DOPE   H6Y 6028   1.742   6.432  13.475  2.3758 -1.8776 -0.1333
   47DOPE   C37 6029   1.863   6.548  13.606  0.1770 -0.1501  0.9774
   47DOPE   H7X 6030   1.932   6.636  13.607 -1.7197  1.4290  0.0217
   47DOPE   H7Y 6031   1.783   6.590  13.672 -0.4049  0.4918 -0.0948
   47DOPE   C38 6032   1.934   6.437  13.690  0.2940  0.0723 -0.0198
   47DOPE   H8X 6033   1.954   6.489  13.786 -0.0819 -0.3269  0.2775
   47DOPE   H8Y 6034   2.035   6.418  13.647  0.5964  0.0212  0.7079
   47DOPE   C39 6035   1.863   6.303  13.712  0.1224 -0.3123  0.1526
   47DOPE   H9X 6036   1.881   6.227  13.634  1.4113  0.4903 -0.3546
   47DOPE  C310 6037   1.798   6.270  13.826  0.6279 -0.4247 -0.0975
   47DOPE  H10X 6038   1.770   6.164  13.821 -0.5045 -0.1001 -1.0108
   47DOPE  C311 6039   1.762   6.340  13.948 -0.4403  0.0373 -0.1731
   47DOPE  H11X 6040   1.772   6.448  13.926  0.0429 -0.1788 -1.0542
   47DOPE  H11Y 6041   1.659   6.314  13.979 -0.1240 -1.9750 -0.6411
   47DOPE  C312 6042   1.842   6.307  14.076  0.3663  0.3408  0.0127
   47DOPE  H12X 6043   1.948   6.327  14.050 -0.0076  0.9721 -1.0810
   47DOPE  H12Y 6044   1.827   6.198  14.092 -1.2397  0.9187  3.2237
   47DOPE  C313 6045   1.800   6.387  14.194  0.4716  0.0370 -0.0768
   47DOPE  H13X 6046   1.818   6.492  14.162  0.4510  0.0081 -0.1863
   47DOPE  H13Y 6047   1.696   6.374  14.230  0.9425  1.3988  1.9318
   47DOPE  C314 6048   1.889   6.349  14.312 -0.2400 -0.5409  0.5919
   47DOPE  H14X 6049   1.925   6.244  14.309  0.6922 -0.2833  2.0349
   47DOPE  H14Y 6050   1.831   6.355  14.407  0.6189  1.3010  1.0473
   47DOPE  C315 6051   2.004   6.456  14.318 -0.3724 -0.0038  0.3909
   47DOPE  H15X 6052   1.964   6.557  14.297  4.2619  2.3063  1.2135
   47DOPE  H15Y 6053   2.068   6.440  14.228 -1.4730  1.2174 -0.6363
   47DOPE  C316 6054   2.100   6.442  14.444 -0.5780 -0.1308  0.7964
   47DOPE  H16X 6055   2.188   6.509  14.432  0.8159 -1.7111  1.6130
   47DOPE  H16Y 6056   2.137   6.337  14.436  0.5439  0.3052 -0.0591
   47DOPE  C317 6057   2.032   6.470  14.581  0.0813  0.4084  0.7911
   47DOPE  H17X 6058   2.016   6.579  14.592  0.4318  0.4843  0.5589
   47DOPE  H17Y 6059   1.942   6.409  14.602  0.4678  0.5396  3.1021
   47DOPE  C318 6060   2.129   6.433  14.696  0.3229 -0.0013 -0.1851
   47DOPE  H18X 6061   2.228   6.482  14.680 -0.0165  0.3249 -1.4314
   47DOPE  H18Y 6062   2.085   6.455  14.796 -1.4415 -0.3101 -0.8467
   47DOPE  H18Z 6063   2.144   6.323  14.691  1.8063  0.2463 -1.9431
   48DOPE     N 6064   5.592   3.527  12.466  0.4260  0.5586 -0.1268
   48DOPE   HN1 6065   5.689   3.543  12.499  0.7968  1.8608 -1.6768
   48DOPE   HN2 6066   5.599   3.451  12.396 -1.6181 -0.2715  0.4889
   48DOPE   HN3 6067   5.564   3.613  12.414 -0.5032 -1.3827 -3.1200
   48DOPE   C12 6068   5.499   3.478  12.573 -0.3438 -0.1026 -0.0675
   48DOPE  H12A 6069   5.458   3.564  12.629 -2.8720 -1.9510  1.0836
   48DOPE  H12B 6070   5.552   3.408  12.641 -1.1392 -1.2822 -0.6271
   48DOPE   C11 6071   5.381   3.391  12.521  0.9683  0.1612  0.1829
   48DOPE  H11A 6072   5.323   3.468  12.465 -0.2004 -1.9423 -1.6607
   48DOPE  H11B 6073   5.326   3.349  12.608  2.8026 -0.8128  0.9257
   48DOPE     P 6074   5.446   3.143  12.464 -0.1823 -0.0773 -0.2394
   48DOPE   O13 6075   5.587   3.109  12.423  0.0346  0.4598 -0.4443
   48DOPE   O14 6076   5.341   3.052  12.418  0.1235  0.0009  0.3551
   48DOPE   O11 6077   5.454   3.144  12.617 -0.0423  1.0067  0.0350
   48DOPE   O12 6078   5.421   3.292  12.424  0.3494  0.2601  0.2738
   48DOPE    C1 6079   5.400   3.030  12.695 -0.2056  0.5799 -0.7071
   48DOPE    HA 6080   5.464   2.939  12.690  0.3016  0.9378 -0.7637
   48DOPE    HB 6081   5.303   2.991  12.656 -1.3326  0.9311  1.5837
   48DOPE    C2 6082   5.381   3.067  12.847 -0.4052  0.3073  0.4462
   48DOPE    HS 6083   5.326   3.163  12.843  0.8653  1.0278 -0.6995
   48DOPE   O21 6084   5.511   3.079  12.910 -0.3238 -0.1366  0.2387
   48DOPE   C21 6085   5.516   3.151  13.028 -0.3012 -0.2665  0.7523
   48DOPE   O22 6086   5.431   3.229  13.064 -0.1318  0.0472 -0.0143
   48DOPE   C22 6087   5.641   3.131  13.103 -0.1971 -0.8324 -0.4769
   48DOPE   H2R 6088   5.723   3.153  13.031 -0.9385 -0.3609 -1.1964
   48DOPE   H2S 6089   5.641   3.029  13.145 -1.9924 -0.8883 -0.5388
   48DOPE    C3 6090   5.298   2.960  12.920  0.1509 -0.3630  0.2308
   48DOPE    HX 6091   5.355   2.867  12.939  0.6982  0.1672  1.3156
   48DOPE    HY 6092   5.200   2.927  12.880  1.1714 -2.0282 -0.9974
   48DOPE   O31 6093   5.268   3.027  13.043  0.0136  0.0288 -0.2956
   48DOPE   C31 6094   5.300   2.980  13.159 -0.1892  0.0489 -0.2738
   48DOPE   O32 6095   5.370   2.886  13.182 -0.0485  0.0817  0.0149
   48DOPE   C32 6096   5.237   3.069  13.269  0.0979 -0.0259 -0.4783
   48DOPE   H2X 6097   5.295   3.163  13.279  1.3744 -1.0142  2.3103
   48DOPE   H2Y 6098   5.129   3.091  13.251 -0.2387 -0.0297  1.3707
   48DOPE   C23 6099   5.664   3.225  13.230  0.8257 -0.5622 -0.0505
   48DOPE   H3R 6100   5.614   3.324  13.221  0.0221 -0.9129  0.4021
   48DOPE   H3S 6101   5.772   3.247  13.246  0.4917 -0.5138  2.5770
   48DOPE   C24 6102   5.605   3.163  13.358 -0.3951 -0.4315  0.0166
   48DOPE   H4R 6103   5.675   3.081  13.384 -0.6106 -0.5405  0.2630
   48DOPE   H4S 6104   5.504   3.124  13.332  0.0288 -1.4304 -0.1809
   48DOPE   C25 6105   5.592   3.264  13.468 -0.4369 -0.4027 -0.4397
   48DOPE   H5R 6106   5.537   3.353  13.429  1.3736  0.5104 -0.9999
   48DOPE   H5S 6107   5.695   3.294  13.497 -0.1738 -1.8533  0.2222
   48DOPE   C26 6108   5.542   3.216  13.607  0.3084  0.8062  0.6073
   48DOPE   H6R 6109   5.574   3.114  13.635 -1.7654  0.4124  1.6730
   48DOPE   H6S 6110   5.431   3.211  13.601  0.3658 -2.8454  0.4265
   48DOPE   C27 6111   5.584   3.311  13.722  0.0294 -0.1940 -0.8837
   48DOPE   H7R 6112   5.552   3.413  13.690 -1.9151 -0.3655  0.3856
   48DOPE   H7S 6113   5.694   3.306  13.730  0.0283  1.6283  0.9502
   48DOPE   C28 6114   5.519   3.272  13.859  0.6783  1.0210 -0.7276
   48DOPE   H8R 6115   5.409   3.260  13.857  0.9863 -3.1708 -0.9320
   48DOPE   H8S 6116   5.538   3.361  13.924  2.0039  0.5494 -0.4388
   48DOPE   C29 6117   5.567   3.134  13.908 -0.1443  0.0614  0.4863
   48DOPE   H9R 6118   5.573   3.056  13.831 -0.6598 -0.1541  0.6614
   48DOPE  C210 6119   5.620   3.109  14.028 -0.4324 -0.9138  0.2431
   48DOPE  H10R 6120   5.655   3.006  14.047 -0.2678 -0.9109 -0.0389
   48DOPE  C211 6121   5.619   3.204  14.147 -0.5171  0.3736 -0.2039
   48DOPE  H11R 6122   5.569   3.301  14.125  0.4809  0.9777  0.1282
   48DOPE  H11S 6123   5.721   3.242  14.166  0.6115 -2.1736 -0.8079
   48DOPE  C212 6124   5.559   3.137  14.273  0.7460  0.0243  0.4260
   48DOPE  H12R 6125   5.637   3.066  14.309  0.4983 -0.2691  0.3856
   48DOPE  H12S 6126   5.473   3.075  14.241 -0.0128  1.1012  0.3252
   48DOPE  C213 6127   5.526   3.235  14.388 -0.4787  0.5914 -0.6256
   48DOPE  H13R 6128   5.456   3.312  14.350 -0.4777  1.2251  0.6084
   48DOPE  H13S 6129   5.618   3.290  14.418  0.7540 -1.6266 -0.1004
   48DOPE  C214 6130   5.480   3.166  14.519  0.1598 -0.0135  0.3018
   48DOPE  H14R 6131   5.558   3.100  14.563  0.4394  0.2200  0.1550
   48DOPE  H14S 6132   5.405   3.094  14.481 -0.0455  0.0993  0.4864
   48DOPE  C215 6133   5.439   3.261  14.628 -0.6963 -0.0278  0.1879
   48DOPE  H15R 6134   5.346   3.309  14.591 -0.8265 -0.6551 -0.3225
   48DOPE  H15S 6135   5.515   3.338  14.652  2.2502 -2.2585 -1.2707
   48DOPE  C216 6136   5.414   3.185  14.759  0.0709 -0.6562 -1.0477
   48DOPE  H16R 6137   5.359   3.253  14.828  1.5228 -2.0070  1.6013
   48DOPE  H16S 6138   5.517   3.169  14.798 -1.1147 -3.9678  1.0617
   48DOPE  C217 6139   5.329   3.059  14.746  0.3759 -0.5381  0.3214
   48DOPE  H17R 6140   5.384   2.982  14.687  0.9791 -0.1072  0.3166
   48DOPE  H17S 6141   5.238   3.089  14.690 -0.1214 -1.2875  0.7049
   48DOPE  C218 6142   5.282   2.990  14.879 -0.3565 -0.1189  0.0797
   48DOPE  H18R 6143   5.218   2.904  14.849 -0.3618  0.1173 -0.5935
   48DOPE  H18S 6144   5.236   3.063  14.949  0.5586  0.0704  0.5006
   48DOPE  H18T 6145   5.370   2.948  14.932  0.6878 -0.4303 -1.8379
   48DOPE   C33 6146   5.246   2.986  13.402  0.3342 -0.0558  0.5195
   48DOPE   H3X 6147   5.355   2.980  13.423  0.4846  1.8021  0.4154
   48DOPE   H3Y 6148   5.204   2.884  13.389 -0.1968  0.1341  0.7088
   48DOPE   C34 6149   5.178   3.041  13.532 -0.1843  0.4112  0.1230
   48DOPE   H4X 6150   5.230   3.136  13.556  0.4671  0.3600 -1.0278
   48DOPE   H4Y 6151   5.069   3.059  13.521 -0.5086 -0.5134  1.4562
   48DOPE   C35 6152   5.206   2.953  13.647  0.4483 -0.7536  0.4359
   48DOPE   H5X 6153   5.315   2.953  13.669  0.3955 -1.5559  0.7347
   48DOPE   H5Y 6154   5.188   2.847  13.619  0.6594 -1.1883  1.8478
   48DOPE   C36 6155   5.131   2.987  13.774  0.3026  0.3320 -0.5472
   48DOPE   H6X 6156   5.021   2.975  13.761 -0.0281  0.2661  1.8574
   48DOPE   H6Y 6157   5.154   3.090  13.807 -1.7611  0.6697 -0.0000
   48DOPE   C37 6158   5.171   2.897  13.887 -0.3843 -0.7767  1.1642
   48DOPE   H7X 6159   5.145   2.793  13.861  1.2093 -0.8708 -0.2205
   48DOPE   H7Y 6160   5.282   2.899  13.891 -0.3585 -0.2469  0.3949
   48DOPE   C38 6161   5.099   2.947  14.016  0.2451 -0.0177 -0.3927
   48DOPE   H8X 6162   4.988   2.945  14.014  0.0774  2.3210 -4.5485
   48DOPE   H8Y 6163   5.125   3.054  14.033  2.0402 -0.2879 -1.2813
   48DOPE   C39 6164   5.137   2.859  14.127 -0.0565 -0.1477 -0.0564
   48DOPE   H9X 6165   5.160   2.754  14.102 -1.1034 -0.0913 -1.3995
   48DOPE  C310 6166   5.174   2.908  14.245 -0.1815 -0.2594  0.5989
   48DOPE  H10X 6167   5.205   2.832  14.319 -1.1037 -2.2742 -0.9810
   48DOPE  C311 6168   5.151   3.047  14.298 -1.0631  0.0862 -0.3077
   48DOPE  H11X 6169   5.239   3.081  14.356 -0.2010  0.4669 -1.8009
   48DOPE  H11Y 6170   5.143   3.127  14.222  0.5861  1.5866  1.0048
   48DOPE  C312 6171   5.032   3.042  14.384 -0.4065 -1.6421 -0.7395
   48DOPE  H12X 6172   4.948   3.042  14.312  0.5456  0.7537 -1.9616
   48DOPE  H12Y 6173   5.035   3.145  14.428 -0.0713 -1.4865 -1.1219
   48DOPE  C313 6174   5.017   2.932  14.489 -0.3689 -0.0411 -0.0509
   48DOPE  H13X 6175   5.000   2.833  14.442 -0.3803  0.3608 -0.9057
   48DOPE  H13Y 6176   5.109   2.939  14.551  0.9098 -0.0878 -1.8769
   48DOPE  C314 6177   4.901   2.953  14.586  0.6177 -0.1282  0.8471
   48DOPE  H14X 6178   4.806   2.931  14.532  1.6342 -1.3406 -0.5041
   48DOPE  H14Y 6179   4.897   3.063  14.604 -0.4398  0.3910 -2.0538
   48DOPE  C315 6180   4.915   2.861  14.716  0.2451 -0.0152  0.4077
   48DOPE  H15X 6181   5.011   2.885  14.767 -0.3896 -1.1811  2.2737
   48DOPE  H15Y 6182   4.927   2.754  14.686  0.9536  0.3254 -0.5669
   48DOPE  C316 6183   4.798   2.889  14.805 -0.4590  0.4682 -1.1065
   48DOPE  H16X 6184   4.813   2.845  14.906  2.2949  0.6433 -1.3657
   48DOPE  H16Y 6185   4.704   2.842  14.767 -0.3738 -1.1198  0.5134
   48DOPE  C317 6186   4.779   3.043  14.844 -0.4911 -0.5530 -0.3354
   48DOPE  H17X 6187   4.872   3.071  14.898 -1.0045  1.4989 -0.4336
   48DOPE  H17Y 6188   4.766   3.102  14.751  1.6684 -1.0130 -0.9766
   48DOPE  C318 6189   4.658   3.053  14.935  0.0218  0.1035  0.1593
   48DOPE  H18X 6190   4.677   2.988  15.023  3.0663  1.8698  0.9558
   48DOPE  H18Y 6191   4.652   3.159  14.968  2.9624  0.8353 -1.3011
   48DOPE  H18Z 6192   4.573   3.019  14.872  0.5959  2.1184 -1.8579
   49DOPE     N 6193   6.276   5.154  12.451 -0.2369 -0.1261  0.7549
   49DOPE   HN1 6194   6.297   5.097  12.367  0.6390  0.1669  0.7584
   49DOPE   HN2 6195   6.214   5.231  12.419 -1.5172 -0.2115  2.8605
   49DOPE   HN3 6196   6.363   5.209  12.466  1.2415 -1.8807 -0.9312
   49DOPE   C12 6197   6.248   5.088  12.583 -0.0715 -0.0213 -0.1827
   49DOPE  H12A 6198   6.347   5.066  12.629  0.3307 -0.6944 -1.3222
   49DOPE  H12B 6199   6.188   4.999  12.555  0.9930 -0.7260 -0.2892
   49DOPE   C11 6200   6.157   5.180  12.674  0.0060 -0.1945 -0.2799
   49DOPE  H11A 6201   6.216   5.262  12.719 -1.0594 -0.4533  1.7214
   49DOPE  H11B 6202   6.116   5.118  12.757  0.3595 -0.0399  0.0101
   49DOPE     P 6203   5.990   5.367  12.647 -0.1435  0.1681 -0.2418
   49DOPE   O13 6204   5.861   5.374  12.573  0.0913 -0.1373  0.2302
   49DOPE   O14 6205   6.088   5.487  12.638 -0.2754  0.8553  0.3348
   49DOPE   O11 6206   5.954   5.330  12.803 -0.4004  0.3777 -0.0250
   49DOPE   O12 6207   6.052   5.234  12.594  0.3614 -0.4157 -0.6976
   49DOPE    C1 6208   5.821   5.270  12.822 -0.5560  0.3120 -0.7304
   49DOPE    HA 6209   5.824   5.169  12.777  0.4055  0.4772 -1.0557
   49DOPE    HB 6210   5.739   5.333  12.781 -0.2309 -0.0626 -2.0022
   49DOPE    C2 6211   5.804   5.247  12.976  0.3019 -0.7936  0.5935
   49DOPE    HS 6212   5.828   5.334  13.041 -0.7762 -0.5737  0.7124
   49DOPE   O21 6213   5.875   5.119  13.003 -0.0354  0.1737  0.2350
   49DOPE   C21 6214   5.984   5.133  13.076 -0.1377 -1.0936 -0.4511
   49DOPE   O22 6215   6.022   5.242  13.113 -0.1833  0.1612  0.2869
   49DOPE   C22 6216   6.066   5.009  13.081  0.4863  0.1417 -0.6021
   49DOPE   H2R 6217   6.098   4.989  12.976  0.2716  2.4368 -1.1685
   49DOPE   H2S 6218   6.007   4.923  13.118 -0.2610  0.5626 -0.7906
   49DOPE    C3 6219   5.654   5.214  13.000 -0.0466  0.1196 -0.2160
   49DOPE    HX 6220   5.626   5.140  12.922  1.6524 -0.4182 -0.3604
   49DOPE    HY 6221   5.593   5.306  12.995 -2.5050 -1.1123  3.1690
   49DOPE   O31 6222   5.646   5.151  13.130  0.2932  0.6609  0.1041
   49DOPE   C31 6223   5.515   5.117  13.160 -0.3749 -0.2619 -0.3861
   49DOPE   O32 6224   5.429   5.120  13.076  0.4691 -0.3980 -0.2280
   49DOPE   C32 6225   5.501   5.074  13.302 -0.5131  0.3206 -0.2335
   49DOPE   H2X 6226   5.569   4.990  13.325  2.5787  2.8266  0.4662
   49DOPE   H2Y 6227   5.534   5.156  13.370  2.9999 -0.2512 -1.0419
   49DOPE   C23 6228   6.188   5.002  13.166  0.0783  0.3594 -0.1781
   49DOPE   H3R 6229   6.230   5.105  13.168  2.0295 -0.3920 -0.0045
   49DOPE   H3S 6230   6.266   4.930  13.133 -0.7989 -0.0286 -1.4449
   49DOPE   C24 6231   6.146   4.973  13.310  0.2645  0.3052  0.2352
   49DOPE   H4R 6232   6.115   4.866  13.313  3.2587 -0.8971 -3.7642
   49DOPE   H4S 6233   6.067   5.048  13.334 -1.7316 -1.1544 -1.3890
   49DOPE   C25 6234   6.254   4.999  13.412 -0.3755 -0.2674  0.3056
   49DOPE   H5R 6235   6.294   5.101  13.390 -2.3589  0.6086  0.5095
   49DOPE   H5S 6236   6.337   4.935  13.376 -1.1919 -0.3573 -1.5849
   49DOPE   C26 6237   6.226   4.981  13.563 -0.0403  0.0033  0.3904
   49DOPE   H6R 6238   6.160   4.892  13.571 -0.1409  0.1913  2.0669
   49DOPE   H6S 6239   6.186   5.078  13.598  0.9393  0.4461  0.3313
   49DOPE   C27 6240   6.345   4.960  13.659 -0.8555 -0.1805  0.0810
   49DOPE   H7R 6241   6.414   5.047  13.651 -1.3836  0.1552 -0.9452
   49DOPE   H7S 6242   6.397   4.863  13.638 -0.6732 -0.1997  0.5994
   49DOPE   C28 6243   6.290   4.953  13.804  0.2668 -0.1332 -0.4647
   49DOPE   H8R 6244   6.370   4.910  13.869  1.6184 -0.7850 -2.4518
   49DOPE   H8S 6245   6.217   4.869  13.808 -1.8647  1.5673 -1.7466
   49DOPE   C29 6246   6.215   5.069  13.852 -0.4429 -0.0327 -0.7401
   49DOPE   H9R 6247   6.203   5.153  13.782  0.0222 -0.5442 -1.4615
   49DOPE  C210 6248   6.165   5.078  13.977 -0.0601  0.1513  0.6234
   49DOPE  H10R 6249   6.120   5.174  14.006  0.9766  1.1393 -0.8799
   49DOPE  C211 6250   6.184   4.978  14.086 -0.2049  0.8220 -0.0947
   49DOPE  H11R 6251   6.267   4.904  14.084 -1.1784 -0.2835 -0.5930
   49DOPE  H11S 6252   6.097   4.909  14.080  0.2788  0.2956 -1.2172
   49DOPE  C212 6253   6.176   5.050  14.223 -0.0878  0.0204 -0.5794
   49DOPE  H12R 6254   6.094   5.124  14.228  0.2123  0.5209 -2.4078
   49DOPE  H12S 6255   6.271   5.108  14.232  0.9402 -1.1133 -2.9537
   49DOPE  C213 6256   6.181   4.949  14.343 -0.4029 -0.6176 -0.1511
   49DOPE  H13R 6257   6.268   4.880  14.335  2.3898  2.4085  1.5482
   49DOPE  H13S 6258   6.085   4.894  14.331 -0.5611 -0.4941  0.4770
   49DOPE  C214 6259   6.188   5.002  14.483  0.6517  0.3887 -0.1657
   49DOPE  H14R 6260   6.118   5.088  14.486  0.3456  0.1719 -1.0487
   49DOPE  H14S 6261   6.294   5.031  14.505  0.0790  2.0587  0.6204
   49DOPE  C215 6262   6.157   4.901  14.591 -0.0388  0.6112 -0.2974
   49DOPE  H15R 6263   6.208   4.804  14.572 -1.0354 -0.2355  1.1525
   49DOPE  H15S 6264   6.046   4.896  14.599  0.0480  1.0061  1.7127
   49DOPE  C216 6265   6.216   4.947  14.731  0.6485  0.3913  0.5829
   49DOPE  H16R 6266   6.326   4.947  14.718  0.5142  2.0922 -1.0588
   49DOPE  H16S 6267   6.193   4.871  14.808  1.2605 -0.9134 -0.4759
   49DOPE  C217 6268   6.182   5.093  14.773 -0.2802  0.1316  0.1451
   49DOPE  H17R 6269   6.073   5.113  14.773 -0.3288 -0.0997 -0.4140
   49DOPE  H17S 6270   6.222   5.161  14.694 -1.6357  1.0543  0.2187
   49DOPE  C218 6271   6.238   5.132  14.908 -0.6917 -0.1390  0.1565
   49DOPE  H18R 6272   6.347   5.115  14.920 -0.4169 -1.4616 -3.1532
   49DOPE  H18S 6273   6.170   5.089  14.985 -3.3543  1.8425 -0.9248
   49DOPE  H18T 6274   6.231   5.242  14.924  1.1168 -0.2410  2.0188
   49DOPE   C33 6275   5.356   5.034  13.336 -0.3349 -0.2782 -0.3608
   49DOPE   H3X 6276   5.317   4.953  13.270  2.3393 -3.8183  1.9938
   49DOPE   H3Y 6277   5.295   5.126  13.326  1.9937  1.3127 -0.5884
   49DOPE   C34 6278   5.339   4.979  13.475 -0.6392 -0.7427 -0.2461
   49DOPE   H4X 6279   5.241   4.929  13.490 -0.8884 -0.1046  0.3176
   49DOPE   H4Y 6280   5.409   4.896  13.499 -1.8297 -1.1985  1.8456
   49DOPE   C35 6281   5.353   5.090  13.580 -0.0479  0.5638  0.1611
   49DOPE   H5X 6282   5.299   5.184  13.554  1.6571  1.8215  0.9689
   49DOPE   H5Y 6283   5.458   5.127  13.579 -0.8039  2.8866 -1.2589
   49DOPE   C36 6284   5.305   5.035  13.714 -0.0218  0.2066  0.7233
   49DOPE   H6X 6285   5.372   4.950  13.737 -2.4422 -2.1116 -0.3124
   49DOPE   H6Y 6286   5.200   5.003  13.700 -0.4441  1.9833 -0.5301
   49DOPE   C37 6287   5.285   5.141  13.829  0.5619  1.0429  0.1702
   49DOPE   H7X 6288   5.382   5.188  13.856  0.4171  0.1115  2.5741
   49DOPE   H7Y 6289   5.220   5.225  13.798 -1.4383 -0.2221  0.6955
   49DOPE   C38 6290   5.235   5.072  13.956 -0.1006  0.6432  0.1169
   49DOPE   H8X 6291   5.301   4.983  13.965  1.3794  1.2332 -3.2304
   49DOPE   H8Y 6292   5.134   5.031  13.937  0.5239 -0.9791  0.1078
   49DOPE   C39 6293   5.235   5.168  14.068 -0.1356 -0.4489 -0.4929
   49DOPE   H9X 6294   5.226   5.273  14.039 -2.1050  0.1179  1.8247
   49DOPE  C310 6295   5.264   5.132  14.196  0.0924 -0.4809 -0.0251
   49DOPE  H10X 6296   5.255   5.210  14.273 -1.6687 -1.2094  0.5677
   49DOPE  C311 6297   5.293   4.997  14.252  0.3635  0.5351 -0.4169
   49DOPE  H11X 6298   5.205   4.929  14.244  1.7929 -1.2722 -1.5277
   49DOPE  H11Y 6299   5.377   4.958  14.191  0.8121  0.2572  0.3550
   49DOPE  C312 6300   5.341   4.992  14.401  0.0156 -0.6542  0.4708
   49DOPE  H12X 6301   5.437   5.047  14.390 -0.5240  0.2972  0.3732
   49DOPE  H12Y 6302   5.350   4.888  14.439 -1.1345 -0.7583  0.4944
   49DOPE  C313 6303   5.264   5.064  14.506  0.3962  1.0509  0.1803
   49DOPE  H13X 6304   5.321   5.059  14.601  1.9921 -1.3723 -0.8273
   49DOPE  H13Y 6305   5.262   5.173  14.486 -1.3526  1.3676  1.7803
   49DOPE  C314 6306   5.120   5.007  14.517 -0.2481  0.0900 -0.4736
   49DOPE  H14X 6307   5.128   4.896  14.523  1.8606  0.2654  1.3274
   49DOPE  H14Y 6308   5.062   5.045  14.431 -2.0075  0.3331  0.7593
   49DOPE  C315 6309   5.045   5.049  14.645 -0.0285 -0.9143  0.0404
   49DOPE  H15X 6310   4.943   5.005  14.640 -0.8876  1.0552 -0.6359
   49DOPE  H15Y 6311   5.031   5.159  14.638 -1.3373 -1.1419 -2.0363
   49DOPE  C316 6312   5.100   5.020  14.784 -0.1593 -0.1964  0.3410
   49DOPE  H16X 6313   5.017   5.024  14.857 -2.6399  0.3514 -2.3036
   49DOPE  H16Y 6314   5.165   5.108  14.802  0.6560 -0.8252  0.5441
   49DOPE  C317 6315   5.187   4.889  14.799  0.4300 -0.2698  0.4810
   49DOPE  H17X 6316   5.245   4.873  14.706  1.0513  0.3899  0.7430
   49DOPE  H17Y 6317   5.262   4.919  14.875  0.3165  0.2166  0.4056
   49DOPE  C318 6318   5.118   4.758  14.829  1.1062  0.5060 -0.0311
   49DOPE  H18X 6319   5.178   4.701  14.903 -0.8313  1.8633  2.7933
   49DOPE  H18Y 6320   5.016   4.767  14.871  0.1373  1.1747 -2.3451
   49DOPE  H18Z 6321   5.098   4.702  14.735  2.2025 -0.1838  0.1345
   50DOPE     N 6322   6.248   5.631  12.795 -0.1769  0.5607 -0.3414
   50DOPE   HN1 6323   6.208   5.578  12.715 -0.5660  1.1051 -0.5130
   50DOPE   HN2 6324   6.238   5.560  12.870 -1.9222  1.0998 -0.0336
   50DOPE   HN3 6325   6.183   5.704  12.831  0.0341  0.5904 -0.0115
   50DOPE   C12 6326   6.397   5.668  12.779  0.5356 -0.4525  0.1838
   50DOPE  H12A 6327   6.414   5.735  12.865  1.8625 -0.7402  0.1676
   50DOPE  H12B 6328   6.407   5.722  12.682  1.6033  0.6262  0.8812
   50DOPE   C11 6329   6.492   5.552  12.791 -0.2420  0.0605  0.0993
   50DOPE  H11A 6330   6.492   5.513  12.895 -1.1872  0.1072  0.1325
   50DOPE  H11B 6331   6.588   5.604  12.771  0.3674 -1.0619  0.0271
   50DOPE     P 6332   6.559   5.375  12.613 -0.3108  0.2941  0.5616
   50DOPE   O13 6333   6.669   5.465  12.574 -0.2160  0.3768 -0.0990
   50DOPE   O14 6334   6.490   5.301  12.501  0.4816  0.1632  0.5202
   50DOPE   O11 6335   6.622   5.267  12.708 -0.7541 -0.2869 -0.1336
   50DOPE   O12 6336   6.449   5.450  12.700 -0.0812 -0.3979  0.1347
   50DOPE    C1 6337   6.544   5.200  12.806  0.5003 -0.2008  0.6698
   50DOPE    HA 6338   6.561   5.091  12.789  0.5627 -0.1372  0.3060
   50DOPE    HB 6339   6.438   5.224  12.787  0.3807 -1.5930 -0.6053
   50DOPE    C2 6340   6.590   5.230  12.951  0.1847  0.0474 -0.0652
   50DOPE    HS 6341   6.568   5.339  12.956  0.0178  0.0967 -1.5071
   50DOPE   O21 6342   6.737   5.208  12.953  0.3803  0.2402  0.3238
   50DOPE   C21 6343   6.802   5.308  13.014  0.5402  0.6813  0.2644
   50DOPE   O22 6344   6.751   5.398  13.079  0.0781 -0.4416 -0.0091
   50DOPE   C22 6345   6.956   5.283  13.018 -0.1710 -0.2356  0.0561
   50DOPE   H2R 6346   6.996   5.364  13.083 -0.2558 -0.7140  0.7219
   50DOPE   H2S 6347   6.990   5.295  12.913 -1.5571 -1.4174 -0.5601
   50DOPE    C3 6348   6.503   5.165  13.063  0.2244  1.0320 -0.0935
   50DOPE    HX 6349   6.527   5.058  13.046 -2.0649  0.5014 -0.2790
   50DOPE    HY 6350   6.394   5.176  13.051 -0.4133  0.1217  3.5556
   50DOPE   O31 6351   6.556   5.204  13.193 -0.5581 -0.3676  0.3435
   50DOPE   C31 6352   6.488   5.309  13.244 -0.2450  0.8741 -0.0728
   50DOPE   O32 6353   6.395   5.368  13.193  0.1324 -0.4155 -0.1525
   50DOPE   C32 6354   6.563   5.348  13.366 -0.0062  0.1893  0.1573
   50DOPE   H2X 6355   6.670   5.353  13.337 -0.1472 -0.6945 -0.5526
   50DOPE   H2Y 6356   6.527   5.446  13.404 -1.4668  0.4720 -1.8319
   50DOPE   C23 6357   6.998   5.146  13.077 -0.5254  0.3990  0.2687
   50DOPE   H3R 6358   7.106   5.129  13.059 -0.8139 -1.2214 -0.0556
   50DOPE   H3S 6359   6.941   5.065  13.027 -0.5556  0.3282  0.4161
   50DOPE   C24 6360   6.966   5.132  13.223  0.6707  0.9728 -0.7169
   50DOPE   H4R 6361   6.982   5.024  13.243 -1.2170  0.9947  1.3511
   50DOPE   H4S 6362   6.857   5.150  13.236  0.8114  0.3148  2.0915
   50DOPE   C25 6363   7.041   5.227  13.321 -0.1752 -0.2968  0.0497
   50DOPE   H5R 6364   7.015   5.331  13.292  0.2855 -0.2463 -0.1906
   50DOPE   H5S 6365   7.151   5.220  13.311 -0.1732 -0.6334  0.3002
   50DOPE   C26 6366   6.996   5.202  13.467  0.0022  0.0843 -0.4347
   50DOPE   H6R 6367   7.033   5.113  13.522  0.4727  0.8927  0.5974
   50DOPE   H6S 6368   6.885   5.197  13.477 -0.2657  0.1760 -2.8456
   50DOPE   C27 6369   7.046   5.323  13.551 -0.6009  0.6921 -0.1829
   50DOPE   H7R 6370   7.004   5.413  13.502  1.5233  2.7110  1.4786
   50DOPE   H7S 6371   7.155   5.321  13.533 -0.4289 -2.5421  0.5259
   50DOPE   C28 6372   7.015   5.318  13.706  0.8426  0.4914 -0.1923
   50DOPE   H8R 6373   7.035   5.215  13.744 -1.2314  0.0382 -0.2066
   50DOPE   H8S 6374   6.907   5.341  13.714  0.9097  0.4576  1.1232
   50DOPE   C29 6375   7.090   5.424  13.776 -0.4814 -0.3688 -0.0010
   50DOPE   H9R 6376   7.175   5.466  13.720  0.5656 -1.2755  0.8569
   50DOPE  C210 6377   7.059   5.471  13.899 -0.1109  0.4420 -0.5339
   50DOPE  H10R 6378   7.119   5.547  13.952 -0.5500  0.6634 -0.3495
   50DOPE  C211 6379   6.948   5.413  13.988 -0.3290  0.3102  0.0750
   50DOPE  H11R 6380   6.879   5.344  13.934 -2.4088  1.7435  0.7589
   50DOPE  H11S 6381   6.884   5.497  14.023 -0.8560 -0.2123  0.3735
   50DOPE  C212 6382   7.010   5.350  14.111  0.0122  0.0572  0.1774
   50DOPE  H12R 6383   7.053   5.435  14.169 -1.7599  1.1734 -0.0925
   50DOPE  H12S 6384   7.081   5.270  14.080 -1.6096 -1.6895  0.7648
   50DOPE  C213 6385   6.931   5.277  14.219 -0.1507 -0.2283  0.3506
   50DOPE  H13R 6386   6.893   5.183  14.174 -0.2238  0.0378 -0.1564
   50DOPE  H13S 6387   6.838   5.328  14.250 -1.5378 -1.2290 -1.8749
   50DOPE  C214 6388   7.015   5.249  14.350 -0.0114 -0.3588  0.6344
   50DOPE  H14R 6389   7.005   5.345  14.406  1.6286  0.6720 -0.7519
   50DOPE  H14S 6390   7.117   5.237  14.310  0.2769  2.8534  0.1048
   50DOPE  C215 6391   6.972   5.123  14.426  0.5127 -0.3561 -0.1035
   50DOPE  H15R 6392   6.933   5.050  14.352 -1.9482  1.2670 -0.5627
   50DOPE  H15S 6393   6.885   5.149  14.490  1.8743  1.1009  1.2593
   50DOPE  C216 6394   7.095   5.063  14.492 -0.6025  0.4353 -0.1399
   50DOPE  H16R 6395   7.173   5.041  14.416 -2.0842 -0.7437 -1.3910
   50DOPE  H16S 6396   7.070   4.970  14.547 -0.9518  0.4162 -0.3227
   50DOPE  C217 6397   7.156   5.153  14.601  0.1286 -0.4911 -0.4521
   50DOPE  H17R 6398   7.218   5.236  14.561 -1.3081 -0.0128 -1.7857
   50DOPE  H17S 6399   7.247   5.099  14.634 -0.7009 -0.5326  1.9228
   50DOPE  C218 6400   7.065   5.184  14.720  0.4746 -0.0969 -0.3595
   50DOPE  H18R 6401   6.973   5.230  14.678 -0.5209  1.3004  3.0035
   50DOPE  H18S 6402   7.107   5.247  14.801  2.2441 -2.1148  0.3953
   50DOPE  H18T 6403   7.029   5.089  14.766 -0.7743 -0.0678 -1.2213
   50DOPE   C33 6404   6.551   5.247  13.478  0.2278 -0.5018  0.3549
   50DOPE   H3X 6405   6.585   5.151  13.433 -1.1746 -0.9256  0.1497
   50DOPE   H3Y 6406   6.447   5.235  13.517  0.3426  2.0301  1.6091
   50DOPE   C34 6407   6.643   5.269  13.600  0.1494  0.5309 -0.1485
   50DOPE   H4X 6408   6.655   5.166  13.641 -1.3230 -0.1115 -1.2549
   50DOPE   H4Y 6409   6.749   5.291  13.574  0.6427 -2.3015 -0.8278
   50DOPE   C35 6410   6.587   5.358  13.707  0.9265 -0.0615  0.2241
   50DOPE   H5X 6411   6.480   5.366  13.681  0.8303 -0.6542  0.4290
   50DOPE   H5Y 6412   6.631   5.461  13.709 -0.7025  0.6583  0.4138
   50DOPE   C36 6413   6.584   5.314  13.856  0.8368  0.7514 -0.4586
   50DOPE   H6X 6414   6.686   5.295  13.896  0.5134  1.0935  0.5398
   50DOPE   H6Y 6415   6.529   5.218  13.864 -1.1140  1.7360 -1.3504
   50DOPE   C37 6416   6.508   5.414  13.942 -0.6518 -0.5628  0.1779
   50DOPE   H7X 6417   6.577   5.500  13.956 -2.4082  0.8146  0.7363
   50DOPE   H7Y 6418   6.419   5.454  13.889 -1.0852  0.9023  1.9417
   50DOPE   C38 6419   6.446   5.369  14.074 -0.6408  0.0319 -0.7148
   50DOPE   H8X 6420   6.357   5.306  14.056 -0.2698 -0.6788 -0.1052
   50DOPE   H8Y 6421   6.407   5.461  14.122  2.4384  1.3048 -0.3983
   50DOPE   C39 6422   6.547   5.300  14.166 -0.4411 -0.5249  0.2942
   50DOPE   H9X 6423   6.616   5.232  14.114  0.5982  1.5947 -1.2062
   50DOPE  C310 6424   6.551   5.310  14.300  0.5888  0.4130 -0.6415
   50DOPE  H10X 6425   6.631   5.254  14.350  1.9089  2.8493  0.0948
   50DOPE  C311 6426   6.458   5.381  14.401  0.3340 -0.6422 -0.4283
   50DOPE  H11X 6427   6.445   5.490  14.384 -2.0995 -0.7020  0.6375
   50DOPE  H11Y 6428   6.357   5.335  14.405 -0.3053  0.7819  1.1625
   50DOPE  C312 6429   6.513   5.375  14.546 -0.2765 -0.4278 -0.6605
   50DOPE  H12X 6430   6.612   5.424  14.554 -0.9238  0.6189  2.2015
   50DOPE  H12Y 6431   6.507   5.267  14.572 -1.2061 -0.0940  0.6589
   50DOPE  C313 6432   6.416   5.450  14.637 -0.1356  0.5503  0.7807
   50DOPE  H13X 6433   6.418   5.554  14.600 -1.2084 -0.3794 -2.1831
   50DOPE  H13Y 6434   6.318   5.402  14.620 -0.8344  1.4772  2.0253
   50DOPE  C314 6435   6.443   5.448  14.786  0.0142  0.2959 -0.3244
   50DOPE  H14X 6436   6.547   5.482  14.803  0.1399 -0.3381  0.2144
   50DOPE  H14Y 6437   6.443   5.340  14.812 -0.4081  0.8289  2.1465
   50DOPE  C315 6438   6.334   5.519  14.867  0.0208 -0.0126 -0.8163
   50DOPE  H15X 6439   6.344   5.481  14.971 -0.1169 -1.4736 -1.3060
   50DOPE  H15Y 6440   6.235   5.484  14.829 -1.3458  0.5701  1.9532
   50DOPE  C316 6441   6.350   5.671  14.869  0.1382  0.4008  0.1639
   50DOPE  H16X 6442   6.327   5.710  14.768  0.0629 -2.2949 -0.9588
   50DOPE  H16Y 6443   6.451   5.702  14.902 -0.3686  1.3711  0.8539
   50DOPE  C317 6444   6.241   5.734  14.962  0.0007  0.0441  0.3559
   50DOPE  H17X 6445   6.153   5.668  14.947 -0.0838  0.6654 -2.3392
   50DOPE  H17Y 6446   6.286   5.720  15.063  3.0865  0.2155 -0.8666
   50DOPE  C318 6447   6.219   5.876  14.937  0.4153  0.4056 -0.4274
   50DOPE  H18X 6448   6.129   5.912  14.990  0.0890  2.8680 -2.4441
   50DOPE  H18Y 6449   6.306   5.938  14.967  0.1368  2.7607 -3.8791
   50DOPE  H18Z 6450   6.206   5.893  14.828 -2.0777  0.1449 -0.2319
   51DOPE     N 6451   1.830   1.080  12.622  0.7559 -0.0260 -0.0806
   51DOPE   HN1 6452   1.798   1.108  12.717 -1.6470  1.1902 -1.1428
   51DOPE   HN2 6453   1.754   1.121  12.564  0.0621  0.4697  1.1174
   51DOPE   HN3 6454   1.841   0.978  12.606  3.6676  0.3816 -1.1271
   51DOPE   C12 6455   1.963   1.138  12.583  0.9726 -0.9056 -0.3147
   51DOPE  H12A 6456   1.984   1.225  12.649  0.7320 -2.4827  1.9550
   51DOPE  H12B 6457   1.965   1.162  12.475 -0.9112 -0.5256 -0.2824
   51DOPE   C11 6458   2.066   1.020  12.616  0.4250 -0.7583 -0.2416
   51DOPE  H11A 6459   2.053   0.966  12.712  1.6549 -2.4143 -0.9685
   51DOPE  H11B 6460   2.165   1.071  12.616 -0.3823  1.0343  2.4345
   51DOPE     P 6461   2.189   0.824  12.493 -0.3601 -0.1895  0.3240
   51DOPE   O13 6462   2.307   0.906  12.455 -0.1849 -0.2935 -0.2395
   51DOPE   O14 6463   2.146   0.722  12.394 -0.1799 -0.6654 -0.4860
   51DOPE   O11 6464   2.209   0.754  12.630  0.3282 -1.0915  0.4248
   51DOPE   O12 6465   2.065   0.924  12.517 -0.1799  0.1315 -0.1247
   51DOPE    C1 6466   2.292   0.814  12.729  0.5785  0.2011 -0.0942
   51DOPE    HA 6467   2.267   0.920  12.752 -0.0013  0.4070 -1.5577
   51DOPE    HB 6468   2.396   0.825  12.691  0.0414  0.9591 -1.4163
   51DOPE    C2 6469   2.307   0.737  12.864  0.0327 -0.1536  0.1908
   51DOPE    HS 6470   2.333   0.634  12.830  1.7559  0.2341  0.2448
   51DOPE   O21 6471   2.185   0.744  12.935  0.4660  0.1934 -0.5872
   51DOPE   C21 6472   2.142   0.637  12.996  0.6991 -0.2665  1.0191
   51DOPE   O22 6473   2.204   0.532  12.995  0.3659  0.0862  1.3959
   51DOPE   C22 6474   2.036   0.688  13.095 -0.0770 -0.1252 -0.3508
   51DOPE   H2R 6475   1.990   0.608  13.157 -0.1164  0.0911 -0.0983
   51DOPE   H2S 6476   1.959   0.733  13.028 -0.3823 -0.3548 -0.1573
   51DOPE    C3 6477   2.422   0.783  12.951  0.2477 -0.1340  0.5447
   51DOPE    HX 6478   2.397   0.886  12.985  0.3407 -0.8782  3.0932
   51DOPE    HY 6479   2.517   0.789  12.894  0.5523 -0.6132  0.9914
   51DOPE   O31 6480   2.442   0.691  13.061  0.5601  0.4661 -1.1767
   51DOPE   C31 6481   2.517   0.585  13.031 -0.6461 -0.7047  0.0257
   51DOPE   O32 6482   2.570   0.558  12.925  0.5346 -0.4021 -0.5081
   51DOPE   C32 6483   2.538   0.502  13.155 -0.4498  0.9183 -0.0730
   51DOPE   H2X 6484   2.573   0.401  13.123 -1.4723  0.3353  0.5863
   51DOPE   H2Y 6485   2.623   0.550  13.208 -0.1696  0.1495  0.1917
   51DOPE   C23 6486   2.084   0.801  13.190 -0.5871 -0.1034 -0.4074
   51DOPE   H3R 6487   2.150   0.873  13.135  1.6548 -0.7555  1.2620
   51DOPE   H3S 6488   2.157   0.752  13.258  0.2360  0.2378 -1.0166
   51DOPE   C24 6489   1.958   0.866  13.258  0.3954  0.9084 -0.1562
   51DOPE   H4R 6490   1.904   0.791  13.318  0.4056 -1.3214 -2.7597
   51DOPE   H4S 6491   1.889   0.908  13.181  0.7266  1.3522 -0.2132
   51DOPE   C25 6492   1.998   0.979  13.349  0.4506 -0.0960  0.5886
   51DOPE   H5R 6493   2.043   1.068  13.300  0.6353  0.3713  1.5889
   51DOPE   H5S 6494   2.080   0.940  13.413  0.2637 -1.0567  0.2646
   51DOPE   C26 6495   1.888   1.030  13.445  0.2175 -0.1158  0.0177
   51DOPE   H6R 6496   1.850   0.941  13.500  0.8592 -0.3154  0.1550
   51DOPE   H6S 6497   1.812   1.077  13.380 -0.0350 -1.7819 -0.9584
   51DOPE   C27 6498   1.943   1.131  13.542  0.6630  0.8497 -0.0217
   51DOPE   H7R 6499   1.854   1.175  13.592 -0.0602 -0.9984  0.3988
   51DOPE   H7S 6500   1.982   1.223  13.495  0.5663  0.6082 -0.5918
   51DOPE   C28 6501   2.035   1.069  13.651 -0.2906  0.0532  0.0637
   51DOPE   H8R 6502   2.134   1.034  13.615 -0.6147  0.7246 -1.5976
   51DOPE   H8S 6503   1.977   0.982  13.688  2.1182 -1.1064  1.3318
   51DOPE   C29 6504   2.076   1.162  13.762 -0.0252 -0.1502 -0.9116
   51DOPE   H9R 6505   2.135   1.247  13.724 -0.0258  0.6121  0.7120
   51DOPE  C210 6506   2.049   1.145  13.893 -0.1012  0.2230 -0.3984
   51DOPE  H10R 6507   2.088   1.220  13.964  2.0296 -1.6755  0.5513
   51DOPE  C211 6508   1.982   1.032  13.961 -0.9062 -0.2249 -0.2183
   51DOPE  H11R 6509   2.015   0.941  13.906  1.9983 -1.2009  2.7944
   51DOPE  H11S 6510   1.871   1.029  13.952 -0.9384  1.6603 -0.8862
   51DOPE  C212 6511   2.029   1.015  14.105 -0.1866 -0.3223  0.2696
   51DOPE  H12R 6512   2.139   1.006  14.098 -0.3516 -1.0482 -3.7475
   51DOPE  H12S 6513   1.984   0.920  14.139  0.5734 -1.9953 -3.0664
   51DOPE  C213 6514   1.993   1.133  14.194 -0.3208  0.0697 -0.8632
   51DOPE  H13R 6515   1.884   1.153  14.195 -0.2976  0.2587  0.5285
   51DOPE  H13S 6516   2.042   1.227  14.164  1.4640 -0.9472 -1.2704
   51DOPE  C214 6517   2.024   1.092  14.342  0.3072 -0.6762  0.4265
   51DOPE  H14R 6518   1.995   0.986  14.361  1.2220 -0.9761  0.2021
   51DOPE  H14S 6519   1.966   1.168  14.398  1.9189  1.6528 -0.9094
   51DOPE  C215 6520   2.169   1.124  14.384 -0.4089 -0.5896 -0.2219
   51DOPE  H15R 6521   2.156   1.234  14.393 -2.6569 -0.8272  0.1560
   51DOPE  H15S 6522   2.247   1.093  14.311  0.8055  1.0721  0.3185
   51DOPE  C216 6523   2.207   1.065  14.521 -0.0139 -0.2611  0.1333
   51DOPE  H16R 6524   2.312   1.089  14.550 -0.3668  2.0107 -0.2616
   51DOPE  H16S 6525   2.210   0.955  14.507  2.4705 -0.4839  1.7295
   51DOPE  C217 6526   2.108   1.117  14.630  0.4376  0.0800  0.1638
   51DOPE  H17R 6527   2.113   1.062  14.727 -1.9896 -0.0837  0.2762
   51DOPE  H17S 6528   2.007   1.094  14.590  2.0624 -3.0439 -2.6012
   51DOPE  C218 6529   2.119   1.265  14.679  1.0244  0.0136 -0.0441
   51DOPE  H18R 6530   2.114   1.324  14.585  1.1620  1.7247  0.9780
   51DOPE  H18S 6531   2.218   1.296  14.717  0.2670  0.4892  1.6059
   51DOPE  H18T 6532   2.038   1.308  14.741  0.4801  1.4492 -1.6549
   51DOPE   C33 6533   2.415   0.486  13.254 -0.4437  0.1143  0.7147
   51DOPE   H3X 6534   2.333   0.431  13.202  0.3188  0.4886 -0.9537
   51DOPE   H3Y 6535   2.371   0.583  13.284  1.3883  2.0943 -2.4483
   51DOPE   C34 6536   2.455   0.402  13.376 -0.0692 -0.8267  0.6528
   51DOPE   H4X 6537   2.509   0.316  13.331  2.5776  1.3832 -0.6540
   51DOPE   H4Y 6538   2.542   0.450  13.426 -0.1307  0.2846 -0.2823
   51DOPE   C35 6539   2.326   0.355  13.452  0.0530  0.1232 -0.3582
   51DOPE   H5X 6540   2.353   0.304  13.547  1.3687  1.4177  0.0058
   51DOPE   H5Y 6541   2.290   0.271  13.390 -0.5535  0.2208 -0.1417
   51DOPE   C36 6542   2.211   0.456  13.474  0.0388  0.4000  0.0973
   51DOPE   H6X 6543   2.124   0.390  13.498  1.5726 -1.3306  1.2160
   51DOPE   H6Y 6544   2.185   0.519  13.386 -1.0046 -0.3255 -0.1334
   51DOPE   C37 6545   2.237   0.532  13.602  0.2670 -0.7982  0.4651
   51DOPE   H7X 6546   2.239   0.468  13.693  0.8091  0.5853  1.4448
   51DOPE   H7Y 6547   2.330   0.591  13.593 -0.5306  0.5002  0.4636
   51DOPE   C38 6548   2.128   0.639  13.617 -0.2712  0.0976  0.4456
   51DOPE   H8X 6549   2.027   0.592  13.625  0.7910 -2.8192 -1.6909
   51DOPE   H8Y 6550   2.142   0.700  13.525  0.9012 -1.2588 -0.2943
   51DOPE   C39 6551   2.168   0.725  13.735  1.1213  0.3225 -1.1203
   51DOPE   H9X 6552   2.200   0.829  13.719  1.9795  0.2220 -0.1982
   51DOPE  C310 6553   2.156   0.691  13.866 -0.5005  0.9375  0.2858
   51DOPE  H10X 6554   2.189   0.769  13.936  0.9757  1.3619 -0.8087
   51DOPE  C311 6555   2.115   0.557  13.924  0.2843 -0.5019 -0.2137
   51DOPE  H11X 6556   2.080   0.498  13.836  0.9090  1.3206 -1.7547
   51DOPE  H11Y 6557   2.213   0.508  13.945  0.9943  0.3737 -1.3421
   51DOPE  C312 6558   2.019   0.561  14.041  0.0811  0.2770 -0.4634
   51DOPE  H12X 6559   1.959   0.468  14.048  1.0646 -0.4506 -1.4197
   51DOPE  H12Y 6560   1.946   0.643  14.023 -0.9392 -0.8040 -1.4129
   51DOPE  C313 6561   2.083   0.600  14.170  0.0845  0.0042 -0.1246
   51DOPE  H13X 6562   2.146   0.522  14.218  1.3896  1.8495  1.3206
   51DOPE  H13Y 6563   2.150   0.689  14.162  0.1010 -0.1903 -2.9424
   51DOPE  C314 6564   1.986   0.645  14.285  0.0264  0.1022 -0.0030
   51DOPE  H14X 6565   1.918   0.561  14.310 -0.6952  0.5716 -0.3790
   51DOPE  H14Y 6566   1.929   0.733  14.250 -1.2623 -0.3739  0.8555
   51DOPE  C315 6567   2.061   0.681  14.407  0.6985  0.4733  0.3950
   51DOPE  H15X 6568   2.113   0.779  14.393 -1.8798  1.6944 -1.6503
   51DOPE  H15Y 6569   2.137   0.606  14.436  0.8589  0.0153 -1.1432
   51DOPE  C316 6570   1.954   0.706  14.518 -0.0938 -0.0496  0.2632
   51DOPE  H16X 6571   1.903   0.607  14.520 -0.1733 -0.0364 -0.6657
   51DOPE  H16Y 6572   1.875   0.779  14.489 -3.7747 -3.3024  1.2482
   51DOPE  C317 6573   2.026   0.738  14.646  0.4725  0.0330 -0.0894
   51DOPE  H17X 6574   2.100   0.659  14.675 -0.1259 -0.6882 -0.4779
   51DOPE  H17Y 6575   2.085   0.832  14.641  2.0957 -0.9767 -0.9629
   51DOPE  C318 6576   1.946   0.759  14.774  0.2590 -0.1860 -0.0520
   51DOPE  H18X 6577   2.010   0.796  14.858  0.3396  1.0759 -0.6378
   51DOPE  H18Y 6578   1.862   0.830  14.757  0.7726  0.3508 -0.4132
   51DOPE  H18Z 6579   1.898   0.665  14.805  0.3460  0.1258  1.0814
   52DOPE     N 6580   5.785   3.003  12.609  0.0096  0.3611 -0.0430
   52DOPE   HN1 6581   5.734   3.068  12.545 -1.5206 -0.8431 -0.1078
   52DOPE   HN2 6582   5.874   2.973  12.566 -0.1023  2.6166 -2.0667
   52DOPE   HN3 6583   5.736   2.911  12.601  0.2633  0.3232 -1.3761
   52DOPE   C12 6584   5.797   3.059  12.744  0.3579 -0.3596 -0.1225
   52DOPE  H12A 6585   5.816   2.972  12.811 -2.2826  0.1447  1.4226
   52DOPE  H12B 6586   5.700   3.105  12.772  1.5854  1.6378  1.1342
   52DOPE   C11 6587   5.906   3.171  12.746 -0.1761  0.3258  0.5721
   52DOPE  H11A 6588   6.006   3.126  12.729  0.0452  0.9674  0.1127
   52DOPE  H11B 6589   5.905   3.215  12.849 -1.1558  3.0227 -0.4985
   52DOPE     P 6590   5.914   3.429  12.664 -0.4238  0.0992 -0.1494
   52DOPE   O13 6591   5.818   3.518  12.592  0.0651  0.0960 -0.4157
   52DOPE   O14 6592   6.057   3.443  12.635 -0.0710  0.1054 -0.0698
   52DOPE   O11 6593   5.897   3.444  12.815 -0.5144  0.1451 -0.2457
   52DOPE   O12 6594   5.871   3.277  12.648  0.3995  0.2532 -0.4007
   52DOPE    C1 6595   5.779   3.452  12.898 -0.5192  0.2387  0.0098
   52DOPE    HA 6596   5.786   3.381  12.984 -1.0049  0.8960  0.5969
   52DOPE    HB 6597   5.689   3.421  12.841  0.9833  0.7826 -2.8186
   52DOPE    C2 6598   5.755   3.595  12.953 -0.3526 -0.2852  0.0181
   52DOPE    HS 6599   5.853   3.645  12.940  1.2975 -3.3161 -0.3313
   52DOPE   O21 6600   5.742   3.575  13.090  0.2942  0.4273 -0.3140
   52DOPE   C21 6601   5.741   3.683  13.166  0.3613 -0.1865  0.2524
   52DOPE   O22 6602   5.771   3.794  13.125 -0.1259 -0.1663  0.0779
   52DOPE   C22 6603   5.718   3.643  13.309 -0.2166 -0.2549  0.1039
   52DOPE   H2R 6604   5.787   3.557  13.320  1.2657  0.6245 -1.7279
   52DOPE   H2S 6605   5.611   3.615  13.318 -0.6396  0.7523 -1.4247
   52DOPE    C3 6606   5.640   3.668  12.879  0.1486  0.5834  0.1591
   52DOPE    HX 6607   5.669   3.673  12.772 -0.1721  0.1864  0.0521
   52DOPE    HY 6608   5.633   3.774  12.911 -0.0967  0.5051  0.3645
   52DOPE   O31 6609   5.512   3.601  12.893 -0.1845  0.0737  0.1558
   52DOPE   C31 6610   5.437   3.634  12.999  0.3704  0.4094  0.5690
   52DOPE   O32 6611   5.466   3.708  13.087 -0.0721 -0.2271  0.4898
   52DOPE   C32 6612   5.314   3.546  12.987  0.2400  0.0007 -0.0761
   52DOPE   H2X 6613   5.258   3.564  12.892 -1.4815 -0.5961  0.7742
   52DOPE   H2Y 6614   5.357   3.445  12.979  0.5306  0.2340 -1.7280
   52DOPE   C23 6615   5.746   3.751  13.413 -0.1554 -0.8074 -0.0923
   52DOPE   H3R 6616   5.695   3.847  13.388  1.1651  1.1617  3.9056
   52DOPE   H3S 6617   5.853   3.775  13.431  0.0114 -1.7339  0.2252
   52DOPE   C24 6618   5.678   3.715  13.550  0.4276 -0.0092  0.9373
   52DOPE   H4R 6619   5.702   3.611  13.579 -0.4825 -0.2909  0.7016
   52DOPE   H4S 6620   5.567   3.711  13.541  0.2057 -0.6669  3.2179
   52DOPE   C25 6621   5.703   3.805  13.667 -0.2798  0.7722 -0.2630
   52DOPE   H5R 6622   5.654   3.904  13.663  0.5931  1.4638  3.1567
   52DOPE   H5S 6623   5.811   3.830  13.661 -0.3763  1.1027 -0.6965
   52DOPE   C26 6624   5.670   3.735  13.799 -0.4327 -0.5921 -0.1616
   52DOPE   H6R 6625   5.566   3.699  13.816  0.0166 -1.0264  2.0411
   52DOPE   H6S 6626   5.694   3.812  13.876  0.8398 -0.0816 -1.0461
   52DOPE   C27 6627   5.774   3.627  13.837  0.1409 -0.1823 -0.4027
   52DOPE   H7R 6628   5.872   3.671  13.809  0.4863 -0.9560 -0.4078
   52DOPE   H7S 6629   5.752   3.533  13.783 -0.5084  0.9836 -2.2672
   52DOPE   C28 6630   5.788   3.591  13.995  0.4053  0.0041 -0.3259
   52DOPE   H8R 6631   5.865   3.511  14.005  1.5228  0.9803 -0.9450
   52DOPE   H8S 6632   5.699   3.527  14.013 -0.6959  1.4745 -0.4274
   52DOPE   C29 6633   5.809   3.702  14.089 -0.1057 -0.7880 -0.0294
   52DOPE   H9R 6634   5.905   3.754  14.072  0.0188 -1.3753 -1.1795
   52DOPE  C210 6635   5.718   3.753  14.179  1.2291  0.2507 -0.2693
   52DOPE  H10R 6636   5.747   3.850  14.222  2.7673  1.2234 -3.2711
   52DOPE  C211 6637   5.577   3.705  14.221  0.0249 -0.0107  0.2622
   52DOPE  H11R 6638   5.524   3.648  14.141  1.0199 -2.3666  1.1743
   52DOPE  H11S 6639   5.506   3.790  14.233 -0.3527 -0.1311 -1.0155
   52DOPE  C212 6640   5.583   3.603  14.337  0.6869 -0.3562 -0.0040
   52DOPE  H12R 6641   5.644   3.516  14.307  1.0563 -1.1467  2.7851
   52DOPE  H12S 6642   5.486   3.556  14.362  1.0589 -0.6115  0.9767
   52DOPE  C213 6643   5.644   3.661  14.463 -0.5006  0.1854  0.1324
   52DOPE  H13R 6644   5.751   3.670  14.437 -1.1457  1.6517 -2.3397
   52DOPE  H13S 6645   5.618   3.593  14.547 -2.1999  0.0793 -0.4379
   52DOPE  C214 6646   5.586   3.802  14.494 -0.2595 -0.0527 -0.2012
   52DOPE  H14R 6647   5.598   3.878  14.414 -0.6596 -1.6985 -1.9093
   52DOPE  H14S 6648   5.634   3.837  14.587 -1.4975 -2.0832  1.2703
   52DOPE  C215 6649   5.438   3.790  14.531 -0.1824 -0.0751 -0.6259
   52DOPE  H15R 6650   5.436   3.712  14.610 -0.2887 -0.0983 -0.6521
   52DOPE  H15S 6651   5.375   3.755  14.446 -0.0644 -0.8724 -0.3925
   52DOPE  C216 6652   5.379   3.929  14.569 -0.4764  0.9580 -0.1679
   52DOPE  H16R 6653   5.400   3.999  14.485 -1.0845  0.8357 -0.4313
   52DOPE  H16S 6654   5.434   3.962  14.659 -1.6888  0.6071  0.7403
   52DOPE  C217 6655   5.226   3.929  14.579  0.2298  0.0324 -0.4096
   52DOPE  H17R 6656   5.189   3.829  14.610 -0.8444  0.3294 -0.6898
   52DOPE  H17S 6657   5.182   3.936  14.477  0.1652 -0.5393 -0.4243
   52DOPE  C218 6658   5.171   4.038  14.674  0.2940  0.0075  0.0677
   52DOPE  H18R 6659   5.064   4.020  14.694  0.5306 -1.2179  0.3293
   52DOPE  H18S 6660   5.221   4.030  14.773 -4.0196 -1.4977  2.3390
   52DOPE  H18T 6661   5.192   4.138  14.629  5.2476 -1.0108 -0.4502
   52DOPE   C33 6662   5.212   3.559  13.099  0.1974  0.3571 -0.0597
   52DOPE   H3X 6663   5.114   3.514  13.070 -0.0470  1.4152 -0.9394
   52DOPE   H3Y 6664   5.186   3.667  13.099 -0.2100  0.2590  0.1601
   52DOPE   C34 6665   5.260   3.496  13.231 -0.1057 -0.4290  0.1589
   52DOPE   H4X 6666   5.274   3.388  13.212 -1.3946 -0.3575 -1.3569
   52DOPE   H4Y 6667   5.360   3.535  13.261 -0.2887 -0.5282  0.9054
   52DOPE   C35 6668   5.177   3.522  13.350  0.5443 -0.7643  0.3922
   52DOPE   H5X 6669   5.083   3.476  13.312 -0.0888  0.4909  0.3888
   52DOPE   H5Y 6670   5.161   3.631  13.351 -0.3922 -0.8932  1.2339
   52DOPE   C36 6671   5.233   3.470  13.485  0.0205  0.0914 -0.2945
   52DOPE   H6X 6672   5.331   3.514  13.511 -1.0686  1.6991  1.3904
   52DOPE   H6Y 6673   5.242   3.360  13.473  1.6987 -0.0659  1.8732
   52DOPE   C37 6674   5.129   3.478  13.595 -0.1827  0.4891  0.1666
   52DOPE   H7X 6675   5.074   3.574  13.606 -1.5040 -0.3154  0.8468
   52DOPE   H7Y 6676   5.049   3.403  13.576 -1.4438  1.9109 -0.4086
   52DOPE   C38 6677   5.181   3.435  13.735  0.4458 -0.8883 -0.4698
   52DOPE   H8X 6678   5.219   3.332  13.724  0.1307 -0.8702 -1.9614
   52DOPE   H8Y 6679   5.089   3.438  13.797  1.6036 -1.2085  1.3064
   52DOPE   C39 6680   5.289   3.529  13.788 -0.5193  0.2905  0.2132
   52DOPE   H9X 6681   5.382   3.532  13.730  0.1346 -2.0027  1.0282
   52DOPE  C310 6682   5.286   3.593  13.905  0.0233  0.3098  0.5443
   52DOPE  H10X 6683   5.351   3.681  13.917  0.7390  0.2591 -2.4004
   52DOPE  C311 6684   5.182   3.592  14.016  0.3480 -0.2551  0.2889
   52DOPE  H11X 6685   5.168   3.702  14.031  0.5086 -0.1939 -0.0239
   52DOPE  H11Y 6686   5.079   3.559  13.990  0.6924 -1.0055 -0.1397
   52DOPE  C312 6687   5.221   3.517  14.145  0.1058  0.0120  0.3440
   52DOPE  H12X 6688   5.319   3.552  14.185  0.2445 -1.3602  1.2477
   52DOPE  H12Y 6689   5.222   3.406  14.142  0.7768  0.0094  0.3804
   52DOPE  C313 6690   5.142   3.556  14.264  1.0330 -0.1939  0.1127
   52DOPE  H13X 6691   5.166   3.662  14.288  1.1079  0.5561 -2.8262
   52DOPE  H13Y 6692   5.036   3.552  14.229  1.7561 -0.1744 -2.2877
   52DOPE  C314 6693   5.159   3.471  14.385  0.0421  0.2327 -0.0980
   52DOPE  H14X 6694   5.266   3.441  14.398  0.7308  1.7675 -1.8229
   52DOPE  H14Y 6695   5.091   3.385  14.372  1.4527 -0.6125 -2.4752
   52DOPE  C315 6696   5.117   3.537  14.514 -0.4083 -0.3933  0.9680
   52DOPE  H15X 6697   5.034   3.610  14.499  1.2633  1.5467  0.7863
   52DOPE  H15Y 6698   5.207   3.589  14.554 -0.4677  0.9352 -0.5083
   52DOPE  C316 6699   5.063   3.442  14.627 -0.3137  0.7456 -0.2531
   52DOPE  H16X 6700   5.154   3.430  14.690 -0.8667  0.6714  0.5509
   52DOPE  H16Y 6701   5.034   3.344  14.584  1.3951 -0.1072  0.4045
   52DOPE  C317 6702   4.959   3.492  14.728 -0.0910 -0.6422 -0.0683
   52DOPE  H17X 6703   4.995   3.593  14.759  1.1819 -1.5463  1.5814
   52DOPE  H17Y 6704   4.867   3.515  14.671  0.9307 -1.1998 -2.0432
   52DOPE  C318 6705   4.904   3.403  14.845 -0.2385 -0.1410  0.1565
   52DOPE  H18X 6706   4.825   3.458  14.901 -1.1258  0.1140 -1.2799
   52DOPE  H18Y 6707   4.866   3.306  14.805  1.7442 -0.8834 -0.0424
   52DOPE  H18Z 6708   4.990   3.368  14.905  0.5598  1.2013 -0.1579
   53DOPE     N 6709   4.615   6.426  12.709  0.0998  0.1117 -0.1100
   53DOPE   HN1 6710   4.562   6.369  12.641 -0.9532  1.6812 -0.6421
   53DOPE   HN2 6711   4.545   6.480  12.764 -0.2420 -1.0781  0.6698
   53DOPE   HN3 6712   4.666   6.504  12.662  0.2367  0.0209 -0.1130
   53DOPE   C12 6713   4.703   6.340  12.798 -0.5814 -0.7851 -0.1870
   53DOPE  H12A 6714   4.773   6.281  12.735  0.6636 -2.4719  2.5938
   53DOPE  H12B 6715   4.641   6.264  12.850  0.7890 -2.7126 -1.2402
   53DOPE   C11 6716   4.789   6.423  12.903 -0.7137  0.2469 -0.3152
   53DOPE  H11A 6717   4.822   6.337  12.965 -2.1080 -0.3977 -0.4459
   53DOPE  H11B 6718   4.720   6.497  12.948 -2.7840 -1.7896  0.0347
   53DOPE     P 6719   4.900   6.622  12.777  0.5979  0.1526 -0.1278
   53DOPE   O13 6720   4.782   6.630  12.690 -0.4101 -0.0098  0.0215
   53DOPE   O14 6721   5.034   6.635  12.720 -0.6743 -0.2612 -0.1024
   53DOPE   O11 6722   4.873   6.721  12.893  0.6135  0.5131  0.4427
   53DOPE   O12 6723   4.905   6.481  12.847  0.1596 -0.0433  0.8758
   53DOPE    C1 6724   4.981   6.777  12.973  0.2899  0.3893 -0.5315
   53DOPE    HA 6725   4.935   6.857  13.035  0.1434  1.3058 -1.7947
   53DOPE    HB 6726   5.059   6.825  12.910 -0.8068  0.1795 -2.1075
   53DOPE    C2 6727   5.035   6.681  13.082 -0.5217 -0.5065 -0.0885
   53DOPE    HS 6728   5.085   6.597  13.030  0.4139  0.3912 -0.6723
   53DOPE   O21 6729   4.918   6.646  13.158  0.1723  0.0784  0.2840
   53DOPE   C21 6730   4.933   6.523  13.212 -0.1283 -0.1935  0.2933
   53DOPE   O22 6731   5.034   6.454  13.199  0.2087  0.5271  0.0648
   53DOPE   C22 6732   4.816   6.491  13.305  0.8653 -0.5889 -0.3372
   53DOPE   H2R 6733   4.795   6.383  13.299  3.4029 -1.2804  1.4777
   53DOPE   H2S 6734   4.736   6.556  13.264  0.6593 -0.7616 -0.2061
   53DOPE    C3 6735   5.133   6.764  13.173  0.0875  0.0355  0.5640
   53DOPE    HX 6736   5.096   6.868  13.193  2.9494  1.3963 -0.6571
   53DOPE    HY 6737   5.229   6.759  13.119 -1.7308 -1.0614 -2.8072
   53DOPE   O31 6738   5.140   6.702  13.307  0.1744 -0.6396  0.1818
   53DOPE   C31 6739   5.252   6.639  13.351 -0.4391 -0.4891  0.7732
   53DOPE   O32 6740   5.350   6.629  13.279 -0.0281 -0.2547  0.6922
   53DOPE   C32 6741   5.246   6.587  13.487  0.4707  0.4112 -0.7978
   53DOPE   H2X 6742   5.183   6.495  13.487 -1.2150  1.4628  1.6818
   53DOPE   H2Y 6743   5.354   6.565  13.499  0.8326  1.5308 -1.8871
   53DOPE   C23 6744   4.836   6.514  13.454 -0.1090 -1.1949  0.0363
   53DOPE   H3R 6745   4.839   6.623  13.473 -0.7765 -1.3320  0.9762
   53DOPE   H3S 6746   4.937   6.479  13.483 -0.1696 -0.4353  1.2082
   53DOPE   C24 6747   4.733   6.455  13.544  0.3065  0.0461  0.3676
   53DOPE   H4R 6748   4.731   6.345  13.529  1.0447 -0.0596  0.9625
   53DOPE   H4S 6749   4.634   6.499  13.520 -0.7711 -1.1877  2.3630
   53DOPE   C25 6750   4.765   6.494  13.686  0.3470  0.8888 -0.7562
   53DOPE   H5R 6751   4.788   6.603  13.688 -2.9925  1.7206 -1.3488
   53DOPE   H5S 6752   4.850   6.430  13.716 -1.9717 -1.5474  1.1312
   53DOPE   C26 6753   4.657   6.448  13.783  0.2157  0.4913  0.0330
   53DOPE   H6R 6754   4.654   6.337  13.787 -0.7465  0.4513 -1.2267
   53DOPE   H6S 6755   4.562   6.490  13.744 -0.4196 -0.7469  0.2008
   53DOPE   C27 6756   4.686   6.506  13.923  0.9746  0.7022 -0.0855
   53DOPE   H7R 6757   4.688   6.617  13.923 -1.4416  0.7956  1.2299
   53DOPE   H7S 6758   4.791   6.472  13.940  1.5372  2.1683 -0.4638
   53DOPE   C28 6759   4.593   6.436  14.023  0.1830  0.3363 -0.6100
   53DOPE   H8R 6760   4.600   6.326  14.009 -3.3803  0.1817 -2.2019
   53DOPE   H8S 6761   4.491   6.465  13.990 -0.6688 -1.9178 -0.1237
   53DOPE   C29 6762   4.622   6.474  14.164 -0.7614 -0.1435  0.5543
   53DOPE   H9R 6763   4.570   6.569  14.185  0.5636  0.5454  0.7886
   53DOPE  C210 6764   4.683   6.402  14.258  0.8400  0.7610  0.5374
   53DOPE  H10R 6765   4.667   6.442  14.359 -3.9260 -0.2667  0.4273
   53DOPE  C211 6766   4.761   6.273  14.238  0.0159 -0.3079 -0.2523
   53DOPE  H11R 6767   4.871   6.292  14.235  0.1567 -1.0209  0.2509
   53DOPE  H11S 6768   4.735   6.206  14.153 -1.1693 -0.5683  0.2929
   53DOPE  C212 6769   4.722   6.185  14.349 -0.2450  0.4269  0.0543
   53DOPE  H12R 6770   4.754   6.080  14.328  0.5015  0.4298  1.0688
   53DOPE  H12S 6771   4.614   6.174  14.375  0.1019  0.6176  1.7139
   53DOPE  C213 6772   4.802   6.216  14.482 -0.4357 -0.5679  0.4788
   53DOPE  H13R 6773   4.765   6.310  14.527  0.6005  0.2901 -0.4166
   53DOPE  H13S 6774   4.906   6.240  14.451 -0.3141 -0.3511  1.0423
   53DOPE  C214 6775   4.805   6.105  14.585 -0.2043 -0.0973  0.2845
   53DOPE  H14R 6776   4.843   6.011  14.538  0.0343  0.1148  0.0486
   53DOPE  H14S 6777   4.704   6.074  14.618  0.0071 -0.9186  0.1824
   53DOPE  C215 6778   4.888   6.146  14.704 -0.4050  0.1479  0.1075
   53DOPE  H15R 6779   4.845   6.239  14.745  0.3070  0.6376 -0.2470
   53DOPE  H15S 6780   4.991   6.163  14.664  0.0260  0.1485  1.1941
   53DOPE  C216 6781   4.895   6.031  14.806  0.4681 -0.5340 -0.1263
   53DOPE  H16R 6782   4.793   5.990  14.823 -0.4883  1.1846 -1.3826
   53DOPE  H16S 6783   4.940   6.068  14.901  1.1861  1.1072 -1.0776
   53DOPE  C217 6784   4.960   5.901  14.758  0.1640  0.0984  0.6347
   53DOPE  H17R 6785   5.050   5.929  14.700 -1.1036  0.6057 -1.1691
   53DOPE  H17S 6786   4.892   5.861  14.680  1.1119  0.3101 -0.3194
   53DOPE  C218 6787   4.991   5.788  14.857 -0.2773  0.3053 -0.3176
   53DOPE  H18R 6788   4.907   5.750  14.920  0.2126 -1.2717 -0.5718
   53DOPE  H18S 6789   5.068   5.819  14.931  0.0929 -1.0446 -0.1147
   53DOPE  H18T 6790   5.018   5.696  14.800 -0.6319  0.4927 -0.7973
   53DOPE   C33 6791   5.202   6.678  13.605 -0.0468 -0.6472 -0.3968
   53DOPE   H3X 6792   5.106   6.729  13.583 -0.4312 -0.1874  2.1055
   53DOPE   H3Y 6793   5.284   6.753  13.610  0.0540 -0.6398 -1.7526
   53DOPE   C34 6794   5.182   6.606  13.737 -0.0580 -0.3459 -0.3219
   53DOPE   H4X 6795   5.140   6.505  13.720 -0.4687 -0.0790 -0.9095
   53DOPE   H4Y 6796   5.285   6.588  13.775 -0.1333 -0.9578 -0.4101
   53DOPE   C35 6797   5.101   6.686  13.836  0.1025  0.3398 -0.2115
   53DOPE   H5X 6798   4.999   6.692  13.793  0.2301 -0.4454 -0.6437
   53DOPE   H5Y 6799   5.131   6.793  13.844  0.3693  0.2203  0.4731
   53DOPE   C36 6800   5.103   6.634  13.979  0.1678 -0.2517 -0.2208
   53DOPE   H6X 6801   5.202   6.648  14.028  0.4164  1.1014 -1.0548
   53DOPE   H6Y 6802   5.070   6.528  13.972  0.5118 -0.3626 -0.1442
   53DOPE   C37 6803   4.989   6.709  14.057  0.1432  0.0647 -0.1897
   53DOPE   H7X 6804   5.013   6.817  14.061 -1.3778  0.4463 -0.6624
   53DOPE   H7Y 6805   4.893   6.699  14.001 -0.2543  0.3407  0.4244
   53DOPE   C38 6806   4.963   6.662  14.199 -0.4377 -0.4493 -0.9150
   53DOPE   H8X 6807   4.925   6.560  14.219  0.7427 -0.6374  0.6612
   53DOPE   H8Y 6808   4.890   6.736  14.239  1.4204  0.7019  0.5617
   53DOPE   C39 6809   5.086   6.660  14.285 -0.1388 -0.0232 -0.3961
   53DOPE   H9X 6810   5.143   6.566  14.277  2.3105  1.2416  0.8407
   53DOPE  C310 6811   5.124   6.758  14.369  0.5559  0.3394 -0.2520
   53DOPE  H10X 6812   5.196   6.734  14.449 -1.5715 -1.9554  1.1476
   53DOPE  C311 6813   5.053   6.893  14.392 -0.5086  0.2656 -0.1695
   53DOPE  H11X 6814   5.071   6.971  14.315  0.9005  0.6283  0.4938
   53DOPE  H11Y 6815   4.943   6.878  14.399 -0.4148 -2.3697 -2.4887
   53DOPE  C312 6816   5.094   6.953  14.530  0.1869  0.1428  0.0128
   53DOPE  H12X 6817   5.204   6.961  14.536  0.2296 -1.2602  2.1550
   53DOPE  H12Y 6818   5.065   6.888  14.616 -2.2029 -0.0629 -0.8691
   53DOPE  C313 6819   5.035   7.096  14.555 -0.2527  1.0459 -0.2341
   53DOPE  H13X 6820   5.052   7.162  14.467 -0.5077  0.0385 -1.0686
   53DOPE  H13Y 6821   4.924   7.091  14.556 -0.2749  1.0987 -1.1143
   53DOPE  C314 6822   5.097   7.167  14.680  0.1443 -0.4917 -0.6708
   53DOPE  H14X 6823   5.032   7.252  14.713 -0.4619 -2.0352  2.4249
   53DOPE  H14Y 6824   5.201   7.198  14.659 -0.5804  2.3164 -0.5552
   53DOPE  C315 6825   5.092   7.078  14.805  0.0781  0.4331  0.4303
   53DOPE  H15X 6826   5.138   6.980  14.781 -1.4212 -0.1871 -0.0673
   53DOPE  H15Y 6827   4.987   7.049  14.826 -0.2495  0.3789 -1.1985
   53DOPE  C316 6828   5.162   7.127  14.932  0.1658  0.7796  0.5364
   53DOPE  H16X 6829   5.232   7.211  14.914 -0.2362  1.3398  1.4645
   53DOPE  H16Y 6830   5.221   7.040  14.964 -2.9666 -1.4688  0.7051
   53DOPE  C317 6831   5.057   7.170  15.043  0.1305  0.0099  0.7088
   53DOPE  H17X 6832   4.999   7.258  15.007 -2.4828 -2.1818 -0.7903
   53DOPE  H17Y 6833   4.990   7.083  15.061 -0.0705 -0.7416 -3.0340
   53DOPE  C318 6834   5.141   7.200  15.179 -0.0478  0.4310 -0.4073
   53DOPE  H18X 6835   5.228   7.265  15.152  0.2895  0.6065  1.0512
   53DOPE  H18Y 6836   5.074   7.249  15.253 -1.0722 -2.5284  0.7767
   53DOPE  H18Z 6837   5.181   7.104  15.217  0.3670  1.1737  1.1091
   54DOPE     N 6838   6.697   2.784  12.621 -0.4351  0.3646  0.5940
   54DOPE   HN1 6839   6.784   2.769  12.566 -1.5978  1.8364 -1.8179
   54DOPE   HN2 6840   6.715   2.859  12.691  2.5396 -1.0888  1.5510
   54DOPE   HN3 6841   6.671   2.692  12.662 -0.8896  0.2433  0.0541
   54DOPE   C12 6842   6.594   2.814  12.512  0.3342 -0.1387  0.1042
   54DOPE  H12A 6843   6.503   2.846  12.566  1.0440  1.5166  0.3780
   54DOPE  H12B 6844   6.583   2.719  12.455 -3.3250 -0.4173  1.0550
   54DOPE   C11 6845   6.649   2.932  12.427 -1.0294  0.5519 -0.1869
   54DOPE  H11A 6846   6.597   2.927  12.329  1.9463 -3.3398 -1.8052
   54DOPE  H11B 6847   6.755   2.915  12.401 -1.0784  2.0895 -1.5652
   54DOPE     P 6848   6.706   3.183  12.457 -0.2301 -0.0597  0.2037
   54DOPE   O13 6849   6.648   3.294  12.533 -0.5903  0.0933 -0.2971
   54DOPE   O14 6850   6.696   3.196  12.305  0.2739  0.7658  0.3558
   54DOPE   O11 6851   6.860   3.160  12.499  0.5934  0.1206  0.0720
   54DOPE   O12 6852   6.628   3.053  12.494 -0.1111 -0.0113 -0.1637
   54DOPE    C1 6853   6.914   3.117  12.623  0.0801  0.4057  0.3335
   54DOPE    HA 6854   6.985   3.034  12.604 -0.6383 -0.1155 -0.1369
   54DOPE    HB 6855   6.836   3.073  12.689  0.5131 -0.1595  0.4741
   54DOPE    C2 6856   6.994   3.230  12.695 -0.2019 -0.2234  0.4973
   54DOPE    HS 6857   7.046   3.287  12.614  3.3575 -1.0400  2.0035
   54DOPE   O21 6858   7.087   3.171  12.782  0.2381 -0.3150  0.1751
   54DOPE   C21 6859   7.196   3.242  12.788  0.1701  0.2881 -0.9522
   54DOPE   O22 6860   7.235   3.333  12.716 -0.4443 -0.1374  0.3559
   54DOPE   C22 6861   7.294   3.175  12.885 -0.3118 -0.7967 -0.1712
   54DOPE   H2R 6862   7.395   3.219  12.875 -0.8261  0.1271 -1.6187
   54DOPE   H2S 6863   7.306   3.074  12.841  1.6877 -0.9621  0.6712
   54DOPE    C3 6864   6.888   3.316  12.769 -0.0814  0.1048 -0.3324
   54DOPE    HX 6865   6.827   3.252  12.836  1.3940 -0.6593  0.3388
   54DOPE    HY 6866   6.822   3.361  12.692  2.1370 -0.3582 -2.6661
   54DOPE   O31 6867   6.951   3.422  12.845 -0.1347  0.5217  0.1001
   54DOPE   C31 6868   6.987   3.529  12.780  0.3521 -0.1635  0.0194
   54DOPE   O32 6869   6.949   3.565  12.670 -0.3661 -0.0109 -0.1663
   54DOPE   C32 6870   7.092   3.601  12.865 -0.0649 -1.0354 -0.0878
   54DOPE   H2X 6871   7.188   3.546  12.863 -0.3487 -1.5348 -0.1697
   54DOPE   H2Y 6872   7.117   3.699  12.820 -1.1285  0.3064  2.0897
   54DOPE   C23 6873   7.227   3.155  13.023  0.0038  0.3047  0.4500
   54DOPE   H3R 6874   7.149   3.076  13.013 -1.5836  1.5052  2.5236
   54DOPE   H3S 6875   7.174   3.249  13.048  1.0156  1.9233 -2.9057
   54DOPE   C24 6876   7.317   3.107  13.136  0.4688  0.1936  0.0313
   54DOPE   H4R 6877   7.375   3.031  13.079  1.7838  0.4972  0.9190
   54DOPE   H4S 6878   7.266   3.045  13.213 -0.0913  0.6523  0.0339
   54DOPE   C25 6879   7.404   3.211  13.203 -0.4708  0.0020 -0.5719
   54DOPE   H5R 6880   7.446   3.282  13.129  0.1886 -0.5232 -0.7115
   54DOPE   H5S 6881   7.489   3.159  13.252 -0.9984 -1.1789 -0.8597
   54DOPE   C26 6882   7.333   3.291  13.306 -0.1861 -0.0773  0.4807
   54DOPE   H6R 6883   7.250   3.340  13.251  0.8060  0.2295 -0.8006
   54DOPE   H6S 6884   7.404   3.366  13.347 -1.7262  1.2792  0.7813
   54DOPE   C27 6885   7.257   3.223  13.424  0.4378 -0.2769 -0.2191
   54DOPE   H7R 6886   7.185   3.148  13.385 -0.8286  0.0477  1.3474
   54DOPE   H7S 6887   7.191   3.286  13.489 -0.0870 -3.7870  2.9956
   54DOPE   C28 6888   7.354   3.141  13.514 -0.1999  0.0722 -0.4860
   54DOPE   H8R 6889   7.408   3.069  13.450  1.0708  1.1622 -0.7006
   54DOPE   H8S 6890   7.286   3.087  13.582 -0.5185 -3.0268 -3.0542
   54DOPE   C29 6891   7.460   3.227  13.583 -0.7523  0.2554 -0.1526
   54DOPE   H9R 6892   7.506   3.306  13.521 -1.0758 -0.2855 -1.0968
   54DOPE  C210 6893   7.517   3.200  13.701  0.2913  0.1624  0.2358
   54DOPE  H10R 6894   7.600   3.265  13.732  2.5214 -1.9980 -0.8747
   54DOPE  C211 6895   7.483   3.080  13.786 -0.3668 -0.7471  0.4171
   54DOPE  H11R 6896   7.568   3.009  13.777 -1.2362 -1.8924  0.9986
   54DOPE  H11S 6897   7.390   3.025  13.760 -0.8575  0.5807 -0.7264
   54DOPE  C212 6898   7.483   3.124  13.929  0.0347  0.0042 -0.4379
   54DOPE  H12R 6899   7.572   3.187  13.951 -0.7313  0.5259  1.4285
   54DOPE  H12S 6900   7.493   3.034  13.994 -1.3873 -0.0816 -0.3158
   54DOPE  C213 6901   7.364   3.194  13.979 -0.1937 -0.2481  0.0587
   54DOPE  H13R 6902   7.274   3.130  13.970  0.2953 -1.3734  2.3707
   54DOPE  H13S 6903   7.357   3.287  13.919 -0.0606 -1.0210 -1.1862
   54DOPE  C214 6904   7.378   3.240  14.128 -0.5254 -0.8146  1.2109
   54DOPE  H14R 6905   7.473   3.297  14.139 -0.1538 -1.0989 -0.3341
   54DOPE  H14S 6906   7.397   3.155  14.196  2.6446 -0.6099  0.7215
   54DOPE  C215 6907   7.272   3.333  14.179  0.5492 -0.0390  0.2125
   54DOPE  H15R 6908   7.278   3.419  14.110 -0.9198  0.9632  1.2793
   54DOPE  H15S 6909   7.306   3.360  14.281  1.3447 -1.7793  0.4454
   54DOPE  C216 6910   7.127   3.277  14.184 -0.2251 -0.1569  0.0481
   54DOPE  H16R 6911   7.136   3.184  14.245  0.2303 -0.0354  0.1704
   54DOPE  H16S 6912   7.102   3.259  14.078  0.6076  0.8188 -0.3324
   54DOPE  C217 6913   7.021   3.379  14.222  0.9162 -0.0452 -0.4658
   54DOPE  H17R 6914   7.007   3.460  14.147 -3.4576  1.9649  2.1689
   54DOPE  H17S 6915   7.036   3.426  14.321 -0.9556  1.0969 -0.6806
   54DOPE  C218 6916   6.879   3.327  14.235 -0.1162 -0.3446 -0.1929
   54DOPE  H18R 6917   6.837   3.273  14.148  2.3363 -0.8684 -1.1333
   54DOPE  H18S 6918   6.803   3.403  14.262  1.0228  0.4729  0.8057
   54DOPE  H18T 6919   6.888   3.249  14.313  0.1247 -0.7504 -0.6231
   54DOPE   C33 6920   7.054   3.596  13.015 -0.0892 -0.7171 -0.3011
   54DOPE   H3X 6921   7.062   3.494  13.059  1.8737  0.7055  3.0660
   54DOPE   H3Y 6922   6.965   3.657  13.041  0.9680  0.1383  1.4741
   54DOPE   C34 6923   7.172   3.656  13.097  0.2553  0.7949  0.2256
   54DOPE   H4X 6924   7.265   3.610  13.059  0.1668 -0.1028  1.0786
   54DOPE   H4Y 6925   7.168   3.765  13.074 -0.9892  0.4753 -1.2040
   54DOPE   C35 6926   7.150   3.639  13.245  0.3787  0.0051 -0.2378
   54DOPE   H5X 6927   7.105   3.540  13.266  3.1480 -0.8837  2.1657
   54DOPE   H5Y 6928   7.080   3.716  13.284  1.2664  1.4505 -1.4039
   54DOPE   C36 6929   7.283   3.656  13.320 -0.7255 -0.4226 -0.3173
   54DOPE   H6X 6930   7.341   3.738  13.272  0.8236 -1.3429 -0.0790
   54DOPE   H6Y 6931   7.358   3.574  13.320  1.2068  1.2156 -2.4080
   54DOPE   C37 6932   7.277   3.698  13.469 -0.1109 -0.1822  0.7277
   54DOPE   H7X 6933   7.383   3.704  13.501 -0.2020  0.0622  0.9896
   54DOPE   H7Y 6934   7.238   3.802  13.468 -0.4153 -0.2937 -0.3096
   54DOPE   C38 6935   7.184   3.603  13.552 -0.2268  0.2068 -0.2353
   54DOPE   H8X 6936   7.200   3.496  13.525 -1.2391 -0.2386  0.7851
   54DOPE   H8Y 6937   7.083   3.628  13.512 -0.0937  2.1363  0.5572
   54DOPE   C39 6938   7.201   3.621  13.698 -0.0967  0.4320 -0.1894
   54DOPE   H9X 6939   7.298   3.653  13.740 -0.8649  2.1050  0.3709
   54DOPE  C310 6940   7.105   3.606  13.790  0.1050 -0.1759  0.3452
   54DOPE  H10X 6941   7.135   3.620  13.895  1.6449 -2.4880  0.2915
   54DOPE  C311 6942   6.961   3.569  13.778 -0.1548  0.2837  0.6155
   54DOPE  H11X 6943   6.896   3.603  13.862 -0.6394  0.2124  0.2730
   54DOPE  H11Y 6944   6.919   3.613  13.685 -1.6862 -1.3402  0.4823
   54DOPE  C312 6945   6.947   3.423  13.751  1.0508 -0.7987 -0.0381
   54DOPE  H12X 6946   6.998   3.367  13.832 -0.0684 -0.5926  0.8307
   54DOPE  H12Y 6947   7.006   3.401  13.659  0.2652  3.3163 -1.7412
   54DOPE  C313 6948   6.797   3.363  13.740  0.0050 -0.4364 -1.1810
   54DOPE  H13X 6949   6.803   3.252  13.746  1.5107 -0.2943  0.8378
   54DOPE  H13Y 6950   6.736   3.409  13.821  0.3188  1.1343 -1.7932
   54DOPE  C314 6951   6.733   3.404  13.608 -0.3812  0.1424 -0.1931
   54DOPE  H14X 6952   6.711   3.512  13.616  1.3409  0.5722 -0.9482
   54DOPE  H14Y 6953   6.628   3.370  13.590 -0.5995  0.0498  1.1317
   54DOPE  C315 6954   6.817   3.377  13.487 -0.6629 -0.3397  0.6597
   54DOPE  H15X 6955   6.891   3.300  13.517 -0.1876 -0.7214 -1.3013
   54DOPE  H15Y 6956   6.884   3.460  13.457  0.3999 -1.6294 -0.7421
   54DOPE  C316 6957   6.740   3.322  13.363 -0.4086  0.1214  0.2408
   54DOPE  H16X 6958   6.673   3.408  13.340  2.1231  1.8275 -1.2400
   54DOPE  H16Y 6959   6.673   3.237  13.390  0.7897 -0.9615 -0.0810
   54DOPE  C317 6960   6.830   3.272  13.253 -0.1992 -0.4273 -0.5428
   54DOPE  H17X 6961   6.897   3.352  13.215  0.8544 -0.5356  0.9741
   54DOPE  H17Y 6962   6.904   3.199  13.292 -0.2667 -0.7570 -1.0335
   54DOPE  C318 6963   6.757   3.208  13.132 -0.6404 -0.1149 -0.0266
   54DOPE  H18X 6964   6.691   3.280  13.080 -1.9395 -0.1594  1.4929
   54DOPE  H18Y 6965   6.827   3.161  13.059 -0.9418 -1.6917  0.6553
   54DOPE  H18Z 6966   6.692   3.123  13.161 -0.5499 -0.2801 -0.3071
   55DOPE     N 6967   0.588   3.974  12.168 -0.5517  1.1865  0.6228
   55DOPE   HN1 6968   0.632   4.029  12.091 -0.7840  0.3940 -0.0970
   55DOPE   HN2 6969   0.632   3.882  12.187  1.6279  2.3831  1.7487
   55DOPE   HN3 6970   0.489   3.961  12.139 -1.2365  4.1898  1.2350
   55DOPE   C12 6971   0.578   4.057  12.291  0.3985 -0.3476  0.3192
   55DOPE  H12A 6972   0.666   4.053  12.359 -0.1450 -1.6771  0.9749
   55DOPE  H12B 6973   0.502   4.007  12.354 -0.3369 -1.6597 -1.5667
   55DOPE   C11 6974   0.538   4.204  12.261  0.5479  0.5173  0.7159
   55DOPE  H11A 6975   0.524   4.250  12.361  1.0872  1.8523  0.2058
   55DOPE  H11B 6976   0.449   4.213  12.195  1.5314 -0.2997 -0.8061
   55DOPE     P 6977   0.658   4.411  12.160 -0.1368  0.2167 -0.5764
   55DOPE   O13 6978   0.559   4.446  12.062  0.3264 -0.1195 -0.3261
   55DOPE   O14 6979   0.796   4.450  12.129  0.6173  0.0131  0.4416
   55DOPE   O11 6980   0.609   4.475  12.296 -0.2672 -0.9674  0.6202
   55DOPE   O12 6981   0.647   4.262  12.189 -0.1674  0.2452  0.5957
   55DOPE    C1 6982   0.706   4.505  12.398  0.3052  0.5601 -0.0317
   55DOPE    HA 6983   0.785   4.565  12.348 -0.2420  0.7365 -0.7110
   55DOPE    HB 6984   0.760   4.414  12.432  1.7303  0.9386 -1.1500
   55DOPE    C2 6985   0.645   4.591  12.515 -0.1662  0.2244  0.0960
   55DOPE    HS 6986   0.714   4.610  12.600  1.0688  1.0563 -1.0510
   55DOPE   O21 6987   0.536   4.525  12.576  0.0393  0.3173  0.5425
   55DOPE   C21 6988   0.560   4.410  12.628 -0.3276 -0.3713 -0.2240
   55DOPE   O22 6989   0.671   4.364  12.656  0.0649  0.3083 -0.0327
   55DOPE   C22 6990   0.432   4.348  12.646 -0.4604 -0.3030  0.2195
   55DOPE   H2R 6991   0.402   4.309  12.546  0.1233  0.5373 -0.2953
   55DOPE   H2S 6992   0.361   4.431  12.670  0.6371 -0.1261  3.3063
   55DOPE    C3 6993   0.595   4.730  12.467 -0.3985  0.0653  1.3908
   55DOPE    HX 6994   0.548   4.730  12.366  2.7923  1.0035 -0.2241
   55DOPE    HY 6995   0.693   4.779  12.447 -0.5780 -0.5795 -1.5086
   55DOPE   O31 6996   0.519   4.802  12.564 -0.1067  0.0889 -0.5128
   55DOPE   C31 6997   0.390   4.787  12.553  0.1850 -0.2228  0.2955
   55DOPE   O32 6998   0.331   4.712  12.483 -0.4378 -0.2247 -0.1995
   55DOPE   C32 6999   0.336   4.885  12.650  0.4536  0.0369  0.1675
   55DOPE   H2X 7000   0.317   4.981  12.598  1.6917 -0.7754 -1.9073
   55DOPE   H2Y 7001   0.245   4.828  12.681  1.4717 -1.2094  0.9278
   55DOPE   C23 7002   0.425   4.248  12.756 -0.4492 -0.0901 -0.5457
   55DOPE   H3R 7003   0.449   4.289  12.856 -2.3589 -0.3083  0.0402
   55DOPE   H3S 7004   0.489   4.160  12.730 -0.3942 -0.8902  2.0378
   55DOPE   C24 7005   0.276   4.210  12.784  0.0285 -0.2968  0.1376
   55DOPE   H4R 7006   0.222   4.170  12.695  2.5796 -2.5397 -0.5346
   55DOPE   H4S 7007   0.225   4.303  12.816 -0.3128 -0.3982 -0.1071
   55DOPE   C25 7008   0.260   4.107  12.895 -0.1002 -0.2346 -0.1388
   55DOPE   H5R 7009   0.333   4.026  12.875  2.6041  2.3039 -1.4801
   55DOPE   H5S 7010   0.164   4.052  12.894 -1.1508  1.4646  1.4074
   55DOPE   C26 7011   0.285   4.158  13.028 -0.3795 -0.5318 -0.2867
   55DOPE   H6R 7012   0.213   4.238  13.053 -0.4354 -0.9035  0.7915
   55DOPE   H6S 7013   0.387   4.200  13.024 -0.7718  0.4133 -0.5093
   55DOPE   C27 7014   0.280   4.055  13.145  0.3392  0.1716  0.7242
   55DOPE   H7R 7015   0.336   3.971  13.099  0.3315 -0.1537  1.3085
   55DOPE   H7S 7016   0.174   4.026  13.163  0.3423 -0.2243  0.1255
   55DOPE   C28 7017   0.346   4.093  13.272 -0.0247  0.2862  0.2165
   55DOPE   H8R 7018   0.451   4.123  13.250 -0.1950  1.4967  0.9817
   55DOPE   H8S 7019   0.336   4.001  13.334 -2.8553  1.0967  1.0782
   55DOPE   C29 7020   0.269   4.207  13.337 -0.0358  0.1372  0.1952
   55DOPE   H9R 7021   0.257   4.293  13.270  1.3599  0.6550  0.5796
   55DOPE  C210 7022   0.209   4.203  13.457  0.2466 -0.6363 -0.7243
   55DOPE  H10R 7023   0.151   4.291  13.489 -1.3590 -1.5237 -1.1318
   55DOPE  C211 7024   0.188   4.100  13.560  0.5668  0.4610 -0.3724
   55DOPE  H11R 7025   0.201   4.007  13.501 -0.6567  1.1214 -1.7671
   55DOPE  H11S 7026   0.080   4.097  13.588 -0.0551  1.2006 -2.4761
   55DOPE  C212 7027   0.277   4.077  13.684 -0.2550  0.1013 -0.5200
   55DOPE  H12R 7028   0.326   4.166  13.728 -0.2534  0.1477 -0.6148
   55DOPE  H12S 7029   0.359   4.021  13.633  1.2508  2.3599 -0.7181
   55DOPE  C213 7030   0.213   3.996  13.794 -0.0546 -0.1610  0.0678
   55DOPE  H13R 7031   0.168   3.897  13.768  0.5942  0.1616 -2.5749
   55DOPE  H13S 7032   0.129   4.058  13.829  1.4812  0.3163  3.3054
   55DOPE  C214 7033   0.319   3.973  13.903 -0.1033 -0.3972 -0.4383
   55DOPE  H14R 7034   0.377   4.067  13.919 -0.5045  0.0773 -1.6154
   55DOPE  H14S 7035   0.397   3.897  13.878  2.0819  1.4138  0.5153
   55DOPE  C215 7036   0.244   3.928  14.027  0.2820 -0.3216 -0.0604
   55DOPE  H15R 7037   0.209   3.824  14.007  2.8911 -1.3596  0.4076
   55DOPE  H15S 7038   0.155   3.989  14.054 -0.7263 -1.0583 -1.5840
   55DOPE  C216 7039   0.343   3.916  14.150 -0.5256 -0.2482  0.1375
   55DOPE  H16R 7040   0.382   4.020  14.150 -0.9351 -0.0230 -2.5742
   55DOPE  H16S 7041   0.435   3.864  14.113 -0.7175 -0.0312 -0.6698
   55DOPE  C217 7042   0.289   3.873  14.278 -0.7908  0.2859 -0.3394
   55DOPE  H17R 7043   0.203   3.934  14.312  1.1603  2.2309  1.4078
   55DOPE  H17S 7044   0.369   3.898  14.352 -0.9695  2.4183 -0.8233
   55DOPE  C218 7045   0.256   3.724  14.290 -0.4278 -0.1863 -0.6233
   55DOPE  H18R 7046   0.161   3.702  14.237 -1.0076 -0.6374  0.5702
   55DOPE  H18S 7047   0.252   3.680  14.392 -1.7053 -0.0364 -0.5909
   55DOPE  H18T 7048   0.343   3.669  14.249  0.1786  1.1350 -1.1866
   55DOPE   C33 7049   0.423   4.908  12.783 -1.0542  0.2675  0.1373
   55DOPE   H3X 7050   0.386   4.989  12.849  1.9485  1.1636  0.8630
   55DOPE   H3Y 7051   0.518   4.952  12.745 -1.1189  0.6096  0.3755
   55DOPE   C34 7052   0.460   4.786  12.870  0.1314  0.6474  0.0919
   55DOPE   H4X 7053   0.514   4.711  12.809 -1.3931  1.8482 -2.9553
   55DOPE   H4Y 7054   0.525   4.820  12.954 -1.2435  0.7084  1.1593
   55DOPE   C35 7055   0.338   4.724  12.943  0.3451  0.0718 -0.5172
   55DOPE   H5X 7056   0.254   4.709  12.872 -0.1284 -0.0526  0.0614
   55DOPE   H5Y 7057   0.299   4.800  13.013  3.0328  1.2662 -0.1741
   55DOPE   C36 7058   0.367   4.586  13.010 -0.2838 -0.4460  0.5286
   55DOPE   H6X 7059   0.418   4.533  12.928  1.8991  1.7114  0.3749
   55DOPE   H6Y 7060   0.273   4.540  13.048  0.3777  0.2029  3.1736
   55DOPE   C37 7061   0.472   4.589  13.122  0.1190  0.7586  1.0192
   55DOPE   H7X 7062   0.503   4.489  13.157  1.4137  1.2687  1.4115
   55DOPE   H7Y 7063   0.567   4.631  13.081 -0.3018  0.2436 -0.5842
   55DOPE   C38 7064   0.417   4.671  13.240 -0.2583 -0.0020  0.8664
   55DOPE   H8X 7065   0.315   4.631  13.261 -0.9469  1.2700  0.1154
   55DOPE   H8Y 7066   0.396   4.775  13.209  1.8287  0.7000  1.6634
   55DOPE   C39 7067   0.513   4.664  13.358  0.4738  1.0235  0.1909
   55DOPE   H9X 7068   0.607   4.717  13.335 -0.3727  2.0028 -1.1594
   55DOPE  C310 7069   0.499   4.596  13.478 -0.1224  0.2166 -0.6405
   55DOPE  H10X 7070   0.581   4.603  13.551 -2.0183  0.1532  1.6440
   55DOPE  C311 7071   0.378   4.511  13.519 -0.7831  0.1835 -0.0624
   55DOPE  H11X 7072   0.296   4.538  13.449 -0.3273  0.4643 -0.5024
   55DOPE  H11Y 7073   0.399   4.402  13.514  3.1618  0.8522 -1.0219
   55DOPE  C312 7074   0.327   4.541  13.663  0.0608 -0.2881 -0.0769
   55DOPE  H12X 7075   0.220   4.514  13.672 -0.2215  1.4423  3.1799
   55DOPE  H12Y 7076   0.315   4.648  13.690 -1.3680 -0.6215  0.6773
   55DOPE  C313 7077   0.401   4.462  13.777  0.3685  0.0879  1.2032
   55DOPE  H13X 7078   0.378   4.355  13.763 -0.4131  0.6145 -2.5483
   55DOPE  H13Y 7079   0.511   4.462  13.762  0.4053  2.5667  1.0093
   55DOPE  C314 7080   0.362   4.501  13.915 -0.4753 -0.3203 -0.7485
   55DOPE  H14X 7081   0.255   4.530  13.915 -0.3004  0.3457 -0.8387
   55DOPE  H14Y 7082   0.409   4.600  13.934 -0.7273 -0.0168 -1.6543
   55DOPE  C315 7083   0.391   4.395  14.024 -0.2982  0.3590  0.0836
   55DOPE  H15X 7084   0.489   4.343  14.023 -1.3119 -1.6657  0.4866
   55DOPE  H15Y 7085   0.335   4.303  13.998 -0.9987  0.7547  0.1517
   55DOPE  C316 7086   0.358   4.433  14.173  1.0948 -0.4614 -0.3897
   55DOPE  H16X 7087   0.374   4.347  14.241 -1.2055 -0.8854 -0.3166
   55DOPE  H16Y 7088   0.249   4.454  14.173  1.3239  0.8556 -0.1240
   55DOPE  C317 7089   0.432   4.555  14.209  0.4448  0.0238 -0.6093
   55DOPE  H17X 7090   0.542   4.546  14.193  0.2828 -1.6990 -0.9105
   55DOPE  H17Y 7091   0.392   4.644  14.155 -1.3161 -0.5653 -0.3233
   55DOPE  C318 7092   0.401   4.594  14.355 -0.3801  0.0130 -0.0655
   55DOPE  H18X 7093   0.469   4.679  14.375 -1.3714  0.2818  2.5724
   55DOPE  H18Y 7094   0.299   4.634  14.373 -1.0338 -0.4563 -2.3649
   55DOPE  H18Z 7095   0.420   4.514  14.429 -0.4402  0.2562  0.2180
   56DOPE     N 7096   6.211   6.313  12.449 -0.3584 -0.6865 -0.4140
   56DOPE   HN1 7097   6.233   6.231  12.389  0.8065 -1.7097  1.3379
   56DOPE   HN2 7098   6.254   6.399  12.409 -0.3479 -0.1677  0.6874
   56DOPE   HN3 7099   6.269   6.286  12.531  0.6836  2.9975  0.2332
   56DOPE   C12 7100   6.075   6.310  12.500  0.0247  0.4174  0.3031
   56DOPE  H12A 7101   5.999   6.329  12.421 -0.4851 -1.1286  0.3688
   56DOPE  H12B 7102   6.057   6.383  12.582  0.4724  0.5101  0.3215
   56DOPE   C11 7103   6.047   6.178  12.571  0.1109  0.1501  0.4252
   56DOPE  H11A 7104   6.051   6.095  12.497 -1.6126  0.9650 -0.6659
   56DOPE  H11B 7105   5.942   6.171  12.608 -0.0925 -1.9529 -0.4114
   56DOPE     P 7106   6.159   6.029  12.768 -0.4296  0.1239 -0.0749
   56DOPE   O13 7107   6.206   6.082  12.900 -0.1111 -0.2867 -0.2540
   56DOPE   O14 7108   6.242   5.919  12.708  0.4748 -0.4146 -0.2449
   56DOPE   O11 7109   6.016   5.967  12.787  0.2176  0.1052 -0.0252
   56DOPE   O12 7110   6.146   6.154  12.673 -0.2482 -0.8091 -0.2268
   56DOPE    C1 7111   5.921   6.030  12.882 -0.3288 -0.1560  0.2774
   56DOPE    HA 7112   5.820   5.997  12.850 -0.4760  1.8557 -1.6049
   56DOPE    HB 7113   5.916   6.139  12.859  1.4281  0.0635  0.8238
   56DOPE    C2 7114   5.942   5.998  13.034 -0.1650 -0.0438  0.2358
   56DOPE    HS 7115   6.049   6.015  13.058 -0.2408 -0.1735  0.6732
   56DOPE   O21 7116   5.892   5.863  13.067  0.3362  0.1276 -0.2064
   56DOPE   C21 7117   5.964   5.759  13.024  0.2960  0.6926  0.5718
   56DOPE   O22 7118   6.077   5.762  12.979  0.0530 -0.3406 -0.1062
   56DOPE   C22 7119   5.881   5.631  13.024 -0.1224  0.1539  0.2897
   56DOPE   H2R 7120   5.935   5.551  12.969 -0.2322  0.3084 -0.0513
   56DOPE   H2S 7121   5.794   5.660  12.962 -0.4592 -1.8942 -0.2448
   56DOPE    C3 7122   5.858   6.106  13.109  0.0508  0.0549  0.0236
   56DOPE    HX 7123   5.753   6.083  13.081  0.2523 -0.2557 -0.5027
   56DOPE    HY 7124   5.886   6.207  13.071 -1.5842  0.4877 -0.0974
   56DOPE   O31 7125   5.883   6.110  13.248  0.2694  0.1808  0.2164
   56DOPE   C31 7126   5.823   6.018  13.327 -0.2238 -0.1852 -0.4856
   56DOPE   O32 7127   5.728   5.949  13.288 -0.0810  0.0250 -0.3160
   56DOPE   C32 7128   5.890   6.017  13.462  0.0862 -0.4480  0.2710
   56DOPE   H2X 7129   6.000   6.006  13.445 -0.0729 -0.2719 -0.9532
   56DOPE   H2Y 7130   5.866   6.110  13.517 -3.2073  0.0642 -1.7567
   56DOPE   C23 7131   5.829   5.594  13.166  0.3816 -0.4118 -0.1253
   56DOPE   H3R 7132   5.846   5.686  13.226 -2.4147 -0.3767  0.7283
   56DOPE   H3S 7133   5.886   5.509  13.208  0.5414 -0.2183  0.0534
   56DOPE   C24 7134   5.680   5.566  13.169 -0.0284  0.6733  1.2680
   56DOPE   H4R 7135   5.662   5.466  13.124  0.7047  1.3777 -0.6703
   56DOPE   H4S 7136   5.634   5.644  13.104  0.3184  0.9743  1.3834
   56DOPE   C25 7137   5.624   5.585  13.310 -0.1493  0.4918 -0.2476
   56DOPE   H5R 7138   5.515   5.573  13.288  0.0573 -1.7563 -0.2209
   56DOPE   H5S 7139   5.645   5.685  13.355  1.6549 -0.5824  1.4313
   56DOPE   C26 7140   5.668   5.461  13.395 -0.7756  0.2663  0.3611
   56DOPE   H6R 7141   5.757   5.418  13.345 -1.8208  0.4339 -1.7426
   56DOPE   H6S 7142   5.590   5.382  13.384 -1.7059  0.9631  1.6802
   56DOPE   C27 7143   5.700   5.491  13.543  0.0586  0.2682 -0.0962
   56DOPE   H7R 7144   5.621   5.559  13.580  0.0154 -1.5582  3.5496
   56DOPE   H7S 7145   5.792   5.552  13.560  1.1057 -1.0845 -0.7250
   56DOPE   C28 7146   5.701   5.363  13.630  0.7677  0.3579  0.4246
   56DOPE   H8R 7147   5.615   5.305  13.591  0.3125  0.8714  0.6608
   56DOPE   H8S 7148   5.678   5.386  13.736 -1.4799  1.4038 -0.2355
   56DOPE   C29 7149   5.825   5.280  13.601  0.0444  0.8630  0.3390
   56DOPE   H9R 7150   5.814   5.206  13.520  0.2461  0.4760  0.6592
   56DOPE  C210 7151   5.938   5.272  13.666  0.0351 -0.9501 -0.2512
   56DOPE  H10R 7152   6.028   5.235  13.615  0.9686 -1.6261  1.7713
   56DOPE  C211 7153   5.968   5.383  13.763 -0.4739 -0.5716  0.5972
   56DOPE  H11R 7154   5.959   5.341  13.865  0.8310 -0.5895  0.7271
   56DOPE  H11S 7155   5.896   5.467  13.751  2.7413  2.2391 -0.5786
   56DOPE  C212 7156   6.104   5.451  13.753  0.7354  0.2629 -0.1390
   56DOPE  H12R 7157   6.186   5.378  13.732  2.6614  1.5911  2.2795
   56DOPE  H12S 7158   6.147   5.494  13.846  2.9084  0.9029 -1.3442
   56DOPE  C213 7159   6.114   5.550  13.630  0.2460 -0.4764  0.0635
   56DOPE  H13R 7160   6.031   5.623  13.637  0.3547 -0.3430 -0.0494
   56DOPE  H13S 7161   6.114   5.484  13.541  0.4733  1.2092 -1.2339
   56DOPE  C214 7162   6.241   5.630  13.628 -0.0438 -0.2229 -0.3121
   56DOPE  H14R 7163   6.335   5.571  13.616 -0.8763 -1.4319 -1.1492
   56DOPE  H14S 7164   6.245   5.672  13.730  1.4643 -0.3274 -0.3080
   56DOPE  C215 7165   6.235   5.735  13.517 -0.6647  0.1893  0.2243
   56DOPE  H15R 7166   6.324   5.799  13.534 -1.1260  0.6750  0.9191
   56DOPE  H15S 7167   6.142   5.796  13.515 -1.8591 -1.5729 -1.7829
   56DOPE  C216 7168   6.263   5.666  13.386 -0.0337 -0.2923 -0.1888
   56DOPE  H16R 7169   6.175   5.601  13.367  0.3978 -0.9156 -0.0982
   56DOPE  H16S 7170   6.347   5.594  13.392  1.7215  1.7039  0.5130
   56DOPE  C217 7171   6.295   5.767  13.273 -0.1889  0.1489  0.2987
   56DOPE  H17R 7172   6.379   5.833  13.305  1.2615 -1.6232  0.3228
   56DOPE  H17S 7173   6.212   5.836  13.248  1.3095  1.4850 -1.1993
   56DOPE  C218 7174   6.335   5.696  13.146  0.1773 -0.1306 -0.4522
   56DOPE  H18R 7175   6.365   5.765  13.064 -1.4638  1.2109  0.0201
   56DOPE  H18S 7176   6.256   5.629  13.107  1.4216 -3.4227  2.2212
   56DOPE  H18T 7177   6.418   5.624  13.161 -0.4830 -1.0900 -1.3368
   56DOPE   C33 7178   5.820   5.913  13.558 -0.2267  0.4737  0.2390
   56DOPE   H3X 7179   5.828   5.811  13.515 -0.2249  0.4730  0.2414
   56DOPE   H3Y 7180   5.712   5.939  13.565  0.2552  2.3276  1.6223
   56DOPE   C34 7181   5.879   5.912  13.699  0.0054 -0.5597  1.4502
   56DOPE   H4X 7182   5.990   5.899  13.694 -0.1790 -2.3771  1.5046
   56DOPE   H4Y 7183   5.859   6.010  13.747 -1.8553 -0.8305  1.2676
   56DOPE   C35 7184   5.822   5.803  13.783 -0.9123 -0.0312 -0.6273
   56DOPE   H5X 7185   5.843   5.699  13.749 -0.9343 -0.6513  1.1489
   56DOPE   H5Y 7186   5.714   5.824  13.796 -0.1895  3.5715  0.5565
   56DOPE   C36 7187   5.876   5.808  13.929 -0.2629  0.1482  0.7671
   56DOPE   H6X 7188   5.788   5.795  13.996 -0.9740  3.2927  0.6414
   56DOPE   H6Y 7189   5.908   5.912  13.953  1.9699  0.2159 -1.9250
   56DOPE   C37 7190   5.985   5.706  13.963  0.0861 -0.0809 -0.0899
   56DOPE   H7X 7191   5.954   5.603  13.936  1.7440 -1.6584  3.4159
   56DOPE   H7Y 7192   6.082   5.715  13.909  1.0759  1.1747  1.7707
   56DOPE   C38 7193   6.008   5.690  14.116 -0.2547 -0.3467  0.1910
   56DOPE   H8X 7194   5.905   5.697  14.156 -0.6150  3.4437 -1.0507
   56DOPE   H8Y 7195   6.061   5.781  14.151  1.2381 -1.0940 -0.0521
   56DOPE   C39 7196   6.085   5.568  14.163 -0.3071 -0.1681 -0.8331
   56DOPE   H9X 7197   6.172   5.539  14.102  0.7374  0.7549  0.1530
   56DOPE  C310 7198   6.082   5.517  14.288  0.2207  0.7306 -0.0437
   56DOPE  H10X 7199   6.130   5.419  14.306 -1.7922 -0.5432 -1.2815
   56DOPE  C311 7200   5.982   5.555  14.388  0.0012  0.5666 -0.4270
   56DOPE  H11X 7201   5.998   5.662  14.412  1.2390  0.1535  0.6468
   56DOPE  H11Y 7202   5.885   5.538  14.336 -0.6431  0.7148  0.6871
   56DOPE  C312 7203   5.983   5.468  14.516 -0.1541 -0.3650  0.4413
   56DOPE  H12X 7204   6.085   5.466  14.560 -0.1332  0.3083  0.4442
   56DOPE  H12Y 7205   5.949   5.364  14.496 -1.4311 -0.1247  1.2371
   56DOPE  C313 7206   5.876   5.517  14.610  0.2588 -0.1662  0.6416
   56DOPE  H13X 7207   5.777   5.525  14.561  0.9755 -1.9402 -1.2605
   56DOPE  H13Y 7208   5.861   5.442  14.690  0.1990  0.1374  0.9176
   56DOPE  C314 7209   5.898   5.653  14.677 -0.1962  0.0817  0.2238
   56DOPE  H14X 7210   5.928   5.732  14.605  1.1827 -0.7562 -0.1629
   56DOPE  H14Y 7211   5.984   5.659  14.747  1.5367  3.3144 -1.9405
   56DOPE  C315 7212   5.777   5.700  14.751 -0.1098  0.1349 -0.2579
   56DOPE  H15X 7213   5.757   5.623  14.828 -1.5157 -1.5776 -2.2041
   56DOPE  H15Y 7214   5.681   5.697  14.695 -2.1189  1.6765  2.8114
   56DOPE  C316 7215   5.794   5.837  14.812 -0.0286 -0.2889 -0.0629
   56DOPE  H16X 7216   5.811   5.914  14.734 -1.0806 -2.0467 -2.1299
   56DOPE  H16Y 7217   5.881   5.823  14.879 -1.5185 -2.2699  1.5823
   56DOPE  C317 7218   5.686   5.887  14.911 -0.2530 -0.0955 -0.1004
   56DOPE  H17X 7219   5.592   5.887  14.851 -0.0159 -1.3752 -0.5122
   56DOPE  H17Y 7220   5.665   5.807  14.986 -0.1832  0.8930  1.0023
   56DOPE  C318 7221   5.720   6.017  14.977 -1.3137 -0.0695 -0.2263
   56DOPE  H18X 7222   5.645   6.055  15.049 -0.6667  1.4943 -0.3534
   56DOPE  H18Y 7223   5.822   6.017  15.021 -0.7859 -1.4093 -1.3580
   56DOPE  H18Z 7224   5.719   6.097  14.900 -1.9298  3.1398  2.8567
   57DOPE     N 7225   6.154   2.301  12.736 -0.3616 -0.4229 -0.2803
   57DOPE   HN1 7226   6.120   2.203  12.749  0.1229 -0.6026 -0.3520
   57DOPE   HN2 7227   6.151   2.347  12.830 -4.7974  0.0428 -0.4135
   57DOPE   HN3 7228   6.079   2.358  12.693 -0.8501 -0.4877  0.4454
   57DOPE   C12 7229   6.288   2.313  12.659  0.5890 -0.5989  0.6862
   57DOPE  H12A 7230   6.260   2.283  12.556 -1.9100 -0.6308  1.2983
   57DOPE  H12B 7231   6.362   2.245  12.706  1.7909  0.1968 -0.0167
   57DOPE   C11 7232   6.351   2.449  12.666 -0.0561  0.1463 -0.1863
   57DOPE  H11A 7233   6.285   2.527  12.624  0.7593  0.2166 -1.4157
   57DOPE  H11B 7234   6.443   2.446  12.603 -0.4073 -3.5323 -0.7522
   57DOPE     P 7235   6.543   2.498  12.838  0.0946  0.2131  0.2184
   57DOPE   O13 7236   6.556   2.559  12.974 -0.2343  0.1273 -0.0517
   57DOPE   O14 7237   6.628   2.553  12.726  0.2510 -0.1088  0.6038
   57DOPE   O11 7238   6.570   2.340  12.838 -0.1501  0.4630  0.4154
   57DOPE   O12 7239   6.385   2.493  12.800  0.7249 -0.2657 -0.5345
   57DOPE    C1 7240   6.561   2.273  12.964 -0.0649  0.0985  0.1250
   57DOPE    HA 7241   6.598   2.338  13.046  2.3529  0.9959 -1.5673
   57DOPE    HB 7242   6.632   2.188  12.967 -0.9635 -0.9211 -3.2590
   57DOPE    C2 7243   6.422   2.221  13.011 -0.1763 -1.0085  0.0351
   57DOPE    HS 7244   6.368   2.203  12.916  2.5097  0.7879 -2.0029
   57DOPE   O21 7245   6.366   2.330  13.091  0.7102 -0.0207 -0.1464
   57DOPE   C21 7246   6.235   2.324  13.095  0.0221  0.3786  0.0158
   57DOPE   O22 7247   6.163   2.257  13.022  0.2816  0.0887  0.3593
   57DOPE   C22 7248   6.174   2.415  13.207 -0.1431  0.0379 -0.6925
   57DOPE   H2R 7249   6.165   2.518  13.166  0.0714  0.2583 -0.1896
   57DOPE   H2S 7250   6.241   2.402  13.295 -2.2526 -0.4025  0.9048
   57DOPE    C3 7251   6.428   2.096  13.104  0.1761  0.3686  0.5802
   57DOPE    HX 7252   6.455   2.015  13.033 -0.0526  0.3010  0.5710
   57DOPE    HY 7253   6.328   2.071  13.145  0.3061  0.2497  0.8296
   57DOPE   O31 7254   6.524   2.102  13.212  0.0732  0.4808  0.2040
   57DOPE   C31 7255   6.486   2.147  13.324  0.3785  0.0269  0.0191
   57DOPE   O32 7256   6.370   2.168  13.362  0.2566 -0.1909 -0.1504
   57DOPE   C32 7257   6.618   2.172  13.401  0.3305 -0.0798  0.1283
   57DOPE   H2X 7258   6.649   2.075  13.444  0.4810 -0.1910 -0.2254
   57DOPE   H2Y 7259   6.691   2.207  13.324  0.2385 -0.6902 -0.2364
   57DOPE   C23 7260   6.032   2.357  13.246  0.3172 -0.7421  0.2151
   57DOPE   H3R 7261   6.050   2.252  13.276 -2.1085 -0.5539  2.7610
   57DOPE   H3S 7262   5.956   2.367  13.165  0.8084  0.0676 -0.1599
   57DOPE   C24 7263   5.982   2.440  13.369  0.2502  0.1905  0.3130
   57DOPE   H4R 7264   5.875   2.418  13.389  0.3989 -0.8866 -0.0125
   57DOPE   H4S 7265   5.987   2.541  13.322  1.6729 -0.6612 -1.4991
   57DOPE   C25 7266   6.071   2.414  13.490  0.1682 -0.6374 -0.4035
   57DOPE   H5R 7267   6.178   2.441  13.473  1.3517 -3.3808  1.8343
   57DOPE   H5S 7268   6.061   2.306  13.514 -2.6717 -0.1061  1.1709
   57DOPE   C26 7269   6.024   2.493  13.613 -0.1077 -0.1141 -0.6472
   57DOPE   H6R 7270   5.915   2.484  13.634 -0.0793  1.7853  0.5376
   57DOPE   H6S 7271   6.054   2.598  13.591 -2.0885  0.9244  1.1390
   57DOPE   C27 7272   6.107   2.444  13.733 -0.3613  0.0426 -0.6523
   57DOPE   H7R 7273   6.217   2.442  13.717 -0.4268  1.3349 -1.4392
   57DOPE   H7S 7274   6.069   2.341  13.750 -1.4138  0.3876 -0.8271
   57DOPE   C28 7275   6.082   2.529  13.863 -0.1808 -0.0088  0.0173
   57DOPE   H8R 7276   5.972   2.543  13.868 -0.1487  2.1775 -2.9273
   57DOPE   H8S 7277   6.120   2.633  13.854 -2.6185  0.8736 -1.0028
   57DOPE   C29 7278   6.140   2.459  13.983  0.2752 -0.2719 -0.5003
   57DOPE   H9R 7279   6.214   2.383  13.953  0.6496  0.0555 -0.4252
   57DOPE  C210 7280   6.119   2.482  14.115 -0.4346  0.2475  0.4742
   57DOPE  H10R 7281   6.181   2.422  14.185  0.0121  0.2877  0.1189
   57DOPE  C211 7282   6.019   2.582  14.167 -0.0584 -0.1758 -0.1366
   57DOPE  H11R 7283   5.932   2.584  14.097 -0.0701 -3.9264 -0.4600
   57DOPE  H11S 7284   6.069   2.681  14.169 -0.4466  0.0155  0.1401
   57DOPE  C212 7285   5.952   2.530  14.296  0.6649  0.0676  0.1966
   57DOPE  H12R 7286   5.890   2.442  14.268 -0.6641  1.2597 -0.7688
   57DOPE  H12S 7287   5.883   2.611  14.328  0.1692 -0.3434  0.1832
   57DOPE  C213 7288   6.053   2.513  14.417 -0.1441 -0.3938  0.0632
   57DOPE  H13R 7289   6.080   2.619  14.438 -2.2190 -0.1290  1.7066
   57DOPE  H13S 7290   6.145   2.457  14.389 -1.1457 -1.5848 -0.9973
   57DOPE  C214 7291   5.986   2.458  14.539  0.5776 -0.0151  0.5047
   57DOPE  H14R 7292   5.993   2.348  14.543 -0.6570 -0.2084 -1.3231
   57DOPE  H14S 7293   5.877   2.480  14.528  0.6704  0.1474 -0.1244
   57DOPE  C215 7294   6.021   2.530  14.665 -0.1911  0.1702  0.5953
   57DOPE  H15R 7295   6.019   2.640  14.651 -1.4637 -0.0127 -0.9691
   57DOPE  H15S 7296   6.127   2.508  14.692 -0.4821 -1.1585  0.7051
   57DOPE  C216 7297   5.939   2.492  14.784 -0.2175 -0.8092  0.1214
   57DOPE  H16R 7298   5.951   2.382  14.798  1.6818 -1.0289 -2.4127
   57DOPE  H16S 7299   5.836   2.520  14.751 -0.0752 -1.3465 -0.8212
   57DOPE  C217 7300   5.985   2.583  14.902  0.0254  0.0317 -0.7984
   57DOPE  H17R 7301   5.989   2.688  14.864  0.6446  0.0560 -0.6730
   57DOPE  H17S 7302   6.089   2.562  14.936 -0.7098  0.8315  2.2491
   57DOPE  C218 7303   5.904   2.581  15.032  0.4464  0.0413  0.7473
   57DOPE  H18R 7304   5.953   2.659  15.094  1.8163 -0.2538  0.0812
   57DOPE  H18S 7305   5.922   2.483  15.081  0.0019 -1.0024 -1.0979
   57DOPE  H18T 7306   5.798   2.604  15.008  0.2632 -0.4056  1.1334
   57DOPE   C33 7307   6.612   2.282  13.508 -0.1087 -0.1559 -0.1792
   57DOPE   H3X 7308   6.571   2.369  13.452  0.9233 -0.6797 -1.8192
   57DOPE   H3Y 7309   6.717   2.305  13.536 -0.3604  1.2949 -0.3144
   57DOPE   C34 7310   6.532   2.249  13.634 -0.0311  0.1901  0.1480
   57DOPE   H4X 7311   6.512   2.343  13.691 -1.5639  1.7489 -2.6935
   57DOPE   H4Y 7312   6.441   2.204  13.588 -1.1837  0.1867  2.3044
   57DOPE   C35 7313   6.608   2.155  13.731  0.3137  0.4281 -0.2454
   57DOPE   H5X 7314   6.712   2.196  13.727  0.1691  0.6904 -1.4352
   57DOPE   H5Y 7315   6.613   2.050  13.697 -0.0787  0.7266 -1.2579
   57DOPE   C36 7316   6.549   2.165  13.878 -0.3609  0.3678 -0.6417
   57DOPE   H6X 7317   6.444   2.130  13.882  0.3945 -2.0082  0.2423
   57DOPE   H6Y 7318   6.558   2.273  13.903 -0.9069  0.8313 -2.3452
   57DOPE   C37 7319   6.627   2.084  13.985 -0.0937 -0.2291 -0.6342
   57DOPE   H7X 7320   6.733   2.118  13.976 -0.1989  0.1536 -0.4093
   57DOPE   H7Y 7321   6.590   2.109  14.086  2.7101 -2.4398  1.0929
   57DOPE   C38 7322   6.636   1.921  13.980 -0.0701  0.1567  0.9307
   57DOPE   H8X 7323   6.646   1.896  13.872  0.2921  0.7179  0.8300
   57DOPE   H8Y 7324   6.535   1.880  14.003 -1.1293 -0.9587 -4.3799
   57DOPE   C39 7325   6.762   1.872  14.054 -0.0284  0.3853 -0.3685
   57DOPE   H9X 7326   6.856   1.893  14.000  0.7598 -0.1817  0.7376
   57DOPE  C310 7327   6.771   1.800  14.166  0.0646 -0.4674 -0.1282
   57DOPE  H10X 7328   6.865   1.766  14.212 -0.6983 -2.2423  0.1959
   57DOPE  C311 7329   6.651   1.751  14.241  0.6066 -1.2795 -0.2078
   57DOPE  H11X 7330   6.569   1.817  14.207 -0.0347 -0.9838  1.7379
   57DOPE  H11Y 7331   6.628   1.646  14.211 -1.7552 -1.2965  1.4031
   57DOPE  C312 7332   6.676   1.758  14.390  0.0985  0.0443 -0.0336
   57DOPE  H12X 7333   6.702   1.865  14.406 -1.4298  0.7178 -1.7674
   57DOPE  H12Y 7334   6.759   1.698  14.434 -0.6781 -0.6243  0.5600
   57DOPE  C313 7335   6.554   1.736  14.485 -0.5154  0.1134 -0.4090
   57DOPE  H13X 7336   6.475   1.807  14.451  0.5804  0.8760 -1.4392
   57DOPE  H13Y 7337   6.523   1.631  14.468  0.7638 -0.4676  0.7335
   57DOPE  C314 7338   6.599   1.756  14.629  1.0523  0.2959 -0.1322
   57DOPE  H14X 7339   6.642   1.856  14.648  0.4577  0.3772  0.8637
   57DOPE  H14Y 7340   6.678   1.683  14.656 -0.4375 -0.9732  1.0165
   57DOPE  C315 7341   6.487   1.737  14.728 -0.2623  0.0752 -0.4972
   57DOPE  H15X 7342   6.433   1.640  14.722  0.4812 -0.2308 -3.9960
   57DOPE  H15Y 7343   6.414   1.820  14.713  0.2639  1.7507  4.3347
   57DOPE  C316 7344   6.537   1.742  14.880  0.2773  0.4546 -0.4448
   57DOPE  H16X 7345   6.601   1.831  14.896 -1.8771  1.8985  0.6125
   57DOPE  H16Y 7346   6.601   1.655  14.904 -0.6409 -0.0265  0.3641
   57DOPE  C317 7347   6.417   1.740  14.978  0.7147 -0.5629 -0.1423
   57DOPE  H17X 7348   6.339   1.811  14.941  0.3046  0.0679  1.8358
   57DOPE  H17Y 7349   6.364   1.643  14.969 -1.0252  0.3730 -0.5378
   57DOPE  C318 7350   6.445   1.772  15.125  0.4885 -0.1240  0.0453
   57DOPE  H18X 7351   6.361   1.744  15.193 -0.2030  1.4125 -0.1431
   57DOPE  H18Y 7352   6.537   1.713  15.148 -0.0000 -1.3843 -1.1078
   57DOPE  H18Z 7353   6.457   1.882  15.138  0.1322 -0.2520  1.7050
   58DOPE     N 7354   0.076   4.261  12.335 -0.2260  0.3575  0.2492
   58DOPE   HN1 7355   0.087   4.356  12.294  0.1203  0.4809  0.6267
   58DOPE   HN2 7356   0.164   4.221  12.375 -0.9461 -0.9657  0.5800
   58DOPE   HN3 7357   0.053   4.195  12.257  4.1007 -0.6537 -0.4357
   58DOPE   C12 7358  -0.032   4.265  12.442 -0.1100 -0.0094 -0.3073
   58DOPE  H12A 7359  -0.117   4.313  12.390  1.9934  3.3273 -0.9331
   58DOPE  H12B 7360   0.000   4.325  12.530 -1.8953  0.4218  0.0769
   58DOPE   C11 7361  -0.078   4.125  12.492  0.0791  0.0263  0.0130
   58DOPE  H11A 7362  -0.159   4.130  12.568 -0.7108 -3.7763 -0.3851
   58DOPE  H11B 7363   0.007   4.079  12.545  0.4541  1.2709  0.5073
   58DOPE     P 7364  -0.069   3.903  12.358  0.6030  0.4345  0.3313
   58DOPE   O13 7365   0.071   3.915  12.317 -0.5183  0.8032  0.1180
   58DOPE   O14 7366  -0.170   3.828  12.268  0.6639 -0.4003 -0.7454
   58DOPE   O11 7367  -0.078   3.842  12.501  0.2170  0.0737 -0.4079
   58DOPE   O12 7368  -0.125   4.047  12.380  0.6216  0.3972 -0.3895
   58DOPE    C1 7369  -0.209   3.801  12.552  0.0008 -0.5600  0.4396
   58DOPE    HA 7370  -0.248   3.712  12.498  0.4701  0.3982 -1.5696
   58DOPE    HB 7371  -0.284   3.881  12.535  2.1951  0.9972 -2.8525
   58DOPE    C2 7372  -0.198   3.780  12.702  0.6115 -0.0729 -0.2228
   58DOPE    HS 7373  -0.303   3.764  12.735  1.1317 -3.1432  0.1938
   58DOPE   O21 7374  -0.140   3.892  12.771 -0.3277 -0.3035  0.1393
   58DOPE   C21 7375  -0.228   3.984  12.821  0.7769  0.4407 -0.3739
   58DOPE   O22 7376  -0.347   3.981  12.807  0.6429 -0.1784 -0.0543
   58DOPE   C22 7377  -0.154   4.089  12.896 -0.5855  0.1803 -0.5351
   58DOPE   H2R 7378  -0.209   4.184  12.881 -0.4295  0.8802  2.7096
   58DOPE   H2S 7379  -0.048   4.101  12.864 -0.8422  1.9078 -0.8415
   58DOPE    C3 7380  -0.115   3.650  12.727 -0.5872  0.4868 -0.0448
   58DOPE    HX 7381  -0.011   3.663  12.689 -0.5391 -0.4750 -0.2812
   58DOPE    HY 7382  -0.168   3.577  12.663 -1.5653  0.3901  0.8383
   58DOPE   O31 7383  -0.116   3.606  12.862 -0.3369 -0.2403  1.1004
   58DOPE   C31 7384  -0.027   3.655  12.950  0.0500  0.3733  0.6211
   58DOPE   O32 7385   0.055   3.744  12.919 -0.3747  0.2980 -0.0367
   58DOPE   C32 7386  -0.025   3.567  13.076  0.2684 -0.3355  0.3298
   58DOPE   H2X 7387  -0.087   3.476  13.062  1.2310 -0.9462 -0.0647
   58DOPE   H2Y 7388   0.078   3.534  13.100  0.0450 -0.8422  0.6150
   58DOPE   C23 7389  -0.167   4.067  13.046  0.2524  0.0453 -0.2049
   58DOPE   H3R 7390  -0.103   3.982  13.077  0.6299 -0.2620 -1.7294
   58DOPE   H3S 7391  -0.267   4.024  13.066  0.0709 -0.6604 -2.3998
   58DOPE   C24 7392  -0.138   4.193  13.134 -0.3877  0.3222 -0.5830
   58DOPE   H4R 7393  -0.191   4.282  13.094  3.5613  2.1832 -2.2433
   58DOPE   H4S 7394  -0.030   4.219  13.131 -0.1493 -0.6481 -0.5714
   58DOPE   C25 7395  -0.174   4.163  13.281  0.7723 -0.3340 -0.0461
   58DOPE   H5R 7396  -0.103   4.083  13.310 -0.0261 -1.4722 -1.1192
   58DOPE   H5S 7397  -0.276   4.120  13.283  0.1933  0.8847 -1.4218
   58DOPE   C26 7398  -0.188   4.287  13.367 -0.0810  0.3349 -0.3415
   58DOPE   H6R 7399  -0.260   4.354  13.315 -1.7746  0.7397  2.3618
   58DOPE   H6S 7400  -0.090   4.339  13.361  0.3903 -0.3398  1.0876
   58DOPE   C27 7401  -0.229   4.256  13.512 -0.0130 -0.6193 -0.0149
   58DOPE   H7R 7402  -0.154   4.190  13.559  0.9366 -0.2030 -0.8840
   58DOPE   H7S 7403  -0.327   4.205  13.511  1.1152 -2.8983 -1.3218
   58DOPE   C28 7404  -0.238   4.380  13.596  0.1472  0.3489  0.0671
   58DOPE   H8R 7405  -0.308   4.370  13.682 -1.8489  1.0166 -1.3966
   58DOPE   H8S 7406  -0.290   4.452  13.529 -2.2735 -2.0997 -0.8196
   58DOPE   C29 7407  -0.107   4.445  13.638 -0.0107  0.3208  0.6649
   58DOPE   H9R 7408  -0.065   4.527  13.578  1.0583 -0.3003  0.5497
   58DOPE  C210 7409  -0.036   4.414  13.755 -0.2430 -0.0487 -0.2726
   58DOPE  H10R 7410   0.056   4.469  13.781 -1.3389  1.9995 -0.5000
   58DOPE  C211 7411  -0.080   4.316  13.856 -0.3065  0.8602  0.0115
   58DOPE  H11R 7412  -0.055   4.214  13.820  0.2498  1.0555 -0.1665
   58DOPE  H11S 7413  -0.190   4.324  13.870 -0.0736  2.4556  1.3189
   58DOPE  C212 7414  -0.011   4.344  13.990  0.6423 -0.4412  0.2378
   58DOPE  H12R 7415  -0.046   4.445  14.019 -0.3951 -0.8174  0.3289
   58DOPE  H12S 7416   0.100   4.344  13.978  0.8195  1.1923  1.6004
   58DOPE  C213 7417  -0.054   4.241  14.100  0.2014  0.3214 -0.1206
   58DOPE  H13R 7418  -0.019   4.140  14.070 -1.1395 -0.6157  1.2660
   58DOPE  H13S 7419  -0.164   4.233  14.106  0.2749 -0.4155  0.4055
   58DOPE  C214 7420   0.009   4.279  14.233 -0.2226 -0.2535  0.1622
   58DOPE  H14R 7421  -0.028   4.382  14.250 -0.5519 -0.5427  1.2718
   58DOPE  H14S 7422   0.119   4.289  14.216 -0.3173 -1.0849 -1.0849
   58DOPE  C215 7423  -0.028   4.188  14.350 -0.0387 -0.3596  0.4367
   58DOPE  H15R 7424   0.039   4.100  14.351  0.2536 -0.1336  0.9932
   58DOPE  H15S 7425  -0.130   4.144  14.341 -0.6914  1.1372  0.2673
   58DOPE  C216 7426  -0.024   4.242  14.490 -0.2753  0.4611 -0.9446
   58DOPE  H16R 7427  -0.031   4.161  14.565  0.6299  1.5638  0.3986
   58DOPE  H16S 7428  -0.105   4.311  14.522  1.3293  2.2618 -0.5317
   58DOPE  C217 7429   0.110   4.322  14.528 -0.3620  0.2559 -0.0986
   58DOPE  H17R 7430   0.100   4.355  14.633 -0.6724 -0.9342  0.2493
   58DOPE  H17S 7431   0.120   4.400  14.449 -0.7937 -1.1769 -1.6298
   58DOPE  C218 7432   0.234   4.235  14.523 -0.1919 -0.5974  0.1832
   58DOPE  H18R 7433   0.247   4.197  14.420  1.1180 -0.5124  0.2970
   58DOPE  H18S 7434   0.227   4.138  14.577 -0.7319 -1.9448 -2.1644
   58DOPE  H18T 7435   0.319   4.297  14.558  0.8585 -1.4416 -0.7907
   58DOPE   C33 7436  -0.062   3.646  13.201  0.3352  0.6309  0.7262
   58DOPE   H3X 7437  -0.127   3.594  13.275 -2.4125  0.2427 -1.7706
   58DOPE   H3Y 7438  -0.118   3.736  13.168 -0.0032 -0.1041 -0.8003
   58DOPE   C34 7439   0.073   3.681  13.276  0.5333 -0.1012  0.0351
   58DOPE   H4X 7440   0.132   3.592  13.307 -0.3793 -0.8856 -0.4069
   58DOPE   H4Y 7441   0.136   3.738  13.205 -0.2880  0.9807  0.1470
   58DOPE   C35 7442   0.060   3.780  13.392  0.0701 -0.0490 -0.3727
   58DOPE   H5X 7443   0.065   3.883  13.349 -0.4032  0.1312 -0.0018
   58DOPE   H5Y 7444   0.146   3.769  13.462  1.9748 -0.8059 -2.6825
   58DOPE   C36 7445  -0.067   3.767  13.465 -0.0844  0.3477 -0.1166
   58DOPE   H6X 7446  -0.087   3.661  13.494 -1.5049  0.8974  1.0462
   58DOPE   H6Y 7447  -0.147   3.803  13.397  0.9706  3.0842 -0.0147
   58DOPE   C37 7448  -0.072   3.851  13.593 -0.0515  0.0867  0.6542
   58DOPE   H7X 7449   0.009   3.822  13.664  0.4578 -1.5867 -0.5665
   58DOPE   H7Y 7450  -0.069   3.958  13.564 -0.3099 -0.2342 -0.6088
   58DOPE   C38 7451  -0.204   3.837  13.671  0.2408 -0.3778  0.2088
   58DOPE   H8X 7452  -0.223   3.731  13.700 -1.2747  0.0000  0.6893
   58DOPE   H8Y 7453  -0.284   3.858  13.597  2.0701 -2.0701 -2.4446
   58DOPE   C39 7454  -0.212   3.936  13.783  0.8432 -0.0624 -0.3835
   58DOPE   H9X 7455  -0.227   4.041  13.752 -0.9090 -0.3712 -0.7098
   58DOPE  C310 7456  -0.171   3.915  13.909 -0.8556 -0.2955  0.1018
   58DOPE  H10X 7457  -0.181   3.999  13.979 -0.4974 -0.7341  0.6864
   58DOPE  C311 7458  -0.106   3.789  13.971  0.3309 -0.7398 -0.0568
   58DOPE  H11X 7459  -0.098   3.715  13.888  0.0899  0.2287 -0.9574
   58DOPE  H11Y 7460  -0.001   3.801  14.004  0.0969 -0.5262  0.6211
   58DOPE  C312 7461  -0.197   3.755  14.095 -0.0108  0.6717 -0.1686
   58DOPE  H12X 7462  -0.198   3.648  14.123  0.4585  0.6334 -0.2902
   58DOPE  H12Y 7463  -0.302   3.792  14.088  0.2851  2.0822  1.8442
   58DOPE  C313 7464  -0.139   3.831  14.214  0.3695 -0.3950 -0.2096
   58DOPE  H13X 7465  -0.046   3.772  14.232 -0.6000 -2.5025 -1.7265
   58DOPE  H13Y 7466  -0.128   3.940  14.196  0.2049  0.2722  2.9999
   58DOPE  C314 7467  -0.215   3.837  14.351  0.0272 -0.7077  0.2003
   58DOPE  H14X 7468  -0.324   3.851  14.333 -0.2237 -2.2585  0.3452
   58DOPE  H14Y 7469  -0.171   3.917  14.414 -0.0026  0.9336 -1.7555
   58DOPE  C315 7470  -0.216   3.701  14.423  0.3901 -0.0119 -1.0644
   58DOPE  H15X 7471  -0.116   3.654  14.431  0.4808  0.3259 -0.1082
   58DOPE  H15Y 7472  -0.274   3.622  14.372 -0.0746 -1.2973  1.3171
   58DOPE  C316 7473  -0.292   3.712  14.561 -0.1017  0.0151  0.5465
   58DOPE  H16X 7474  -0.396   3.750  14.552 -0.7189 -1.9738 -2.1479
   58DOPE  H16Y 7475  -0.234   3.784  14.623  1.9685 -0.7589 -0.4199
   58DOPE  C317 7476  -0.288   3.591  14.649  0.3921  0.1104  0.0387
   58DOPE  H17X 7477  -0.182   3.558  14.646  0.3074 -0.0856 -1.9266
   58DOPE  H17Y 7478  -0.320   3.617  14.752 -0.2186  2.2441 -0.6548
   58DOPE  C318 7479  -0.359   3.463  14.594 -1.4437 -0.0755  0.0476
   58DOPE  H18X 7480  -0.305   3.416  14.509  2.1037 -0.7036  2.4318
   58DOPE  H18Y 7481  -0.363   3.385  14.674 -2.3261  0.7610  0.8469
   58DOPE  H18Z 7482  -0.465   3.487  14.571 -2.4709 -1.5376  2.7725
   59DOPE     N 7483   6.163   0.732  12.888  0.0038 -0.0258 -0.4657
   59DOPE   HN1 7484   6.107   0.651  12.855  1.8082 -0.9256 -1.5117
   59DOPE   HN2 7485   6.249   0.735  12.829  0.3867  0.0063  0.0827
   59DOPE   HN3 7486   6.192   0.702  12.983  0.3729 -0.4198 -0.6944
   59DOPE   C12 7487   6.098   0.870  12.889  0.0058  0.3591 -0.5338
   59DOPE  H12A 7488   6.165   0.940  12.944  0.7103 -0.0136 -0.9005
   59DOPE  H12B 7489   5.996   0.871  12.934 -0.7256  1.8841 -2.1197
   59DOPE   C11 7490   6.069   0.918  12.745  0.1252  0.9216  0.0382
   59DOPE  H11A 7491   6.028   1.021  12.749  0.2067  0.9628 -0.1454
   59DOPE  H11B 7492   5.984   0.855  12.713  1.9079 -1.0775 -1.0260
   59DOPE     P 7493   6.254   1.034  12.612 -0.0631 -0.3247  0.5059
   59DOPE   O13 7494   6.161   1.117  12.529  0.3172 -0.4488 -0.4701
   59DOPE   O14 7495   6.377   1.002  12.541  0.1310  0.2941  0.2116
   59DOPE   O11 7496   6.271   1.092  12.754  0.1570  0.6637 -0.0848
   59DOPE   O12 7497   6.177   0.904  12.655 -0.0771  1.0083 -0.9719
   59DOPE    C1 7498   6.402   1.107  12.811 -0.1218  0.1111  0.5861
   59DOPE    HA 7499   6.488   1.140  12.749  0.5713  1.3735  2.1438
   59DOPE    HB 7500   6.423   1.008  12.857 -0.9470 -0.9736 -1.2364
   59DOPE    C2 7501   6.399   1.219  12.922  0.1458 -0.5351  0.1178
   59DOPE    HS 7502   6.391   1.317  12.871  1.7378 -0.5530 -0.2280
   59DOPE   O21 7503   6.527   1.217  12.988 -0.2517 -0.3534  0.0683
   59DOPE   C21 7504   6.586   1.339  13.008  0.3313 -0.1854  0.0433
   59DOPE   O22 7505   6.555   1.440  12.951 -0.1509  0.0989 -0.4743
   59DOPE   C22 7506   6.689   1.329  13.114 -0.4713  0.5486 -0.1773
   59DOPE   H2R 7507   6.757   1.249  13.078 -1.4916 -0.0411 -0.8417
   59DOPE   H2S 7508   6.648   1.284  13.207  0.5923 -0.8053 -0.3253
   59DOPE    C3 7509   6.278   1.197  13.014 -0.1472 -0.4484 -0.1211
   59DOPE    HX 7510   6.288   1.105  13.075 -2.5913  0.6829  2.2211
   59DOPE    HY 7511   6.187   1.198  12.950  0.3287 -0.2874 -0.8114
   59DOPE   O31 7512   6.262   1.294  13.112  0.4145  0.2242 -0.6887
   59DOPE   C31 7513   6.167   1.273  13.195  0.2993 -0.5640  0.9310
   59DOPE   O32 7514   6.097   1.173  13.196 -0.0740 -0.5681  0.0258
   59DOPE   C32 7515   6.171   1.386  13.295  0.2671  0.4644 -0.2429
   59DOPE   H2X 7516   6.263   1.379  13.358 -0.0753  1.8576  0.4455
   59DOPE   H2Y 7517   6.170   1.487  13.250 -1.6264  0.0967 -1.1333
   59DOPE   C23 7518   6.785   1.452  13.139 -0.1561 -0.0378  0.2160
   59DOPE   H3R 7519   6.740   1.552  13.158 -1.0359 -0.4597  0.4252
   59DOPE   H3S 7520   6.849   1.464  13.049 -0.0342 -2.6375 -0.1259
   59DOPE   C24 7521   6.886   1.421  13.254  0.2120 -0.3054  0.1823
   59DOPE   H4R 7522   6.955   1.507  13.254  0.4991 -0.5328  0.6130
   59DOPE   H4S 7523   6.942   1.326  13.240 -1.1303 -0.9909 -0.7637
   59DOPE   C25 7524   6.821   1.423  13.389  0.0244 -0.8293  0.8677
   59DOPE   H5R 7525   6.752   1.337  13.405 -2.0696 -0.1966 -3.3293
   59DOPE   H5S 7526   6.762   1.517  13.390  0.1127 -0.7703  0.6195
   59DOPE   C26 7527   6.927   1.423  13.501 -0.5413 -0.5462 -0.1081
   59DOPE   H6R 7528   7.006   1.496  13.473  0.7380 -1.2691  1.3914
   59DOPE   H6S 7529   6.986   1.329  13.514 -0.0608 -0.1136  0.9175
   59DOPE   C27 7530   6.863   1.469  13.630 -0.0683 -0.6225  0.3915
   59DOPE   H7R 7531   6.770   1.412  13.649 -0.2905 -0.5652 -0.4575
   59DOPE   H7S 7532   6.831   1.575  13.617  0.8727 -0.5532 -1.7733
   59DOPE   C28 7533   6.949   1.453  13.750 -0.1421  0.5245 -0.1188
   59DOPE   H8R 7534   6.894   1.504  13.832  1.2686  1.9179 -0.0105
   59DOPE   H8S 7535   7.039   1.515  13.734 -1.3255  2.4580  0.3958
   59DOPE   C29 7536   7.000   1.311  13.788 -1.2778 -0.2400 -0.1239
   59DOPE   H9R 7537   7.047   1.252  13.708 -1.3170 -1.1164  0.4927
   59DOPE  C210 7538   7.023   1.272  13.913  0.3543  0.5563  1.0905
   59DOPE  H10R 7539   7.058   1.169  13.927  0.4964 -0.0437 -2.6931
   59DOPE  C211 7540   6.995   1.343  14.044  0.1135  0.0379  0.4840
   59DOPE  H11R 7541   6.903   1.293  14.082  0.2218  0.0288  0.7380
   59DOPE  H11S 7542   6.968   1.450  14.041 -0.6402 -0.0285  2.8370
   59DOPE  C212 7543   7.104   1.325  14.148  0.1043  0.2528 -0.3385
   59DOPE  H12R 7544   7.197   1.379  14.121  0.9004 -0.4443  0.8994
   59DOPE  H12S 7545   7.136   1.221  14.172  0.6144 -0.0145 -2.0135
   59DOPE  C213 7546   7.040   1.386  14.281 -0.4437  0.7718 -0.1346
   59DOPE  H13R 7547   6.952   1.331  14.320  1.9236 -0.9820  3.1612
   59DOPE  H13S 7548   7.010   1.490  14.254  1.8785  0.9802 -2.3027
   59DOPE  C214 7549   7.143   1.402  14.402 -0.3453  0.0481 -0.0728
   59DOPE  H14R 7550   7.238   1.444  14.363 -1.1025  1.6244 -0.2818
   59DOPE  H14S 7551   7.165   1.300  14.441 -0.0189  0.5623  1.1277
   59DOPE  C215 7552   7.081   1.468  14.520 -0.0757 -0.5290  0.4660
   59DOPE  H15R 7553   6.986   1.412  14.538 -1.2637  0.5720 -1.9107
   59DOPE  H15S 7554   7.047   1.567  14.483 -3.6383 -2.3778 -1.7407
   59DOPE  C216 7555   7.170   1.482  14.637 -1.1158  0.3575 -0.4009
   59DOPE  H16R 7556   7.235   1.569  14.617 -2.3509  0.9499 -2.0974
   59DOPE  H16S 7557   7.236   1.392  14.640  0.7262  1.6043 -1.9153
   59DOPE  C217 7558   7.090   1.497  14.763  0.0214  0.2536  0.4370
   59DOPE  H17R 7559   7.035   1.401  14.775  0.5829 -0.1047  0.1882
   59DOPE  H17S 7560   7.013   1.577  14.757  1.1857  1.6681  2.8330
   59DOPE  C218 7561   7.176   1.522  14.887  0.4350 -0.6231 -0.3688
   59DOPE  H18R 7562   7.134   1.472  14.977 -0.1468 -0.1748 -0.3826
   59DOPE  H18S 7563   7.186   1.632  14.899 -2.0061 -0.4610  0.8676
   59DOPE  H18T 7564   7.277   1.479  14.876  0.6483 -0.9671  2.2552
   59DOPE   C33 7565   6.054   1.376  13.398 -0.2810  0.4463  0.4952
   59DOPE   H3X 7566   6.056   1.275  13.445  0.9275  0.4283  0.4395
   59DOPE   H3Y 7567   5.959   1.383  13.342 -0.3298 -3.5987 -0.2304
   59DOPE   C34 7568   6.066   1.466  13.519 -0.6489 -0.1652  0.2720
   59DOPE   H4X 7569   6.118   1.561  13.496  0.9471 -0.6708  1.5769
   59DOPE   H4Y 7570   5.965   1.502  13.544  0.5127  3.9009 -0.2370
   59DOPE   C35 7571   6.135   1.406  13.640 -1.2493  0.0929 -0.1694
   59DOPE   H5X 7572   6.242   1.393  13.612 -1.7823  1.0518 -2.9862
   59DOPE   H5Y 7573   6.105   1.301  13.663 -0.6409  0.0812  0.6096
   59DOPE   C36 7574   6.118   1.494  13.762  0.2415  0.0517 -0.2718
   59DOPE   H6X 7575   6.009   1.515  13.772  0.1184 -0.4094 -0.6080
   59DOPE   H6Y 7576   6.183   1.584  13.753 -0.5077  0.8591  1.7796
   59DOPE   C37 7577   6.158   1.411  13.888  0.4186  0.1425 -0.4253
   59DOPE   H7X 7578   6.124   1.306  13.876  0.7306  0.3008 -3.4269
   59DOPE   H7Y 7579   6.267   1.411  13.911  0.4052 -2.9503  0.0379
   59DOPE   C38 7580   6.092   1.478  14.004 -0.1130  0.7587 -0.3535
   59DOPE   H8X 7581   6.098   1.407  14.089  3.5333 -1.1758 -1.9902
   59DOPE   H8Y 7582   5.985   1.493  13.976 -0.4611  1.8235  1.4203
   59DOPE   C39 7583   6.156   1.614  14.050  0.4044 -0.6531 -0.1884
   59DOPE   H9X 7584   6.169   1.686  13.968 -2.1550  2.0994  1.6083
   59DOPE  C310 7585   6.195   1.652  14.175 -0.3248 -0.1701  0.3803
   59DOPE  H10X 7586   6.241   1.752  14.183  2.2749 -1.1556 -0.9227
   59DOPE  C311 7587   6.183   1.568  14.298  0.2935  0.1051 -0.3724
   59DOPE  H11X 7588   6.114   1.482  14.290  2.3327 -1.8623  1.5971
   59DOPE  H11Y 7589   6.280   1.517  14.316 -0.2083 -1.3433 -1.6011
   59DOPE  C312 7590   6.140   1.647  14.419  0.5784  0.0246  0.1417
   59DOPE  H12X 7591   6.039   1.691  14.402  1.1894  1.5296  0.2777
   59DOPE  H12Y 7592   6.205   1.734  14.442 -2.5126  3.0195 -1.3722
   59DOPE  C313 7593   6.124   1.556  14.542  0.2924 -0.4922  0.1236
   59DOPE  H13X 7594   6.036   1.491  14.520  1.2257 -1.2368 -1.6633
   59DOPE  H13Y 7595   6.217   1.495  14.552 -0.9128 -2.2077  1.3599
   59DOPE  C314 7596   6.094   1.613  14.681  0.2837 -0.3094  0.0071
   59DOPE  H14X 7597   6.004   1.677  14.673 -0.2443 -0.6950  2.2900
   59DOPE  H14Y 7598   6.171   1.684  14.716 -0.4543  1.7562 -2.2635
   59DOPE  C315 7599   6.063   1.513  14.792 -0.5008  0.4391 -0.5957
   59DOPE  H15X 7600   6.144   1.437  14.791 -0.1054  0.8252  0.5523
   59DOPE  H15Y 7601   5.973   1.456  14.761 -2.2630  3.2947 -1.0861
   59DOPE  C316 7602   6.034   1.588  14.927  0.9756  0.3459 -0.3699
   59DOPE  H16X 7603   5.948   1.655  14.906 -0.6572 -1.6346 -0.4390
   59DOPE  H16Y 7604   6.122   1.651  14.950  1.4360 -0.7534  1.0612
   59DOPE  C317 7605   6.000   1.504  15.047 -0.6229  0.3335 -0.3093
   59DOPE  H17X 7606   6.006   1.570  15.136  1.2511 -0.9282  0.5835
   59DOPE  H17Y 7607   5.896   1.467  15.034 -1.5386  2.1285  1.3368
   59DOPE  C318 7608   6.088   1.383  15.086 -0.0629  0.0792  0.9624
   59DOPE  H18X 7609   6.048   1.319  15.168 -3.2156 -1.3334 -1.4177
   59DOPE  H18Y 7610   6.089   1.313  14.999  0.3789 -0.1817  1.1720
   59DOPE  H18Z 7611   6.196   1.403  15.097  0.5925 -2.3096 -0.2610
   60DOPE     N 7612   5.841   0.174  12.887  0.5681 -0.0222 -0.0673
   60DOPE   HN1 7613   5.741   0.154  12.867  1.0205 -0.6145 -1.8919
   60DOPE   HN2 7614   5.875   0.244  12.819 -0.3442  0.2414 -0.2568
   60DOPE   HN3 7615   5.899   0.088  12.879  0.9668  0.3594 -1.4061
   60DOPE   C12 7616   5.871   0.226  13.021 -0.3552 -0.1330 -0.5673
   60DOPE  H12A 7617   5.828   0.157  13.096 -0.2959 -0.9350 -1.2523
   60DOPE  H12B 7618   5.828   0.329  13.032 -2.5584 -1.1976  1.9576
   60DOPE   C11 7619   6.020   0.230  13.057  0.1934 -0.7641  0.0632
   60DOPE  H11A 7620   6.014   0.255  13.165  1.6805 -2.9579  0.7188
   60DOPE  H11B 7621   6.059   0.314  12.995 -1.0498  0.1451  0.4576
   60DOPE     P 7622   6.221   0.079  12.960  0.3299  0.3820  0.5115
   60DOPE   O13 7623   6.185   0.063  12.821  0.0402  0.6478  0.1776
   60DOPE   O14 7624   6.287  -0.031  13.031 -0.8089 -0.3028 -0.0945
   60DOPE   O11 7625   6.309   0.210  12.972  0.1342  0.3070 -0.2228
   60DOPE   O12 7626   6.083   0.105  13.033 -0.1780  0.0860  0.0870
   60DOPE    C1 7627   6.418   0.225  13.062 -0.4525 -0.4099 -0.3811
   60DOPE    HA 7628   6.488   0.292  13.008 -1.9761 -0.4703 -2.5724
   60DOPE    HB 7629   6.468   0.129  13.085 -1.1342 -0.9737 -1.1814
   60DOPE    C2 7630   6.381   0.298  13.190  0.2872 -0.9359  0.1550
   60DOPE    HS 7631   6.471   0.314  13.255 -0.4293  0.6931  0.8078
   60DOPE   O21 7632   6.286   0.225  13.259  0.4184 -0.1118  0.3535
   60DOPE   C21 7633   6.336   0.112  13.318 -0.3400  0.3507  0.4617
   60DOPE   O22 7634   6.454   0.091  13.332 -0.6052 -0.9300  0.2719
   60DOPE   C22 7635   6.229   0.015  13.362  0.6233 -0.5923  0.6060
   60DOPE   H2R 7636   6.280  -0.061  13.425  1.2417 -0.2478  0.5312
   60DOPE   H2S 7637   6.193  -0.035  13.269  2.1248  2.4233 -1.7835
   60DOPE    C3 7638   6.326   0.435  13.154  0.1921 -1.0990  0.1919
   60DOPE    HX 7639   6.237   0.426  13.089  0.0578 -1.0347  0.3659
   60DOPE    HY 7640   6.400   0.480  13.085 -1.3902 -0.1119 -0.9272
   60DOPE   O31 7641   6.303   0.516  13.269 -0.2592 -0.0124  0.3005
   60DOPE   C31 7642   6.290   0.643  13.244 -0.4156 -0.4118 -0.0993
   60DOPE   O32 7643   6.279   0.692  13.129 -0.3585 -0.0140  0.1354
   60DOPE   C32 7644   6.279   0.725  13.370  0.2561 -0.5979 -0.4739
   60DOPE   H2X 7645   6.196   0.680  13.428 -1.5983  2.6922 -0.3355
   60DOPE   H2Y 7646   6.374   0.725  13.427 -0.2904 -1.3432  0.4772
   60DOPE   C23 7647   6.115   0.087  13.439  0.1844  0.0472  0.3792
   60DOPE   H3R 7648   6.050   0.149  13.374  0.9040  1.4484  0.9359
   60DOPE   H3S 7649   6.170   0.156  13.507 -1.1706  0.1483  1.4015
   60DOPE   C24 7650   6.027  -0.013  13.506 -1.1356  0.2288 -0.0473
   60DOPE   H4R 7651   6.083  -0.057  13.592 -0.0551  0.7395 -0.4690
   60DOPE   H4S 7652   5.994  -0.094  13.438  0.5807 -0.6588  0.1190
   60DOPE   C25 7653   5.905   0.049  13.578 -0.1186  0.7860 -0.3090
   60DOPE   H5R 7654   5.870   0.141  13.525 -1.8357 -0.4908 -1.5042
   60DOPE   H5S 7655   5.945   0.089  13.674  2.0483 -2.5211  0.3231
   60DOPE   C26 7656   5.800  -0.050  13.619  0.3410 -0.5558 -0.4344
   60DOPE   H6R 7657   5.841  -0.136  13.676 -1.5161 -1.7022 -0.7250
   60DOPE   H6S 7658   5.756  -0.101  13.530  0.0796  1.5662 -1.6085
   60DOPE   C27 7659   5.690   0.006  13.705  0.7596 -0.3958 -0.0321
   60DOPE   H7R 7660   5.607   0.058  13.652 -0.9852 -0.4345  2.4600
   60DOPE   H7S 7661   5.729   0.092  13.764 -0.0531  0.4396 -0.6676
   60DOPE   C28 7662   5.628  -0.093  13.808 -0.3232  0.0097 -0.0253
   60DOPE   H8R 7663   5.705  -0.134  13.876 -1.1600  0.1286  1.0336
   60DOPE   H8S 7664   5.588  -0.183  13.755 -0.2224  0.2591 -0.5247
   60DOPE   C29 7665   5.519  -0.033  13.888  0.5526 -0.9746  0.3440
   60DOPE   H9R 7666   5.451   0.028  13.827  1.8918 -0.2774 -0.5054
   60DOPE  C210 7667   5.493  -0.027  14.017 -0.0415 -0.1903 -0.2916
   60DOPE  H10R 7668   5.406   0.026  14.058 -0.8324 -0.6009 -1.3876
   60DOPE  C211 7669   5.553  -0.106  14.132  0.2704 -0.4434  0.1161
   60DOPE  H11R 7670   5.660  -0.130  14.116  0.3104  1.2293 -2.9527
   60DOPE  H11S 7671   5.512  -0.207  14.151 -0.5688 -0.3639 -1.1684
   60DOPE  C212 7672   5.539  -0.025  14.260 -0.0566 -0.3907 -0.0134
   60DOPE  H12R 7673   5.436  -0.030  14.300 -0.4544  1.9682 -0.6188
   60DOPE  H12S 7674   5.562   0.082  14.243 -0.5119 -0.4246 -0.8896
   60DOPE  C213 7675   5.636  -0.076  14.368  0.1002 -0.8943 -0.0517
   60DOPE  H13R 7676   5.741  -0.074  14.334 -0.7033 -0.0375 -2.6627
   60DOPE  H13S 7677   5.599  -0.179  14.391 -0.4382 -0.7190 -0.1164
   60DOPE  C214 7678   5.621   0.008  14.501  0.0117 -0.4076 -0.1787
   60DOPE  H14R 7679   5.659   0.107  14.469 -0.2662 -0.7736 -1.6983
   60DOPE  H14S 7680   5.683  -0.032  14.584 -0.5304 -1.4866 -0.2831
   60DOPE  C215 7681   5.480   0.035  14.555 -0.2468  0.5501 -0.4794
   60DOPE  H15R 7682   5.432  -0.065  14.562  1.0383 -0.2996 -2.8207
   60DOPE  H15S 7683   5.414   0.099  14.494 -1.0922 -2.3584 -2.8600
   60DOPE  C216 7684   5.484   0.061  14.702  1.0350  0.3312 -0.1136
   60DOPE  H16R 7685   5.532   0.158  14.729 -1.4192  1.5121  0.2690
   60DOPE  H16S 7686   5.541  -0.014  14.761 -0.2593 -1.2127 -0.7374
   60DOPE  C217 7687   5.346   0.063  14.760  0.4828  0.5292 -1.3041
   60DOPE  H17R 7688   5.300  -0.037  14.745 -2.0218  1.2566  0.7842
   60DOPE  H17S 7689   5.289   0.147  14.716  0.4049 -0.3338 -2.9201
   60DOPE  C218 7690   5.342   0.080  14.919  0.2156  0.3015 -0.2053
   60DOPE  H18R 7691   5.425   0.147  14.951  0.9379 -0.4334 -0.4940
   60DOPE  H18S 7692   5.350  -0.014  14.977  0.2053  0.3637 -0.1017
   60DOPE  H18T 7693   5.244   0.121  14.951 -0.4562 -1.0570 -0.4490
   60DOPE   C33 7694   6.231   0.869  13.347 -0.2981  0.1864 -0.7616
   60DOPE   H3X 7695   6.127   0.872  13.309  0.0762 -0.4470 -1.8727
   60DOPE   H3Y 7696   6.293   0.920  13.270 -1.0625  1.0886 -0.7876
   60DOPE   C34 7697   6.238   0.948  13.484  0.0256  0.1090  0.1074
   60DOPE   H4X 7698   6.161   1.028  13.489  0.6554  1.0883 -3.2269
   60DOPE   H4Y 7699   6.217   0.878  13.568  0.7779  2.2150  2.1712
   60DOPE   C35 7700   6.368   1.017  13.522 -0.1815  0.0607  0.0614
   60DOPE   H5X 7701   6.388   1.092  13.443 -1.8779 -0.6595 -1.1003
   60DOPE   H5Y 7702   6.460   0.954  13.526 -1.1138 -1.3402  0.0305
   60DOPE   C36 7703   6.364   1.096  13.647  0.3390  0.5415 -0.2723
   60DOPE   H6X 7704   6.302   1.188  13.641 -0.2058  0.1699 -0.3490
   60DOPE   H6Y 7705   6.468   1.128  13.672  0.5302 -0.4390  0.2433
   60DOPE   C37 7706   6.311   1.016  13.769  0.2348  0.5090  0.0583
   60DOPE   H7X 7707   6.209   0.976  13.750  0.9258 -2.3289  1.7577
   60DOPE   H7Y 7708   6.373   0.925  13.781 -0.8054  0.0455  2.4149
   60DOPE   C38 7709   6.328   1.097  13.900 -0.6016 -0.1946 -0.0804
   60DOPE   H8X 7710   6.333   1.206  13.884  2.6046 -0.1965  0.2308
   60DOPE   H8Y 7711   6.427   1.077  13.947 -0.7974  0.1842  0.5147
   60DOPE   C39 7712   6.226   1.048  13.998  0.6189 -0.3777  0.6074
   60DOPE   H9X 7713   6.125   1.086  13.975  0.6001 -1.1952 -0.7774
   60DOPE  C310 7714   6.238   0.979  14.112  0.7784  0.5341 -0.0156
   60DOPE  H10X 7715   6.150   0.949  14.170  0.4520 -2.0172 -1.6864
   60DOPE  C311 7716   6.371   0.925  14.161 -0.0162 -0.4041 -0.1125
   60DOPE  H11X 7717   6.430   1.018  14.174  1.3959 -1.5140  2.0651
   60DOPE  H11Y 7718   6.371   0.899  14.269  0.3050  0.8435  0.2102
   60DOPE  C312 7719   6.447   0.823  14.077 -0.5927 -0.1980 -0.7060
   60DOPE  H12X 7720   6.550   0.812  14.117 -1.0034 -0.9544  0.1631
   60DOPE  H12Y 7721   6.468   0.857  13.973  1.5912  1.1420  0.1204
   60DOPE  C313 7722   6.381   0.686  14.085 -0.1061  0.4145  0.0082
   60DOPE  H13X 7723   6.396   0.652  14.189  1.6353  0.1215 -0.2934
   60DOPE  H13Y 7724   6.273   0.700  14.067 -0.0792  0.7134  0.0802
   60DOPE  C314 7725   6.447   0.575  13.995  0.0685  0.8203 -0.2723
   60DOPE  H14X 7726   6.408   0.473  14.015  2.6991 -0.5594 -1.6629
   60DOPE  H14Y 7727   6.556   0.569  14.016 -0.2716 -0.8280  1.2466
   60DOPE  C315 7728   6.425   0.608  13.847  0.6812  0.4914  0.8221
   60DOPE  H15X 7729   6.454   0.714  13.834  1.5353  0.3818  1.6837
   60DOPE  H15Y 7730   6.316   0.595  13.835  0.7844  1.1708 -1.2328
   60DOPE  C316 7731   6.496   0.514  13.748  0.0598 -0.5401 -0.2237
   60DOPE  H16X 7732   6.471   0.406  13.756 -0.1517 -0.5540 -0.9642
   60DOPE  H16Y 7733   6.604   0.514  13.775  0.7362 -0.1584 -2.7055
   60DOPE  C317 7734   6.475   0.552  13.600  0.0095 -1.1583 -0.7350
   60DOPE  H17X 7735   6.369   0.532  13.575 -0.2616 -0.3427 -0.2702
   60DOPE  H17Y 7736   6.493   0.661  13.595 -0.3185 -1.1506 -2.2655
   60DOPE  C318 7737   6.567   0.486  13.496  0.4696 -0.6113 -0.1006
   60DOPE  H18X 7738   6.558   0.375  13.504 -0.5178 -0.4642  1.1719
   60DOPE  H18Y 7739   6.544   0.530  13.397  1.2828  2.1884  0.8476
   60DOPE  H18Z 7740   6.673   0.516  13.510  0.2885 -0.2778  0.6329
   6123SM     N 7741   2.635   5.447  17.821  0.0587  0.7523 -0.5754
   6123SM   C15 7742   2.780   5.409  17.801 -0.0204  0.0679 -0.6547
   6123SM  H15A 7743   2.836   5.422  17.893  0.1473  1.4378 -0.9314
   6123SM  H15B 7744   2.834   5.473  17.734 -0.0209 -0.6293 -1.3399
   6123SM  H15C 7745   2.798   5.306  17.774  0.9204 -0.4531  1.7099
   6123SM   C14 7746   2.566   5.339  17.905  0.3682 -0.4028 -0.3392
   6123SM  H14A 7747   2.463   5.362  17.927  0.4508  0.1871 -0.5502
   6123SM  H14B 7748   2.621   5.312  17.994  0.2553  0.3077 -0.0478
   6123SM  H14C 7749   2.548   5.247  17.850 -1.5941 -0.5412  0.4687
   6123SM   C13 7750   2.644   5.573  17.907  0.5248 -0.2027 -0.6188
   6123SM  H13A 7751   2.669   5.661  17.849 -2.7104  0.1353 -1.6770
   6123SM  H13B 7752   2.722   5.550  17.978 -0.5948  0.0075  0.7022
   6123SM  H13C 7753   2.557   5.591  17.967 -0.3359 -0.1753 -1.8341
   6123SM   C12 7754   2.572   5.465  17.687 -0.2300 -0.0224 -0.7277
   6123SM  H12A 7755   2.617   5.551  17.639 -1.0065  1.1489  0.5788
   6123SM  H12B 7756   2.468   5.488  17.700  0.1395  0.4201  1.8983
   6123SM   C11 7757   2.566   5.356  17.580  0.4282  1.4407 -0.0715
   6123SM  H11A 7758   2.667   5.328  17.543  0.0528 -0.5913  0.2794
   6123SM  H11B 7759   2.516   5.388  17.487  0.2660  1.0375 -0.1272
   6123SM     P 7760   2.342   5.230  17.645  0.4393 -0.1714 -0.1229
   6123SM   O13 7761   2.286   5.114  17.719  0.3664 -0.3334  0.4661
   6123SM   O14 7762   2.300   5.369  17.688 -0.6987 -0.3569 -0.2919
   6123SM   O11 7763   2.306   5.212  17.494 -0.1231 -0.1220  0.3131
   6123SM   O12 7764   2.499   5.238  17.632 -0.3944  0.3718 -0.3763
   6123SM   C1S 7765   2.173   5.224  17.447  0.7381 -0.5295  0.0691
   6123SM   H1S 7766   2.112   5.295  17.507  0.2514 -1.3872  0.6207
   6123SM   H1T 7767   2.120   5.128  17.468 -0.0950 -0.4236 -1.3959
   6123SM    NF 7768   2.043   5.328  17.255 -0.3498  0.4544 -0.1468
   6123SM   HNF 7769   1.966   5.279  17.214 -2.4433  2.3162  1.3355
   6123SM   C2S 7770   2.166   5.262  17.299 -0.5547  0.3349  0.8998
   6123SM   H2S 7771   2.249   5.335  17.291  0.0962 -0.4070  0.7776
   6123SM   C3S 7772   2.203   5.140  17.206 -0.6716  0.0675 -0.9496
   6123SM   H3S 7773   2.129   5.060  17.229 -0.2882  0.5348  2.4504
   6123SM    O3 7774   2.323   5.078  17.257 -0.2918 -0.0428 -0.2707
   6123SM   HO3 7775   2.333   5.108  17.347 -0.3357  0.0600 -0.3009
   6123SM   C4S 7776   2.224   5.171  17.059 -0.1344 -0.8181  0.3955
   6123SM   H4S 7777   2.321   5.211  17.027 -0.0235 -2.7019 -1.8963
   6123SM   C5S 7778   2.138   5.145  16.960  1.3860  0.4953 -0.2370
   6123SM   H5S 7779   2.043   5.099  16.991  1.9592 -0.0607  0.7566
   6123SM   C6S 7780   2.146   5.166  16.812  0.6533  0.3367 -1.1216
   6123SM   H6S 7781   2.210   5.254  16.792  1.3217 -0.1861 -1.3070
   6123SM   H6T 7782   2.046   5.203  16.780 -0.5258 -1.7181  0.0011
   6123SM   C7S 7783   2.182   5.047  16.728  0.2998  0.0136 -0.2847
   6123SM   H7S 7784   2.112   4.967  16.758  0.9728 -0.1314  0.9429
   6123SM   H7T 7785   2.286   5.025  16.760  1.0994  1.9434 -1.3694
   6123SM   C8S 7786   2.177   5.088  16.582  0.0105 -0.3763  0.3407
   6123SM   H8S 7787   2.228   5.184  16.560 -1.9444 -0.0861 -3.7294
   6123SM   H8T 7788   2.070   5.096  16.555  0.0199  1.0660  0.6588
   6123SM   C9S 7789   2.247   4.986  16.481  0.1863 -0.5236 -0.6248
   6123SM   H9S 7790   2.210   4.882  16.487  0.2284 -0.4655  1.4105
   6123SM   H9T 7791   2.357   4.997  16.492  0.2159 -1.2182 -0.2009
   6123SM  C10S 7792   2.218   5.018  16.333  0.1005 -0.0995  0.2384
   6123SM  H10S 7793   2.247   5.124  16.313 -2.4672  0.9447  1.5608
   6123SM  H10T 7794   2.107   5.017  16.346 -0.1417 -3.1445 -1.3887
   6123SM  C11S 7795   2.267   4.923  16.231 -0.8675 -0.1565  0.7315
   6123SM  H11S 7796   2.248   4.820  16.269  1.6335 -0.4608  1.3775
   6123SM  H11T 7797   2.378   4.932  16.237 -0.6810  0.6604 -2.3896
   6123SM  C12S 7798   2.218   4.949  16.087  0.1070 -0.3449  0.9047
   6123SM  H12S 7799   2.223   5.057  16.061  1.7162 -0.4039  0.9290
   6123SM  H12T 7800   2.109   4.923  16.086  0.2508 -0.9600  0.7607
   6123SM  C13S 7801   2.311   4.862  15.998  0.7183  0.2417 -0.0966
   6123SM  H13S 7802   2.301   4.758  16.036  4.4204  0.2321  1.2959
   6123SM  H13T 7803   2.417   4.886  16.018  0.7423 -0.7949  1.1542
   6123SM  C14S 7804   2.293   4.871  15.846  0.0883 -0.2174 -0.1011
   6123SM  H14S 7805   2.331   4.967  15.803 -1.2016 -0.9351 -3.1351
   6123SM  H14T 7806   2.183   4.866  15.832  0.1993 -1.3287 -0.7201
   6123SM  C15S 7807   2.357   4.746  15.774  0.3375 -0.0275 -0.2718
   6123SM  H15S 7808   2.377   4.679  15.860  1.6758 -1.5160 -1.6668
   6123SM  H15T 7809   2.454   4.773  15.725 -0.3665 -0.8004 -2.2022
   6123SM  C16S 7810   2.258   4.678  15.672  0.1583  0.6908 -0.1873
   6123SM  H16S 7811   2.229   4.757  15.600 -3.2540 -0.1189  0.1414
   6123SM  H16T 7812   2.168   4.643  15.727  0.8004 -0.4092  0.1897
   6123SM  C17S 7813   2.319   4.573  15.584  0.0345  0.2688  0.3659
   6123SM  H17S 7814   2.377   4.503  15.649 -0.1846  0.0669  0.3431
   6123SM  H17T 7815   2.397   4.615  15.518 -0.6609 -0.1926 -0.7795
   6123SM  C18S 7816   2.213   4.499  15.503 -0.0004  0.0738  0.2879
   6123SM  H18S 7817   2.258   4.431  15.428 -0.7858  0.3116 -0.4158
   6123SM  H18T 7818   2.146   4.572  15.453 -1.5412 -1.7035 -0.3811
   6123SM  H18U 7819   2.143   4.431  15.557 -0.4438 -0.0540 -0.4340
   6123SM   C1F 7820   2.019   5.451  17.289 -0.0059  0.1039 -0.0718
   6123SM    OF 7821   2.083   5.510  17.381  0.7184  0.3407  0.4479
   6123SM   C2F 7822   1.905   5.521  17.220 -0.6580 -0.2540 -0.4791
   6123SM   H2F 7823   1.924   5.630  17.228  0.0846 -0.1935 -2.4415
   6123SM   H2G 7824   1.812   5.485  17.267  1.2711 -4.1623  0.7947
   6123SM   C3F 7825   1.897   5.472  17.071 -0.3329  0.1307  0.3455
   6123SM   H3F 7826   1.870   5.365  17.063 -0.7274  0.2983 -0.6839
   6123SM   H3G 7827   1.991   5.502  17.020 -1.3494 -0.2377 -1.8549
   6123SM   C4F 7828   1.803   5.558  16.975 -0.5103 -0.7626 -0.2419
   6123SM   H4F 7829   1.818   5.668  16.978  2.8643 -1.0987 -0.8027
   6123SM   H4G 7830   1.699   5.538  17.006 -0.3476 -0.1943  0.7183
   6123SM   C5F 7831   1.830   5.513  16.825 -0.2929  0.2465 -0.5108
   6123SM   H5F 7832   1.730   5.525  16.778 -0.8065 -0.6614  0.3059
   6123SM   H5G 7833   1.848   5.403  16.820 -2.8562 -0.2315 -1.2362
   6123SM   C6F 7834   1.930   5.602  16.750 -0.8288 -0.5605 -0.0944
   6123SM   H6F 7835   2.026   5.571  16.799  0.3341 -0.5552 -2.2690
   6123SM   H6G 7836   1.915   5.710  16.771 -0.7552 -0.4535 -0.6017
   6123SM   C7F 7837   1.946   5.584  16.599 -0.7011  0.7093 -0.3431
   6123SM   H7F 7838   2.029   5.648  16.562  0.5498 -0.1526  0.8864
   6123SM   H7G 7839   1.854   5.619  16.548 -1.1880 -0.0204  0.0281
   6123SM   C8F 7840   1.997   5.445  16.558  0.2638  0.7369  0.2309
   6123SM   H8F 7841   1.925   5.362  16.571  0.5151  0.5376  0.3554
   6123SM   H8G 7842   2.086   5.433  16.624 -0.2305  3.1497  1.4644
   6123SM   C9F 7843   2.023   5.427  16.410 -0.3817  0.5985  0.0357
   6123SM   H9F 7844   1.942   5.473  16.350 -0.4863 -0.5696 -0.7593
   6123SM   H9G 7845   2.032   5.318  16.388  0.0453  0.8683 -1.1764
   6123SM  C10F 7846   2.154   5.497  16.368 -0.3785 -0.4866 -0.4224
   6123SM  H10F 7847   2.235   5.475  16.441 -0.9460  2.4686  1.2441
   6123SM  H10G 7848   2.147   5.607  16.360  1.6006 -0.4402 -2.3997
   6123SM  C11F 7849   2.197   5.457  16.230 -0.4612 -0.1070  0.8106
   6123SM  H11F 7850   2.118   5.444  16.153  0.4294 -3.5511  0.3042
   6123SM  H11G 7851   2.235   5.353  16.240 -0.7841 -0.3253 -0.1388
   6123SM  C12F 7852   2.309   5.552  16.169 -0.2773 -0.0797  0.3910
   6123SM  H12F 7853   2.368   5.570  16.261 -2.1541 -1.1726  1.8785
   6123SM  H12G 7854   2.263   5.650  16.145 -0.1742  0.0112  0.5672
   6123SM  C13F 7855   2.389   5.487  16.051 -0.0449  0.5936 -0.2135
   6123SM  H13F 7856   2.421   5.388  16.090 -1.0394  1.3993  2.8448
   6123SM  H13G 7857   2.478   5.550  16.029  0.5790  0.1591  1.0048
   6123SM  C14F 7858   2.314   5.477  15.919  0.1294 -0.5560 -0.3707
   6123SM  H14F 7859   2.311   5.580  15.877  0.5412 -0.1246  0.6130
   6123SM  H14G 7860   2.209   5.442  15.929 -0.5704  0.7520 -2.5328
   6123SM  C15F 7861   2.375   5.388  15.818  0.5328 -0.1991 -0.6295
   6123SM  H15F 7862   2.384   5.279  15.837  1.5180  0.0011  0.2091
   6123SM  H15G 7863   2.484   5.410  15.806  0.8201 -0.9511  0.4132
   6123SM  C16F 7864   2.308   5.412  15.677 -1.1419  0.4634 -0.2498
   6123SM  H16F 7865   2.331   5.518  15.655 -2.4565  0.8057 -0.0355
   6123SM  H16G 7866   2.198   5.403  15.684 -1.0969  0.1637  0.1498
   6123SM  C17F 7867   2.372   5.327  15.562  0.3976 -0.3678 -0.2586
   6123SM  H17F 7868   2.328   5.225  15.562 -0.6295 -0.0124 -2.8658
   6123SM  H17G 7869   2.479   5.318  15.588  0.1903 -0.4245  0.5951
   6123SM  C18F 7870   2.345   5.387  15.428 -0.2280 -0.2476  0.1643
   6123SM  H18F 7871   2.386   5.490  15.420  0.6051 -0.3257  2.7261
   6123SM  H18G 7872   2.235   5.396  15.413  0.0357  0.4818 -1.5907
   6123SM  C19F 7873   2.397   5.299  15.323  0.8342 -0.4551  0.1441
   6123SM  H19F 7874   2.356   5.196  15.309  0.9691 -0.5787  0.6151
   6123SM  H19G 7875   2.502   5.270  15.345  1.1270 -2.3553 -3.1416
   6123SM  C20F 7876   2.390   5.376  15.187 -0.0370 -0.1884  0.0364
   6123SM  H20F 7877   2.447   5.471  15.196 -0.2991  0.3091 -2.7815
   6123SM  H20G 7878   2.289   5.400  15.146  0.6663  1.2657 -0.9350
   6123SM  C21F 7879   2.470   5.278  15.091  0.9649  0.1891 -0.5532
   6123SM  H21F 7880   2.423   5.179  15.107  0.4920  0.4733 -0.1384
   6123SM  H21G 7881   2.580   5.285  15.101  1.2405  1.6123 -3.6083
   6123SM  C22F 7882   2.440   5.322  14.945  0.1125 -0.0002 -0.4183
   6123SM  H22F 7883   2.334   5.352  14.936 -0.7315 -2.6221 -0.1146
   6123SM  H22G 7884   2.467   5.231  14.886  0.7584 -0.4136  0.4855
   6123SM  C23F 7885   2.534   5.426  14.884  0.6261  0.1034 -0.5414
   6123SM  H23F 7886   2.501   5.461  14.784  0.0703 -0.0144 -0.4056
   6123SM  H23G 7887   2.637   5.385  14.886  0.2896 -0.7590  0.9410
   6123SM  H23H 7888   2.546   5.515  14.950  0.1353  0.7795 -1.3387
   6223SM     N 7889   1.670   5.185  17.642  0.1098 -0.1636  0.2029
   6223SM   C15 7890   1.606   5.045  17.675 -0.0959  0.0786  0.2949
   6223SM  H15A 7891   1.680   4.968  17.670  0.2458  0.4905 -2.0432
   6223SM  H15B 7892   1.522   5.018  17.613 -0.7205  0.8790  0.7629
   6223SM  H15C 7893   1.582   5.046  17.781  3.6352  1.9166  1.3025
   6223SM   C14 7894   1.565   5.283  17.602  0.3416  0.1100  0.3685
   6223SM  H14A 7895   1.514   5.312  17.693  0.5154  1.3458  0.0844
   6223SM  H14B 7896   1.499   5.257  17.521 -0.4899 -1.3710  1.4661
   6223SM  H14C 7897   1.614   5.378  17.590 -2.0323  1.6649  1.9407
   6223SM   C13 7898   1.732   5.227  17.771 -0.2418 -0.4585  0.2372
   6223SM  H13A 7899   1.653   5.222  17.845 -1.0440  0.4746 -0.5199
   6223SM  H13B 7900   1.768   5.328  17.774 -0.4246 -0.2925 -1.5970
   6223SM  H13C 7901   1.811   5.163  17.806 -1.3931 -1.4109  1.1754
   6223SM   C12 7902   1.768   5.167  17.523 -0.5353  0.4875  0.1954
   6223SM  H12A 7903   1.815   5.261  17.497 -0.0303 -0.3908 -2.3876
   6223SM  H12B 7904   1.712   5.145  17.434  0.0854  1.5404 -0.4752
   6223SM   C11 7905   1.874   5.054  17.516 -0.2642 -0.5324  0.7561
   6223SM  H11A 7906   1.959   5.078  17.583 -0.0845 -0.5537  0.5359
   6223SM  H11B 7907   1.909   5.040  17.411 -0.6970  1.0610  0.3706
   6223SM     P 7908   1.893   4.804  17.569 -0.1191  0.2947 -0.1177
   6223SM   O13 7909   1.976   4.830  17.684 -0.2246  0.1955 -0.3761
   6223SM   O14 7910   1.806   4.688  17.583  0.2745 -0.3048  0.9234
   6223SM   O11 7911   1.984   4.792  17.442 -0.4811  0.4339 -0.0361
   6223SM   O12 7912   1.811   4.933  17.535  0.2730 -0.4430 -0.2600
   6223SM   C1S 7913   1.925   4.755  17.315  0.1041 -0.5942  0.4879
   6223SM   H1S 7914   1.853   4.836  17.291 -1.1211 -1.0961  2.2891
   6223SM   H1T 7915   1.861   4.665  17.313 -0.7922  0.0412 -0.8053
   6223SM    NF 7916   1.970   4.728  17.059 -0.3316 -0.0062  0.1419
   6223SM   HNF 7917   1.996   4.647  17.008 -0.4176 -0.3160  0.5822
   6223SM   C2S 7918   2.028   4.748  17.194  0.5185 -0.2305  0.1554
   6223SM   H2S 7919   2.071   4.850  17.195 -3.7638  1.8943  3.7992
   6223SM   C3S 7920   2.146   4.648  17.218  0.2015  0.0995  0.1747
   6223SM   H3S 7921   2.109   4.543  17.215  0.3617  0.0241  0.6259
   6223SM    O3 7922   2.196   4.667  17.347  0.4624 -0.1670  0.3434
   6223SM   HO3 7923   2.127   4.720  17.388 -0.3904  0.2875 -1.5303
   6223SM   C4S 7924   2.257   4.664  17.115 -0.0177 -0.0084 -0.8394
   6223SM   H4S 7925   2.276   4.573  17.055  0.6362  0.1826 -0.9325
   6223SM   C5S 7926   2.352   4.759  17.114  0.4440 -0.2848 -0.0983
   6223SM   H5S 7927   2.358   4.831  17.197  0.6459  0.3459 -0.6533
   6223SM   C6S 7928   2.472   4.751  17.022 -0.5631  0.5337  0.0167
   6223SM   H6S 7929   2.506   4.645  17.018 -0.2516  0.6794 -1.8684
   6223SM   H6T 7930   2.552   4.801  17.082  0.6568 -1.6800  0.3637
   6223SM   C7S 7931   2.451   4.807  16.885 -1.2725  0.1324  0.4263
   6223SM   H7S 7932   2.419   4.913  16.878 -0.9315  0.2376  0.4065
   6223SM   H7T 7933   2.363   4.750  16.848 -1.7873  0.1616  1.5894
   6223SM   C8S 7934   2.568   4.769  16.785  0.5351  0.5146 -0.9902
   6223SM   H8S 7935   2.566   4.657  16.784 -1.5685  0.5121 -1.8129
   6223SM   H8T 7936   2.665   4.798  16.830 -0.7170  1.5121  1.2059
   6223SM   C9S 7937   2.546   4.820  16.642 -0.2969  0.5748 -0.5899
   6223SM   H9S 7938   2.495   4.919  16.644 -0.0090  0.7225 -0.3492
   6223SM   H9T 7939   2.471   4.758  16.590 -1.7182  1.6331  0.1225
   6223SM  C10S 7940   2.678   4.819  16.563 -0.2600  0.4724 -0.2596
   6223SM  H10S 7941   2.719   4.715  16.567 -0.2695  0.4810  0.0543
   6223SM  H10T 7942   2.753   4.883  16.615 -2.9738  1.2058  3.1269
   6223SM  C11S 7943   2.651   4.869  16.416  0.1857 -0.2272 -0.1696
   6223SM  H11S 7944   2.747   4.857  16.362  0.6452 -0.6016  0.7061
   6223SM  H11T 7945   2.616   4.974  16.411  0.0367 -0.2749 -0.1177
   6223SM  C12S 7946   2.563   4.775  16.334 -0.5403 -0.2813  0.5441
   6223SM  H12S 7947   2.526   4.823  16.241 -2.4447 -2.6087 -0.0055
   6223SM  H12T 7948   2.472   4.744  16.391 -0.8573 -2.5215 -1.0582
   6223SM  C13S 7949   2.631   4.640  16.293  0.2487 -0.5810  0.4541
   6223SM  H13S 7950   2.551   4.563  16.283 -2.4471  1.8829  1.4537
   6223SM  H13T 7951   2.700   4.610  16.375  3.3744  0.1340 -1.7349
   6223SM  C14S 7952   2.707   4.651  16.164  0.4319  0.1707  0.5351
   6223SM  H14S 7953   2.778   4.568  16.144 -1.7118 -1.6964  0.3496
   6223SM  H14T 7954   2.763   4.747  16.152  1.2247 -0.5326 -2.1527
   6223SM  C15S 7955   2.612   4.644  16.038 -0.1016 -0.2409 -0.4259
   6223SM  H15S 7956   2.516   4.699  16.052 -0.5734 -0.9705 -0.7053
   6223SM  H15T 7957   2.584   4.538  16.020 -1.5638  0.1115 -0.3769
   6223SM  C16S 7958   2.693   4.694  15.917 -0.1141 -0.0050 -0.3890
   6223SM  H16S 7959   2.792   4.734  15.948 -1.1283  2.9723 -0.6346
   6223SM  H16T 7960   2.633   4.780  15.880 -0.7020 -0.7280 -1.1699
   6223SM  C17S 7961   2.689   4.589  15.808 -0.5355 -0.2831  0.0805
   6223SM  H17S 7962   2.587   4.551  15.786 -0.2010 -1.8080  1.0102
   6223SM  H17T 7963   2.748   4.504  15.848 -0.1491 -0.1469 -0.2015
   6223SM  C18S 7964   2.746   4.631  15.671  0.3041 -0.0065  0.4205
   6223SM  H18S 7965   2.681   4.711  15.630 -1.0437  0.1514  2.7177
   6223SM  H18T 7966   2.746   4.547  15.599 -2.2054 -0.2599  0.6284
   6223SM  H18U 7967   2.850   4.665  15.691  0.5025 -0.0916 -0.4245
   6223SM   C1F 7968   1.885   4.815  17.006 -0.9378 -0.5308  0.2265
   6223SM    OF 7969   1.836   4.905  17.068  0.0853 -0.2904 -0.6132
   6223SM   C2F 7970   1.865   4.797  16.853  0.0276  0.3120  0.5540
   6223SM   H2F 7971   1.869   4.687  16.841  0.2638  0.2257  1.3891
   6223SM   H2G 7972   1.957   4.843  16.812 -0.2202  0.1257 -0.2329
   6223SM   C3F 7973   1.748   4.854  16.784 -0.2376  0.2180  0.2708
   6223SM   H3F 7974   1.770   4.960  16.761  0.6607  0.3730  1.7325
   6223SM   H3G 7975   1.654   4.848  16.843 -1.4821 -1.1420 -1.7131
   6223SM   C4F 7976   1.734   4.780  16.649 -0.3862  0.5485  0.1242
   6223SM   H4F 7977   1.639   4.808  16.599 -0.5261 -0.5957 -0.2794
   6223SM   H4G 7978   1.714   4.674  16.677 -1.5693  0.3973 -1.2034
   6223SM   C5F 7979   1.854   4.775  16.548 -0.3981  0.5587 -0.0960
   6223SM   H5F 7980   1.946   4.728  16.588 -0.6836  0.9004  1.0008
   6223SM   H5G 7981   1.885   4.881  16.532  3.1603 -0.1196  1.5207
   6223SM   C6F 7982   1.824   4.705  16.420  0.0122  0.2718 -0.3364
   6223SM   H6F 7983   1.730   4.735  16.369 -0.9259 -2.0637 -0.1242
   6223SM   H6G 7984   1.794   4.602  16.448 -0.6846  0.7380  0.6886
   6223SM   C7F 7985   1.933   4.721  16.312  0.2484 -0.2896 -0.1477
   6223SM   H7F 7986   2.023   4.676  16.358 -1.5716 -2.9019  1.0997
   6223SM   H7G 7987   1.946   4.832  16.313  1.6827 -0.4162  1.6876
   6223SM   C8F 7988   1.913   4.651  16.183 -0.3504  0.3940  0.0158
   6223SM   H8F 7989   1.882   4.545  16.198 -0.0179  0.1037 -1.2118
   6223SM   H8G 7990   2.015   4.642  16.140 -0.0604 -1.9725  1.0050
   6223SM   C9F 7991   1.821   4.732  16.089 -0.1245 -0.3874  0.5007
   6223SM   H9F 7992   1.867   4.830  16.064  0.0693 -1.1828 -2.5775
   6223SM   H9G 7993   1.727   4.739  16.148 -1.1162 -1.5571 -0.8672
   6223SM  C10F 7994   1.800   4.661  15.952  0.9432  0.7503  0.0924
   6223SM  H10F 7995   1.716   4.709  15.896  0.0210 -0.8402  0.0623
   6223SM  H10G 7996   1.746   4.565  15.965  1.3731  0.5905  0.7222
   6223SM  C11F 7997   1.922   4.644  15.858  0.7686 -1.1385  0.1275
   6223SM  H11F 7998   1.994   4.583  15.917  0.1197  0.3316  2.6256
   6223SM  H11G 7999   1.967   4.744  15.841 -2.2434  0.7027  1.9345
   6223SM  C12F 8000   1.881   4.592  15.723 -0.5448  0.1320 -0.5495
   6223SM  H12F 8001   1.965   4.614  15.653  1.1304 -0.7975  1.0640
   6223SM  H12G 8002   1.798   4.650  15.677 -0.6626  1.1158  0.8391
   6223SM  C13F 8003   1.857   4.442  15.704  0.5784  0.1422  0.6044
   6223SM  H13F 8004   1.783   4.417  15.783 -0.6129  1.9674  0.1427
   6223SM  H13G 8005   1.953   4.391  15.727  0.9432  0.8486  0.6863
   6223SM  C14F 8006   1.805   4.407  15.565 -0.3135 -0.1044 -0.2903
   6223SM  H14F 8007   1.879   4.434  15.486 -0.0765 -1.0554 -0.4110
   6223SM  H14G 8008   1.710   4.458  15.538 -0.4693 -0.5999 -0.7124
   6223SM  C15F 8009   1.773   4.257  15.558 -0.0069  0.3243  0.3187
   6223SM  H15F 8010   1.688   4.219  15.619 -0.2743  1.0447  0.3999
   6223SM  H15G 8011   1.852   4.186  15.592 -1.2560  0.1847  3.2769
   6223SM  C16F 8012   1.741   4.217  15.416  0.0933  0.0873 -0.4096
   6223SM  H16F 8013   1.663   4.287  15.380  1.0103  1.6864  0.5424
   6223SM  H16G 8014   1.696   4.116  15.419 -0.8207  0.4966  1.4586
   6223SM  C17F 8015   1.859   4.211  15.318  0.1845 -0.2396 -0.1141
   6223SM  H17F 8016   1.935   4.148  15.370  0.0558 -0.6440 -0.4108
   6223SM  H17G 8017   1.894   4.312  15.288  0.9168 -0.9106 -1.5774
   6223SM  C18F 8018   1.818   4.138  15.194 -0.6747 -0.4616  0.5514
   6223SM  H18F 8019   1.792   4.033  15.219  0.0242 -0.9426 -0.6367
   6223SM  H18G 8020   1.911   4.126  15.135 -0.3856 -0.6914  1.0485
   6223SM  C19F 8021   1.714   4.205  15.106  0.4486 -0.2888 -0.4087
   6223SM  H19F 8022   1.749   4.298  15.055 -0.3758 -0.3767 -1.1484
   6223SM  H19G 8023   1.632   4.241  15.172  1.7195  2.8083 -0.3214
   6223SM  C20F 8024   1.652   4.117  14.996 -0.4270  0.0443  0.4044
   6223SM  H20F 8025   1.618   4.025  15.048  2.1799 -0.2362  1.7761
   6223SM  H20G 8026   1.727   4.104  14.915 -0.1010  1.5324  0.4512
   6223SM  C21F 8027   1.531   4.195  14.941  0.5521  0.0951  1.0052
   6223SM  H21F 8028   1.558   4.291  14.892 -0.7928  0.2558  0.5628
   6223SM  H21G 8029   1.466   4.225  15.026 -1.9015 -0.9949 -0.3893
   6223SM  C22F 8030   1.441   4.119  14.841 -0.7972  0.3541  0.0820
   6223SM  H22F 8031   1.429   4.016  14.878 -0.1167  1.3760  3.4962
   6223SM  H22G 8032   1.489   4.121  14.741 -0.4401  0.0850  0.2464
   6223SM  C23F 8033   1.293   4.161  14.836 -0.5154  0.0406  0.0849
   6223SM  H23F 8034   1.244   4.102  14.756 -0.9973  0.1962  0.2612
   6223SM  H23G 8035   1.287   4.271  14.820  3.9474  0.4743  0.1788
   6223SM  H23H 8036   1.235   4.143  14.929  0.5858 -1.0659  0.5767
   6323SM     N 8037   4.325   6.385  17.275 -0.3580 -0.0968 -0.2204
   6323SM   C15 8038   4.471   6.400  17.302 -0.3887 -0.8941  0.0898
   6323SM  H15A 8039   4.529   6.324  17.251 -0.0592 -0.2296 -0.5386
   6323SM  H15B 8040   4.494   6.400  17.407 -0.5951  0.2827  0.1508
   6323SM  H15C 8041   4.509   6.497  17.272 -0.9637 -0.7539 -0.2021
   6323SM   C14 8042   4.245   6.499  17.337  0.6229 -0.0619 -0.6907
   6323SM  H14A 8043   4.248   6.600  17.299 -2.2553 -0.1903 -1.5115
   6323SM  H14B 8044   4.260   6.502  17.444 -3.0385 -1.7192  0.0399
   6323SM  H14C 8045   4.142   6.466  17.329  0.3884  0.8781 -1.8745
   6323SM   C13 8046   4.310   6.396  17.131 -0.5186 -0.2940 -0.1145
   6323SM  H13A 8047   4.347   6.488  17.088  1.7914 -0.8397  0.5620
   6323SM  H13B 8048   4.204   6.396  17.107 -0.3860  0.6982 -0.7775
   6323SM  H13C 8049   4.358   6.313  17.080 -1.2778 -1.1299  0.4904
   6323SM   C12 8050   4.267   6.258  17.332 -0.5762  0.0911  0.4302
   6323SM  H12A 8051   4.261   6.265  17.440  2.5420  1.6752  0.6062
   6323SM  H12B 8052   4.313   6.165  17.305 -0.3714  0.4787 -0.5862
   6323SM   C11 8053   4.119   6.233  17.280 -0.1350  0.3009  0.6020
   6323SM  H11A 8054   4.107   6.125  17.302  0.2376  0.3372  1.0040
   6323SM  H11B 8055   4.121   6.246  17.170 -0.5619 -1.8548  0.3099
   6323SM     P 8056   3.917   6.247  17.443 -0.4640 -0.2553 -0.0014
   6323SM   O13 8057   3.997   6.189  17.555 -0.5364  0.0299  0.7991
   6323SM   O14 8058   3.804   6.339  17.477 -0.3825  0.8942  0.5899
   6323SM   O11 8059   3.864   6.123  17.358  0.1460 -0.3299 -0.5639
   6323SM   O12 8060   4.018   6.320  17.340  0.2003  0.2637  0.4504
   6323SM   C1S 8061   3.785   6.154  17.244  0.0031  0.1720  0.3530
   6323SM   H1S 8062   3.842   6.204  17.162 -0.5629 -1.4868 -1.1244
   6323SM   H1T 8063   3.701   6.221  17.273  0.6991  1.0167  0.4748
   6323SM    NF 8064   3.649   6.062  17.054 -0.0112  0.0915 -0.2584
   6323SM   HNF 8065   3.550   6.073  17.052  0.1010  1.6542  0.8004
   6323SM   C2S 8066   3.714   6.026  17.179  0.4050 -0.5700 -0.0280
   6323SM   H2S 8067   3.799   5.957  17.161 -1.0737 -1.9167 -2.3068
   6323SM   C3S 8068   3.620   5.968  17.288 -0.1642 -0.4630 -0.0098
   6323SM   H3S 8069   3.559   6.052  17.326 -0.1981 -0.3574 -0.2987
   6323SM    O3 8070   3.683   5.932  17.410  0.4210 -0.0717  0.6646
   6323SM   HO3 8071   3.772   5.967  17.403  0.6222 -0.7242 -0.3911
   6323SM   C4S 8072   3.547   5.851  17.231  0.5771  0.2559 -0.5160
   6323SM   H4S 8073   3.614   5.776  17.185  0.5962 -1.3184  1.9337
   6323SM   C5S 8074   3.411   5.834  17.229 -0.0941 -0.3205 -0.3534
   6323SM   H5S 8075   3.348   5.920  17.258 -1.5543 -1.2124 -0.7948
   6323SM   C6S 8076   3.334   5.719  17.160  0.1106 -0.0157 -0.5089
   6323SM   H6S 8077   3.227   5.717  17.192  0.5425  0.0991  1.0288
   6323SM   H6T 8078   3.380   5.622  17.189  1.0238  0.2764 -0.9512
   6323SM   C7S 8079   3.350   5.728  17.006  0.3831 -0.0515 -0.0397
   6323SM   H7S 8080   3.457   5.714  16.983  0.2363  0.2692 -0.9389
   6323SM   H7T 8081   3.319   5.830  16.976  1.9765  0.8394  1.1829
   6323SM   C8S 8082   3.272   5.614  16.933  0.5311  0.2411 -0.1832
   6323SM   H8S 8083   3.163   5.619  16.956  0.6959 -0.5794  0.8080
   6323SM   H8T 8084   3.293   5.514  16.977 -2.7393 -0.3124  0.3800
   6323SM   C9S 8085   3.299   5.609  16.786  0.4895 -0.5414  0.4755
   6323SM   H9S 8086   3.408   5.617  16.767  0.7556  5.2232  2.5531
   6323SM   H9T 8087   3.262   5.708  16.752 -0.1873 -0.6705  0.8160
   6323SM  C10S 8088   3.228   5.494  16.713  0.4283  0.3425  0.1195
   6323SM  H10S 8089   3.119   5.481  16.733  0.5692 -1.9841 -0.3647
   6323SM  H10T 8090   3.276   5.401  16.751  1.2215  0.3058 -0.9573
   6323SM  C11S 8091   3.248   5.502  16.565 -0.1562  0.0162  0.0313
   6323SM  H11S 8092   3.357   5.502  16.546 -0.1862 -1.0824 -0.2039
   6323SM  H11T 8093   3.211   5.602  16.534 -0.9540 -0.7998 -1.7872
   6323SM  C12S 8094   3.184   5.386  16.477  0.1728  0.0540 -0.2341
   6323SM  H12S 8095   3.074   5.383  16.491  0.1813 -0.9818 -0.2909
   6323SM  H12T 8096   3.225   5.283  16.487  0.0514 -0.4388 -3.7221
   6323SM  C13S 8097   3.207   5.422  16.327 -0.5810  0.0303  0.2342
   6323SM  H13S 8098   3.317   5.417  16.310 -0.5184 -1.8467  1.0260
   6323SM  H13T 8099   3.176   5.529  16.323 -0.4950  0.0536  0.1977
   6323SM  C14S 8100   3.132   5.331  16.227 -0.2926  0.1235  0.7662
   6323SM  H14S 8101   3.026   5.332  16.260 -0.6905  2.9512 -0.3866
   6323SM  H14T 8102   3.169   5.226  16.234  2.7180  0.8674 -1.9721
   6323SM  C15S 8103   3.150   5.383  16.083  0.4200 -0.0607 -0.0902
   6323SM  H15S 8104   3.248   5.434  16.089 -0.0171  0.6146  3.8956
   6323SM  H15T 8105   3.062   5.447  16.061  0.4813 -0.1860 -0.7357
   6323SM  C16S 8106   3.180   5.278  15.977  0.5472  0.1973  1.0646
   6323SM  H16S 8107   3.102   5.199  15.984  1.2999 -0.5856  0.8402
   6323SM  H16T 8108   3.273   5.220  15.997  0.2303 -0.5992  0.3031
   6323SM  C17S 8109   3.186   5.330  15.832 -0.1182 -0.0871  0.2936
   6323SM  H17S 8110   3.257   5.265  15.778  2.1021  2.6559 -0.3398
   6323SM  H17T 8111   3.221   5.435  15.820  0.5717 -0.4476 -0.9916
   6323SM  C18S 8112   3.049   5.318  15.761 -0.0705 -0.0784 -0.8186
   6323SM  H18S 8113   3.056   5.338  15.652 -0.0719  0.0285 -0.7988
   6323SM  H18T 8114   2.976   5.383  15.813 -0.0603 -0.7265  0.0361
   6323SM  H18U 8115   3.006   5.215  15.765 -0.3077  0.0621  1.5082
   6323SM   C1F 8116   3.719   6.082  16.940 -1.0268  0.3435  0.1082
   6323SM    OF 8117   3.843   6.069  16.937 -0.3444 -0.6040  0.4545
   6323SM   C2F 8118   3.638   6.120  16.820 -0.1987 -0.2203 -0.3376
   6323SM   H2F 8119   3.697   6.196  16.766  0.8342 -0.4517  0.4332
   6323SM   H2G 8120   3.542   6.157  16.861  1.3981  0.7897  2.7759
   6323SM   C3F 8121   3.617   6.000  16.720  0.0257  0.5557 -0.1785
   6323SM   H3F 8122   3.555   5.927  16.778  2.4776 -0.2032  1.6711
   6323SM   H3G 8123   3.715   5.955  16.693 -0.4283 -0.0850 -0.7941
   6323SM   C4F 8124   3.541   6.041  16.591  0.3982  0.7852  0.1661
   6323SM   H4F 8125   3.609   6.105  16.533  2.2454 -0.2391  1.1153
   6323SM   H4G 8126   3.446   6.095  16.611 -1.7596 -1.2241 -3.4484
   6323SM   C5F 8127   3.499   5.929  16.493  0.8522  0.2511  0.4961
   6323SM   H5F 8128   3.430   5.866  16.553 -1.2119 -0.9058 -2.8229
   6323SM   H5G 8129   3.583   5.861  16.466  0.4871 -0.3003  0.7453
   6323SM   C6F 8130   3.415   5.973  16.372  0.2427 -0.2867 -0.3155
   6323SM   H6F 8131   3.477   6.029  16.299  1.4532 -0.3866  0.6144
   6323SM   H6G 8132   3.338   6.044  16.411  1.0581 -0.8158  2.4546
   6323SM   C7F 8133   3.369   5.859  16.293  0.2974 -0.6556  0.8288
   6323SM   H7F 8134   3.310   5.794  16.362 -0.4783 -0.8096  0.0381
   6323SM   H7G 8135   3.451   5.790  16.263  0.6192 -0.9181  2.2207
   6323SM   C8F 8136   3.277   5.890  16.171  0.0130 -0.1590  0.1034
   6323SM   H8F 8137   3.330   5.971  16.116 -1.6116  1.2653  0.5506
   6323SM   H8G 8138   3.183   5.932  16.213  0.9962 -1.5840  4.1631
   6323SM   C9F 8139   3.259   5.767  16.089 -0.4583  0.1582 -0.2593
   6323SM   H9F 8140   3.195   5.695  16.145 -0.1017  0.3652  0.4081
   6323SM   H9G 8141   3.355   5.717  16.065 -1.3121 -1.4897 -0.4040
   6323SM  C10F 8142   3.191   5.806  15.953  0.1183  0.4989 -0.3152
   6323SM  H10F 8143   3.111   5.882  15.964 -0.8371 -0.4540 -0.5620
   6323SM  H10G 8144   3.146   5.717  15.904  1.3904 -0.6899  0.5871
   6323SM  C11F 8145   3.291   5.859  15.850  0.1990 -0.0208  0.0550
   6323SM  H11F 8146   3.381   5.793  15.847 -0.3735 -0.7925 -0.6178
   6323SM  H11G 8147   3.317   5.962  15.881 -1.2073 -0.7296  4.1683
   6323SM  C12F 8148   3.225   5.847  15.709  0.3329 -0.4780 -0.3103
   6323SM  H12F 8149   3.129   5.903  15.707 -0.5703 -1.9722 -2.2499
   6323SM  H12G 8150   3.206   5.739  15.692  1.5806 -0.7942  0.1888
   6323SM  C13F 8151   3.299   5.918  15.590 -0.2238  0.9938 -0.0488
   6323SM  H13F 8152   3.257   5.884  15.494 -0.2161 -0.8737  0.5650
   6323SM  H13G 8153   3.406   5.888  15.588 -0.2261  0.9504  0.3729
   6323SM  C14F 8154   3.286   6.070  15.597  0.0403  0.0109  0.8011
   6323SM  H14F 8155   3.344   6.120  15.677 -0.2835  2.0964 -0.1905
   6323SM  H14G 8156   3.182   6.096  15.626 -0.2315 -1.5191  1.2799
   6323SM  C15F 8157   3.322   6.142  15.461  0.2859 -0.0346 -0.7205
   6323SM  H15F 8158   3.318   6.250  15.487 -0.0733 -0.5081  1.3664
   6323SM  H15G 8159   3.247   6.131  15.380 -0.8774  4.9014 -0.6257
   6323SM  C16F 8160   3.465   6.117  15.418 -0.4631  0.0005  0.0196
   6323SM  H16F 8161   3.469   6.014  15.377  0.3269  0.0110  0.0667
   6323SM  H16G 8162   3.539   6.117  15.500  2.1667 -1.4446 -2.1723
   6323SM  C17F 8163   3.512   6.216  15.310  0.4701 -0.3350  0.2949
   6323SM  H17F 8164   3.622   6.207  15.297  0.5679 -0.4310  1.1147
   6323SM  H17G 8165   3.485   6.320  15.338 -2.3092 -1.5110  2.5256
   6323SM  C18F 8166   3.462   6.170  15.170 -0.2848 -0.0914  0.5701
   6323SM  H18F 8167   3.352   6.180  15.164 -0.3189 -0.9564 -0.9882
   6323SM  H18G 8168   3.485   6.061  15.161 -1.3530 -0.1785 -1.8718
   6323SM  C19F 8169   3.522   6.259  15.051 -0.2745  0.3464 -0.0956
   6323SM  H19F 8170   3.512   6.367  15.077  2.3683  0.3321  1.3268
   6323SM  H19G 8171   3.455   6.249  14.963 -2.1891  0.6797  1.2433
   6323SM  C20F 8172   3.672   6.235  15.015  0.6541  0.8622 -1.0899
   6323SM  H20F 8173   3.680   6.146  14.949 -0.8611  0.1255 -0.3438
   6323SM  H20G 8174   3.732   6.219  15.107 -1.2923 -0.9075 -0.0251
   6323SM  C21F 8175   3.723   6.355  14.933  0.9882 -0.5106  0.3274
   6323SM  H21F 8176   3.719   6.444  14.998 -1.9020  0.6293 -1.2439
   6323SM  H21G 8177   3.665   6.367  14.839  2.9546 -0.3774 -0.9325
   6323SM  C22F 8178   3.863   6.341  14.891  1.0555 -0.5955  0.5028
   6323SM  H22F 8179   3.870   6.247  14.833 -1.0866 -0.3669 -0.2265
   6323SM  H22G 8180   3.918   6.314  14.983  2.2113 -0.9432 -0.2646
   6323SM  C23F 8181   3.925   6.455  14.806 -0.2847  0.6266  0.4026
   6323SM  H23F 8182   3.905   6.444  14.698  0.4190 -1.9548  0.4732
   6323SM  H23G 8183   4.034   6.469  14.821 -0.0221 -0.0034 -0.8523
   6323SM  H23H 8184   3.877   6.552  14.830 -1.0161 -0.3016  3.0127
   6423SM     N 8185   4.616   4.466  17.630  0.0510  0.3395  0.0553
   6423SM   C15 8186   4.692   4.392  17.736 -0.1276 -0.3824  0.1798
   6423SM  H15A 8187   4.698   4.285  17.730 -1.7838 -0.7551  3.1225
   6423SM  H15B 8188   4.650   4.397  17.835  0.0857 -0.5275  0.2786
   6423SM  H15C 8189   4.792   4.432  17.726  0.5774 -2.5115 -2.1882
   6423SM   C14 8190   4.601   4.603  17.687  0.0403 -0.3298 -0.7423
   6423SM  H14A 8191   4.672   4.676  17.651 -2.9837  1.9263 -2.7000
   6423SM  H14B 8192   4.611   4.602  17.794  2.5225  1.4685 -0.8768
   6423SM  H14C 8193   4.504   4.637  17.653  0.4095 -0.9077 -2.4819
   6423SM   C13 8194   4.712   4.469  17.516  0.4606  0.0354 -0.0604
   6423SM  H13A 8195   4.663   4.512  17.430  2.5490  2.9712  0.0718
   6423SM  H13B 8196   4.755   4.372  17.501 -0.0208 -0.1209 -0.4453
   6423SM  H13C 8197   4.785   4.548  17.525 -1.5650  2.2020 -1.5975
   6423SM   C12 8198   4.484   4.387  17.620  0.5465  0.3539  0.4290
   6423SM  H12A 8199   4.441   4.366  17.717  0.9722  0.2371  0.5998
   6423SM  H12B 8200   4.507   4.289  17.581 -0.1035 -0.4768  2.0425
   6423SM   C11 8201   4.365   4.444  17.540 -0.0129  0.5407  0.6447
   6423SM  H11A 8202   4.286   4.366  17.530 -1.5802  2.3558 -2.9111
   6423SM  H11B 8203   4.394   4.475  17.437 -0.3242  1.6292  0.8776
   6423SM     P 8204   4.172   4.622  17.579 -0.4057  0.1627  0.1668
   6423SM   O13 8205   4.077   4.546  17.660  0.1165  0.4178  0.1240
   6423SM   O14 8206   4.179   4.768  17.589  0.4047 -0.0372  0.2272
   6423SM   O11 8207   4.135   4.576  17.428 -0.5212  0.3850 -0.1034
   6423SM   O12 8208   4.319   4.564  17.605  0.0289  0.7379  0.0108
   6423SM   C1S 8209   4.156   4.663  17.314 -0.5089 -0.1518 -0.3996
   6423SM   H1S 8210   4.247   4.625  17.263 -0.4566 -0.3558 -0.1550
   6423SM   H1T 8211   4.172   4.770  17.341 -0.2679 -0.3008  0.0455
   6423SM    NF 8212   4.054   4.746  17.107 -0.2090 -0.0359  0.1175
   6423SM   HNF 8213   4.002   4.831  17.111 -1.6222 -0.5787 -3.4818
   6423SM   C2S 8214   4.032   4.662  17.214 -0.2668  0.6028 -0.4857
   6423SM   H2S 8215   4.026   4.559  17.173 -0.7218  1.5027 -2.8283
   6423SM   C3S 8216   3.899   4.680  17.296  0.6113 -0.5704 -0.2271
   6423SM   H3S 8217   3.906   4.780  17.345 -3.1120 -1.0002  1.6108
   6423SM    O3 8218   3.862   4.596  17.414  0.0131 -0.6016  0.1517
   6423SM   HO3 8219   3.943   4.546  17.428  0.1037 -0.1528  1.3046
   6423SM   C4S 8220   3.783   4.702  17.194 -0.2075  0.1658  0.5721
   6423SM   H4S 8221   3.759   4.806  17.168 -0.7191 -0.1327 -0.2109
   6423SM   C5S 8222   3.696   4.610  17.145 -0.2779  0.0996  0.3582
   6423SM   H5S 8223   3.702   4.507  17.183  0.1673 -0.2785 -0.6852
   6423SM   C6S 8224   3.585   4.640  17.049 -0.0110  0.2400 -0.0665
   6423SM   H6S 8225   3.497   4.655  17.115 -0.2861 -1.3783 -0.0408
   6423SM   H6T 8226   3.565   4.545  16.997 -0.5990  0.9691 -1.2024
   6423SM   C7S 8227   3.605   4.765  16.963  0.3936  0.1366  0.3118
   6423SM   H7S 8228   3.705   4.774  16.917 -0.4633  0.7262 -1.5155
   6423SM   H7T 8229   3.589   4.843  17.041  0.3190  0.7989 -0.3577
   6423SM   C8S 8230   3.501   4.788  16.857 -0.4629  0.0530 -0.7533
   6423SM   H8S 8231   3.531   4.884  16.808  1.4225  0.5024  1.1467
   6423SM   H8T 8232   3.400   4.799  16.902 -0.7948 -0.1722 -1.4360
   6423SM   C9S 8233   3.513   4.680  16.751  0.1852  0.0252 -0.1111
   6423SM   H9S 8234   3.487   4.575  16.779  0.4202 -0.3064 -1.0765
   6423SM   H9T 8235   3.623   4.670  16.740  0.2373 -1.9128  1.4471
   6423SM  C10S 8236   3.425   4.711  16.620 -0.2143  0.2952  0.5345
   6423SM  H10S 8237   3.457   4.815  16.601  3.5358 -0.8507 -0.1855
   6423SM  H10T 8238   3.315   4.716  16.636 -0.6994 -1.1353 -1.8368
   6423SM  C11S 8239   3.454   4.622  16.506  0.2667 -0.0322 -0.2916
   6423SM  H11S 8240   3.431   4.519  16.543  0.2375  0.0449 -0.0933
   6423SM  H11T 8241   3.560   4.627  16.474 -0.0710  0.5027 -1.3689
   6423SM  C12S 8242   3.381   4.650  16.376  0.0582 -0.9861 -0.2135
   6423SM  H12S 8243   3.396   4.749  16.330  2.2330 -0.9058  0.5476
   6423SM  H12T 8244   3.272   4.658  16.400  0.4170  0.6880  0.9950
   6423SM  C13S 8245   3.415   4.559  16.257 -0.0146  0.3673  0.1070
   6423SM  H13S 8246   3.377   4.457  16.278 -0.9934  0.7438  0.1842
   6423SM  H13T 8247   3.526   4.554  16.253  0.0657  0.1033  1.9502
   6423SM  C14S 8248   3.355   4.611  16.129 -0.0990 -0.0866  0.4947
   6423SM  H14S 8249   3.386   4.718  16.120 -2.5208  0.8195  2.0359
   6423SM  H14T 8250   3.247   4.587  16.130  0.4489 -2.9115  0.9992
   6423SM  C15S 8251   3.429   4.542  16.013  0.6561 -1.6043  0.1025
   6423SM  H15S 8252   3.380   4.443  16.005 -2.7910 -0.2005  1.6252
   6423SM  H15T 8253   3.535   4.518  16.035  0.8281 -1.4849 -0.5909
   6423SM  C16S 8254   3.409   4.615  15.874  0.2425  0.1280  0.5357
   6423SM  H16S 8255   3.415   4.724  15.890 -0.8105 -0.1591  3.3955
   6423SM  H16T 8256   3.304   4.603  15.839  0.5375  1.3338 -0.8701
   6423SM  C17S 8257   3.500   4.565  15.756  0.1954  0.4390 -0.1700
   6423SM  H17S 8258   3.462   4.460  15.753  0.1278  0.3003  2.7767
   6423SM  H17T 8259   3.606   4.571  15.790  0.8840  0.1202 -2.1150
   6423SM  C18S 8260   3.480   4.632  15.621  0.4277 -0.5833  0.3537
   6423SM  H18S 8261   3.378   4.675  15.611  1.0580  2.0964  3.7089
   6423SM  H18T 8262   3.503   4.563  15.537  0.1112  1.8136 -1.8144
   6423SM  H18U 8263   3.561   4.708  15.616 -0.7102  0.6532  0.3203
   6423SM   C1F 8264   4.151   4.720  17.019  0.7411  0.9719 -0.0662
   6423SM    OF 8265   4.203   4.605  17.023  0.5705 -0.2621  0.1035
   6423SM   C2F 8266   4.176   4.816  16.908  0.1329  0.1298 -0.2071
   6423SM   H2F 8267   4.271   4.870  16.925 -1.0704  1.7069  2.0678
   6423SM   H2G 8268   4.102   4.899  16.909 -1.1354 -0.9554 -0.0765
   6423SM   C3F 8269   4.189   4.748  16.774 -0.3559  0.4410  0.6130
   6423SM   H3F 8270   4.090   4.713  16.739 -0.3131 -0.3669  1.2625
   6423SM   H3G 8271   4.261   4.664  16.770  1.0116  1.4027  2.8277
   6423SM   C4F 8272   4.235   4.847  16.657  0.3899 -0.3375 -0.1527
   6423SM   H4F 8273   4.342   4.869  16.679  1.1061 -3.1076 -0.5218
   6423SM   H4G 8274   4.165   4.934  16.658 -0.2213 -0.8172 -0.7883
   6423SM   C5F 8275   4.211   4.771  16.523  0.0530 -0.0213 -0.0692
   6423SM   H5F 8276   4.103   4.744  16.522 -0.4481  1.8650 -1.0350
   6423SM   H5G 8277   4.273   4.679  16.524 -0.5667 -0.4557 -0.8198
   6423SM   C6F 8278   4.236   4.856  16.396  0.3715 -0.0293  0.2577
   6423SM   H6F 8279   4.347   4.858  16.389  0.4916 -0.0666  1.8764
   6423SM   H6G 8280   4.192   4.958  16.400 -3.2770 -1.3828 -1.3403
   6423SM   C7F 8281   4.174   4.786  16.272 -0.1937  0.5566 -0.7472
   6423SM   H7F 8282   4.063   4.798  16.275 -0.1667  0.8638  1.7615
   6423SM   H7G 8283   4.207   4.680  16.266 -0.8910  0.2950 -0.2332
   6423SM   C8F 8284   4.218   4.854  16.143 -0.6617  0.0812  0.9144
   6423SM   H8F 8285   4.327   4.870  16.157 -0.4490 -0.6143  0.1220
   6423SM   H8G 8286   4.171   4.953  16.130  0.8682  0.6112 -0.9669
   6423SM   C9F 8287   4.204   4.758  16.025  0.1096  0.6323 -0.0131
   6423SM   H9F 8288   4.101   4.717  16.016  1.2086 -2.4078  0.1362
   6423SM   H9G 8289   4.277   4.676  16.045  1.4138  2.1960  2.0972
   6423SM  C10F 8290   4.239   4.818  15.892  0.9531  0.7204 -0.2359
   6423SM  H10F 8291   4.349   4.819  15.877  0.9762 -2.4242 -0.8583
   6423SM  H10G 8292   4.199   4.921  15.877  0.5410  1.3215  3.8623
   6423SM  C11F 8293   4.201   4.728  15.774 -0.5398  0.9937 -0.0792
   6423SM  H11F 8294   4.093   4.705  15.789 -0.2725 -0.5825 -0.3077
   6423SM  H11G 8295   4.256   4.633  15.789  1.4920  1.9795 -1.0200
   6423SM  C12F 8296   4.211   4.792  15.630  0.0976  0.1298  0.2000
   6423SM  H12F 8297   4.307   4.846  15.611  1.0244 -1.6471 -0.4438
   6423SM  H12G 8298   4.124   4.860  15.629  0.7158  0.9794  1.3061
   6423SM  C13F 8299   4.205   4.688  15.517  0.6634  0.7349 -0.1029
   6423SM  H13F 8300   4.107   4.637  15.527  0.2443  0.9135 -2.5925
   6423SM  H13G 8301   4.283   4.610  15.533 -0.1390  0.0333  0.4705
   6423SM  C14F 8302   4.218   4.760  15.383 -0.5731 -0.0518  0.1080
   6423SM  H14F 8303   4.328   4.764  15.369 -0.4911 -0.9907  0.4041
   6423SM  H14G 8304   4.175   4.863  15.382 -0.3210  0.0591  0.4326
   6423SM  C15F 8305   4.172   4.680  15.263 -0.1669 -0.1749 -0.3034
   6423SM  H15F 8306   4.222   4.727  15.176  0.6695  0.0263  0.2704
   6423SM  H15G 8307   4.064   4.671  15.238  0.3601 -2.4177 -2.1190
   6423SM  C16F 8308   4.229   4.536  15.265 -0.7745  0.0917  0.2779
   6423SM  H16F 8309   4.178   4.476  15.343  0.7991 -0.8881  0.5947
   6423SM  H16G 8310   4.337   4.543  15.292 -0.6848  1.0642 -0.2735
   6423SM  C17F 8311   4.207   4.474  15.122 -0.5965 -0.0072 -0.7245
   6423SM  H17F 8312   4.265   4.540  15.054 -0.0803  0.7910  0.4522
   6423SM  H17G 8313   4.099   4.462  15.098 -0.5078  0.6683 -1.4774
   6423SM  C18F 8314   4.271   4.336  15.108 -0.9709 -0.7939  0.3014
   6423SM  H18F 8315   4.230   4.251  15.166 -1.6509 -1.6475 -1.3419
   6423SM  H18G 8316   4.363   4.335  15.171  0.3819 -0.9594 -1.5843
   6423SM  C19F 8317   4.323   4.303  14.969 -0.0605  0.2748  0.3117
   6423SM  H19F 8318   4.389   4.384  14.931 -1.1378 -0.2452 -2.9974
   6423SM  H19G 8319   4.232   4.298  14.907  0.6080  1.7870 -0.8646
   6423SM  C20F 8320   4.383   4.163  14.974  0.2790  0.5955 -0.0306
   6423SM  H20F 8321   4.301   4.088  14.969  1.2750 -0.4695 -1.8772
   6423SM  H20G 8322   4.442   4.137  15.064  1.3104  1.1644 -0.5239
   6423SM  C21F 8323   4.472   4.145  14.846 -0.2210  0.4203 -0.4985
   6423SM  H21F 8324   4.433   4.200  14.758 -0.2150  0.4902 -0.4590
   6423SM  H21G 8325   4.457   4.040  14.814  0.1636  0.0650  0.4355
   6423SM  C22F 8326   4.622   4.172  14.881 -0.7112  0.0788 -0.3429
   6423SM  H22F 8327   4.680   4.141  14.792 -1.6799 -0.7106 -0.7261
   6423SM  H22G 8328   4.648   4.108  14.968 -0.7906 -0.8453 -0.9754
   6423SM  C23F 8329   4.659   4.322  14.913 -0.0477 -0.2784 -0.0513
   6423SM  H23F 8330   4.640   4.392  14.829 -0.7816  0.0406  0.3726
   6423SM  H23G 8331   4.762   4.335  14.953 -0.8153  2.2282  1.3633
   6423SM  H23H 8332   4.590   4.359  14.992 -2.2796  0.5687 -2.2623
   6523SM     N 8333   3.822   0.003  17.781  0.1168  0.0053  0.1231
   6523SM   C15 8334   3.888   0.004  17.916  0.2284  0.1069 -0.1693
   6523SM  H15A 8335   3.859   0.091  17.973  0.8027  1.1569 -1.4339
   6523SM  H15B 8336   3.995  -0.006  17.922  0.2328  0.1527 -0.1710
   6523SM  H15C 8337   3.844  -0.070  17.982 -0.0728 -0.0365 -0.5258
   6523SM   C14 8338   3.880  -0.123  17.711 -0.4284 -0.4968 -0.2418
   6523SM  H14A 8339   3.890  -0.113  17.604  3.5852 -1.2201 -0.0845
   6523SM  H14B 8340   3.816  -0.207  17.737  0.4249 -0.4036  2.5040
   6523SM  H14C 8341   3.976  -0.158  17.746  0.5251 -1.7199 -3.6643
   6523SM   C13 8342   3.676  -0.007  17.795  0.2811 -0.6179  0.6022
   6523SM  H13A 8343   3.636  -0.028  17.697 -0.6911  3.3275 -0.0062
   6523SM  H13B 8344   3.638   0.090  17.824 -0.6524 -1.1911  1.3310
   6523SM  H13C 8345   3.645  -0.077  17.871  0.5780  0.5591  1.8482
   6523SM   C12 8346   3.864   0.125  17.709  0.1589 -0.2853  0.0850
   6523SM  H12A 8347   3.970   0.132  17.727  0.0664 -0.9533  0.9101
   6523SM  H12B 8348   3.814   0.208  17.756 -1.0717 -1.5122  1.0048
   6523SM   C11 8349   3.849   0.137  17.553  0.2863 -0.0889 -0.0103
   6523SM  H11A 8350   3.906   0.057  17.502  0.4390 -0.2374  0.3955
   6523SM  H11B 8351   3.889   0.235  17.517 -0.7764  0.0796 -0.7970
   6523SM     P 8352   3.614   0.240  17.542  0.3972 -0.0069 -0.3166
   6523SM   O13 8353   3.473   0.192  17.556 -0.2630 -0.0225 -0.0315
   6523SM   O14 8354   3.656   0.324  17.654 -0.5004 -0.4032  0.4187
   6523SM   O11 8355   3.619   0.333  17.414 -0.1272 -0.6293  0.2895
   6523SM   O12 8356   3.713   0.125  17.511 -0.2639  0.1717 -0.8125
   6523SM   C1S 8357   3.587   0.265  17.288 -0.3330 -0.2376 -0.7448
   6523SM   H1S 8358   3.499   0.197  17.296 -1.1315  0.6524 -1.7169
   6523SM   H1T 8359   3.677   0.203  17.266  1.1990  2.4469 -2.5712
   6523SM    NF 8360   3.481   0.305  17.056 -0.0404  0.1329 -0.2052
   6523SM   HNF 8361   3.513   0.273  16.967 -1.2989 -1.0776 -0.2553
   6523SM   C2S 8362   3.569   0.365  17.164  0.4433  0.0244  0.1452
   6523SM   H2S 8363   3.515   0.451  17.208 -0.3308  0.1233 -0.9643
   6523SM   C3S 8364   3.707   0.405  17.114 -0.2278 -0.5326  0.3786
   6523SM   H3S 8365   3.761   0.312  17.089 -0.7068 -0.8048  0.3505
   6523SM    O3 8366   3.791   0.460  17.218  0.3190  0.2436 -0.1727
   6523SM   HO3 8367   3.740   0.436  17.296  2.6316 -0.9018  1.0639
   6523SM   C4S 8368   3.682   0.499  16.999 -0.5203  0.2069  0.3041
   6523SM   H4S 8369   3.669   0.438  16.909  0.1560 -1.8350  1.5096
   6523SM   C5S 8370   3.673   0.637  16.997  0.0456 -0.0946  0.5050
   6523SM   H5S 8371   3.685   0.686  17.095 -1.7826 -0.8558  1.1499
   6523SM   C6S 8372   3.656   0.726  16.875 -0.2616  0.1261 -0.6860
   6523SM   H6S 8373   3.735   0.803  16.870 -0.7136  0.5618 -1.2085
   6523SM   H6T 8374   3.556   0.775  16.878 -0.1776  0.3006 -0.7377
   6523SM   C7S 8375   3.655   0.637  16.744 -0.8368  0.5887  0.2649
   6523SM   H7S 8376   3.568   0.567  16.744 -1.8399  1.7240 -1.6963
   6523SM   H7T 8377   3.747   0.576  16.745 -1.5669 -0.5725  1.9911
   6523SM   C8S 8378   3.634   0.707  16.612 -0.5403 -0.1571 -0.2443
   6523SM   H8S 8379   3.730   0.754  16.581 -0.7460 -0.6899 -1.7358
   6523SM   H8T 8380   3.571   0.797  16.629  1.0763  1.2481 -1.3228
   6523SM   C9S 8381   3.597   0.599  16.508 -0.4982  0.2341  0.2268
   6523SM   H9S 8382   3.495   0.558  16.525 -0.3525  0.3020  1.3088
   6523SM   H9T 8383   3.661   0.511  16.533 -3.2981 -1.5465  1.7233
   6523SM  C10S 8384   3.614   0.649  16.359  0.4043 -0.0898  0.6729
   6523SM  H10S 8385   3.713   0.698  16.343  1.4831 -2.1679  0.6908
   6523SM  H10T 8386   3.529   0.719  16.342  0.4762 -0.3363 -0.9382
   6523SM  C11S 8387   3.601   0.539  16.258 -0.1010  0.4789  0.5763
   6523SM  H11S 8388   3.493   0.516  16.258 -0.3112  1.4330  0.4219
   6523SM  H11T 8389   3.643   0.443  16.295  0.6812  0.1280 -1.0819
   6523SM  C12S 8390   3.638   0.578  16.109  1.0044 -0.4608  0.3241
   6523SM  H12S 8391   3.741   0.616  16.125  0.9923  1.0459 -2.6074
   6523SM  H12T 8392   3.571   0.658  16.071 -1.3300 -2.9640 -1.1792
   6523SM  C13S 8393   3.626   0.454  16.019  0.2642  0.1152 -0.3672
   6523SM  H13S 8394   3.532   0.398  16.034  0.2219 -0.3405 -2.1125
   6523SM  H13T 8395   3.703   0.377  16.043 -0.3979 -0.1852  0.8921
   6523SM  C14S 8396   3.652   0.491  15.875  0.0663  0.0594 -0.4179
   6523SM  H14S 8397   3.749   0.542  15.863  1.6552 -2.5979  0.1666
   6523SM  H14T 8398   3.570   0.560  15.845 -1.1804 -1.5592 -0.9197
   6523SM  C15S 8399   3.638   0.371  15.778  0.2021 -0.5393 -0.4891
   6523SM  H15S 8400   3.545   0.313  15.792 -0.8519  1.1253 -0.3542
   6523SM  H15T 8401   3.727   0.306  15.791 -1.0747 -2.3023 -0.2485
   6523SM  C16S 8402   3.636   0.400  15.631 -0.3944 -0.2279 -0.5173
   6523SM  H16S 8403   3.726   0.463  15.612 -1.2472  1.8614  1.8219
   6523SM  H16T 8404   3.541   0.453  15.612 -0.5127  0.5218  1.7676
   6523SM  C17S 8405   3.636   0.268  15.544 -0.8101  0.0679 -0.4289
   6523SM  H17S 8406   3.652   0.302  15.440  0.3229  1.1065  0.0538
   6523SM  H17T 8407   3.538   0.217  15.549 -1.2922  0.8944 -1.2829
   6523SM  C18S 8408   3.749   0.161  15.568 -0.1408 -0.7912 -0.1122
   6523SM  H18S 8409   3.849   0.208  15.578 -0.2798 -0.6871  0.8571
   6523SM  H18T 8410   3.744   0.074  15.500 -0.3294  0.1798 -1.4008
   6523SM  H18U 8411   3.737   0.105  15.662  2.1886  0.1521  0.8201
   6523SM   C1F 8412   3.356   0.283  17.088 -0.0633 -0.3182  0.8678
   6523SM    OF 8413   3.299   0.351  17.172 -0.2353  0.0972 -0.0697
   6523SM   C2F 8414   3.277   0.191  17.002  0.4685 -0.4739 -0.2704
   6523SM   H2F 8415   3.203   0.148  17.073 -0.1574  0.9574 -0.0155
   6523SM   H2G 8416   3.345   0.107  16.979  0.3232 -1.1061  1.4418
   6523SM   C3F 8417   3.216   0.262  16.884 -0.5515 -0.3861  0.5610
   6523SM   H3F 8418   3.293   0.316  16.824 -1.2185  1.3930  1.2295
   6523SM   H3G 8419   3.150   0.340  16.928 -1.2238 -1.5211  1.6099
   6523SM   C4F 8420   3.129   0.173  16.803 -0.1885 -0.1192  0.6947
   6523SM   H4F 8421   3.027   0.217  16.805 -0.8774 -1.6739  2.2977
   6523SM   H4G 8422   3.120   0.068  16.839  1.2357 -0.0837  1.1909
   6523SM   C5F 8423   3.190   0.166  16.660 -0.3494  0.1721 -0.3153
   6523SM   H5F 8424   3.290   0.119  16.662  0.9352  2.6583 -0.9795
   6523SM   H5G 8425   3.210   0.271  16.629  1.6860 -0.3192 -0.8061
   6523SM   C6F 8426   3.086   0.110  16.561 -0.2395  0.1564  0.3896
   6523SM   H6F 8427   2.993   0.171  16.561  0.0309  0.6621 -1.7419
   6523SM   H6G 8428   3.054   0.006  16.588 -0.3397 -0.1983 -1.0223
   6523SM   C7F 8429   3.136   0.082  16.420 -0.1821  0.3623  0.1150
   6523SM   H7F 8430   3.066   0.028  16.353 -0.0950  1.9139 -1.2874
   6523SM   H7G 8431   3.228   0.020  16.429  1.0749  2.0420 -0.7057
   6523SM   C8F 8432   3.184   0.209  16.344  0.1254  0.3093  0.8167
   6523SM   H8F 8433   3.236   0.275  16.417 -1.2863  1.8318  0.5189
   6523SM   H8G 8434   3.106   0.271  16.295  2.4301  2.1205 -0.8015
   6523SM   C9F 8435   3.287   0.176  16.230  0.0303 -0.4443  0.1434
   6523SM   H9F 8436   3.360   0.103  16.271 -2.5240 -2.9416  0.5545
   6523SM   H9G 8437   3.343   0.268  16.201  0.3889 -0.6126  0.2917
   6523SM  C10F 8438   3.226   0.131  16.100 -0.2107  0.3567  0.1900
   6523SM  H10F 8439   3.144   0.202  16.074 -0.6712  0.2185  1.2292
   6523SM  H10G 8440   3.181   0.031  16.117 -1.1296  0.7392  0.0964
   6523SM  C11F 8441   3.322   0.107  15.986 -0.1919 -0.3536  0.3906
   6523SM  H11F 8442   3.405   0.048  16.029 -0.0304  1.9397  3.5698
   6523SM  H11G 8443   3.364   0.209  15.968 -1.8812  0.6163  1.6017
   6523SM  C12F 8444   3.265   0.064  15.855 -0.3152 -0.1660  0.3560
   6523SM  H12F 8445   3.181   0.134  15.838 -0.4229 -0.2752  0.4346
   6523SM  H12G 8446   3.223  -0.038  15.874 -1.3135  0.5509  2.3609
   6523SM  C13F 8447   3.354   0.072  15.739 -0.0191 -0.3272  0.4185
   6523SM  H13F 8448   3.452   0.023  15.758 -0.6907 -2.3925 -1.0333
   6523SM  H13G 8449   3.381   0.177  15.714  1.1367 -0.5547  0.6281
   6523SM  C14F 8450   3.281   0.015  15.619 -0.4299  0.4502  0.7492
   6523SM  H14F 8451   3.203   0.090  15.593  0.1748 -0.1985 -3.7957
   6523SM  H14G 8452   3.241  -0.084  15.651 -2.1254  1.2364  1.2019
   6523SM  C15F 8453   3.377  -0.008  15.494 -0.0862  0.3571 -0.9727
   6523SM  H15F 8454   3.473  -0.061  15.512 -0.5632 -0.4473 -0.7110
   6523SM  H15G 8455   3.407   0.091  15.454  2.8082  0.1181  0.3843
   6523SM  C16F 8456   3.297  -0.069  15.379 -0.0468 -0.4429 -0.3100
   6523SM  H16F 8457   3.206  -0.005  15.376 -0.3885 -0.9452 -0.9816
   6523SM  H16G 8458   3.267  -0.174  15.398  0.2236 -0.5692 -0.5897
   6523SM  C17F 8459   3.359  -0.054  15.236 -0.0686 -0.0538  0.0606
   6523SM  H17F 8460   3.310  -0.133  15.175  1.8314 -0.9609 -0.3592
   6523SM  H17G 8461   3.465  -0.085  15.238  0.3013  1.2047  0.9549
   6523SM  C18F 8462   3.342   0.092  15.187  1.1629  0.3455  0.6355
   6523SM  H18F 8463   3.394   0.162  15.256  1.0317 -0.4901  1.6141
   6523SM  H18G 8464   3.235   0.120  15.184  1.0160 -0.2817 -0.3523
   6523SM  C19F 8465   3.409   0.122  15.050  0.0926 -0.5150 -0.1642
   6523SM  H19F 8466   3.344   0.203  15.011  1.0700  0.4878  0.2151
   6523SM  H19G 8467   3.395   0.047  14.970  0.1938 -0.0341 -0.6412
   6523SM  C20F 8468   3.553   0.178  15.042 -0.2885 -0.0362  0.2162
   6523SM  H20F 8469   3.575   0.265  15.107 -1.9050  0.5791 -0.0284
   6523SM  H20G 8470   3.559   0.227  14.943  2.0896  0.3374  0.4751
   6523SM  C21F 8471   3.671   0.074  15.062  0.1405 -0.0728 -0.0530
   6523SM  H21F 8472   3.661  -0.014  14.995  0.1320  1.0970 -1.6284
   6523SM  H21G 8473   3.659   0.031  15.164  2.0353 -0.8574 -0.1068
   6523SM  C22F 8474   3.807   0.149  15.061 -0.2242 -0.3512 -0.0770
   6523SM  H22F 8475   3.809   0.212  14.969  0.7267 -2.2793 -1.4297
   6523SM  H22G 8476   3.889   0.075  15.057  1.6082  1.4664  1.2322
   6523SM  C23F 8477   3.847   0.235  15.178  0.7563  0.1461 -0.2611
   6523SM  H23F 8478   3.954   0.266  15.181  0.2352  2.2028 -1.1977
   6523SM  H23G 8479   3.834   0.176  15.271 -0.4972 -0.5646 -0.8632
   6523SM  H23H 8480   3.792   0.331  15.188 -0.7483 -0.6905 -0.3036
   6623SM     N 8481   2.672   2.886  17.604 -0.3119 -0.8650 -0.5112
   6623SM   C15 8482   2.787   2.793  17.643 -0.1925  0.2088 -0.3902
   6623SM  H15A 8483   2.774   2.755  17.743  1.2374 -0.6192 -0.4880
   6623SM  H15B 8484   2.881   2.846  17.652 -0.0020 -0.1504 -0.2644
   6623SM  H15C 8485   2.789   2.709  17.575 -1.3001  2.0595 -2.8491
   6623SM   C14 8486   2.555   2.798  17.579 -0.2837 -0.2970  0.6364
   6623SM  H14A 8487   2.461   2.848  17.562  0.6933  1.8984  1.2263
   6623SM  H14B 8488   2.548   2.724  17.658 -0.2933 -1.8942 -0.8122
   6623SM  H14C 8489   2.566   2.741  17.488 -1.8571 -0.0987  0.2925
   6623SM   C13 8490   2.639   2.976  17.717  0.0235  0.6233  0.1858
   6623SM  H13A 8491   2.615   2.920  17.806  0.5317  1.7280  1.0395
   6623SM  H13B 8492   2.557   3.043  17.703 -0.8766 -0.1123  1.6544
   6623SM  H13C 8493   2.726   3.030  17.751  1.1471 -1.6904  1.2535
   6623SM   C12 8494   2.708   2.972  17.484  0.0546 -0.1539 -0.2229
   6623SM  H12A 8495   2.789   3.039  17.507  1.7401 -1.2868 -2.5033
   6623SM  H12B 8496   2.617   3.026  17.462  0.1951  0.5211  0.8113
   6623SM   C11 8497   2.741   2.894  17.353 -0.2389 -0.0828 -0.3041
   6623SM  H11A 8498   2.757   2.975  17.278  2.2333 -1.5592 -1.5141
   6623SM  H11B 8499   2.652   2.834  17.324 -0.2621  0.3093 -1.0753
   6623SM     P 8500   2.996   2.841  17.295  0.1235  0.2098  0.4466
   6623SM   O13 8501   3.064   2.957  17.359 -0.0132 -0.4381  0.3466
   6623SM   O14 8502   3.064   2.710  17.304  0.0123 -0.1961  0.2929
   6623SM   O11 8503   2.965   2.864  17.144 -0.0237 -0.4459 -0.1527
   6623SM   O12 8504   2.861   2.813  17.353  0.1704  0.0497 -0.4862
   6623SM   C1S 8505   3.001   2.767  17.038  0.1425 -0.0854 -0.1508
   6623SM   H1S 8506   2.969   2.665  17.071 -1.1983  0.3053 -0.1924
   6623SM   H1T 8507   3.110   2.772  17.018  0.1164 -0.9140 -0.5540
   6623SM    NF 8508   2.973   2.707  16.793  0.4046  1.0151  0.5640
   6623SM   HNF 8509   3.022   2.754  16.720 -0.2925  1.7650  0.5615
   6623SM   C2S 8510   2.926   2.791  16.905  0.2290 -0.3488  0.4266
   6623SM   H2S 8511   2.818   2.772  16.924  0.3660 -1.3460  0.2341
   6623SM   C3S 8512   2.924   2.946  16.866 -0.4817 -0.0584 -0.0612
   6623SM   H3S 8513   3.031   2.959  16.842 -0.9599  0.4986 -2.0959
   6623SM    O3 8514   2.899   3.034  16.969 -0.0755  0.1784  0.7413
   6623SM   HO3 8515   2.924   2.973  17.039  2.4620 -0.5154 -0.6784
   6623SM   C4S 8516   2.844   2.974  16.746  1.0216 -0.7361  0.5093
   6623SM   H4S 8517   2.740   2.941  16.759  0.0549  1.1910 -1.6268
   6623SM   C5S 8518   2.871   3.035  16.632 -0.2664  0.8809  0.6820
   6623SM   H5S 8519   2.967   3.083  16.608  0.3718 -0.6471  0.1074
   6623SM   C6S 8520   2.771   3.064  16.522 -0.0371 -0.2186  0.6127
   6623SM   H6S 8521   2.761   3.173  16.506 -1.0294 -0.1138  1.7868
   6623SM   H6T 8522   2.672   3.022  16.551  0.5986 -2.5364 -0.3457
   6623SM   C7S 8523   2.823   2.990  16.392 -0.5304  0.3787 -0.0057
   6623SM   H7S 8524   2.792   2.883  16.397  2.3866 -0.4908  1.7982
   6623SM   H7T 8525   2.934   2.990  16.391 -0.4536  2.2949  1.8506
   6623SM   C8S 8526   2.771   3.064  16.267 -0.2778 -0.3901 -0.7335
   6623SM   H8S 8527   2.804   3.168  16.286 -0.7245 -0.3829  0.0508
   6623SM   H8T 8528   2.660   3.056  16.269 -0.2108 -1.2796  0.3478
   6623SM   C9S 8529   2.823   3.006  16.137 -0.3294  1.3526  0.0800
   6623SM   H9S 8530   2.772   2.911  16.109  0.8674 -0.0580  2.4027
   6623SM   H9T 8531   2.933   2.992  16.144 -0.3193  2.2440  2.6340
   6623SM  C10S 8532   2.791   3.091  16.020 -0.4503  0.0946  0.0988
   6623SM  H10S 8533   2.869   3.170  16.011  3.5677 -3.4724 -0.1356
   6623SM  H10T 8534   2.693   3.143  16.024 -1.4154 -1.1004 -3.5389
   6623SM  C11S 8535   2.801   3.015  15.894  0.2782  0.1032  0.1335
   6623SM  H11S 8536   2.735   2.926  15.904  0.5594 -0.2754 -1.2959
   6623SM  H11T 8537   2.909   2.997  15.875  0.6259 -0.0947  2.0789
   6623SM  C12S 8538   2.744   3.107  15.779  0.3054  0.6786 -0.7509
   6623SM  H12S 8539   2.789   3.209  15.777 -0.0011  0.8331 -0.0818
   6623SM  H12T 8540   2.636   3.127  15.795  0.6654  0.8686  1.9718
   6623SM  C13S 8541   2.755   3.033  15.644 -0.0745  0.2864 -0.4156
   6623SM  H13S 8542   2.704   2.935  15.657  2.5834 -1.4679 -2.2851
   6623SM  H13T 8543   2.864   3.016  15.634 -0.0203  0.1246  0.3411
   6623SM  C14S 8544   2.685   3.126  15.543 -0.4971 -0.2002 -0.2675
   6623SM  H14S 8545   2.748   3.215  15.522 -0.5892 -0.2273 -0.6615
   6623SM  H14T 8546   2.588   3.156  15.589  0.2645 -0.1864  1.4032
   6623SM  C15S 8547   2.658   3.050  15.412  0.4320 -0.1493 -0.3298
   6623SM  H15S 8548   2.608   2.953  15.434 -3.5682  1.6296 -0.7058
   6623SM  H15T 8549   2.760   3.028  15.373  1.0181  0.6940  0.6775
   6623SM  C16S 8550   2.568   3.122  15.309 -0.2523  0.2349  0.0988
   6623SM  H16S 8551   2.623   3.210  15.271 -2.4862  1.3542 -0.7326
   6623SM  H16T 8552   2.476   3.158  15.360  0.3188  3.1131 -0.7384
   6623SM  C17S 8553   2.525   3.035  15.192 -0.3390  0.2523  0.4447
   6623SM  H17S 8554   2.481   2.945  15.240  0.6032 -0.2499  0.3909
   6623SM  H17T 8555   2.621   3.006  15.144 -0.9236 -0.5438 -0.2875
   6623SM  C18S 8556   2.443   3.083  15.075  0.2070 -0.3587  0.2563
   6623SM  H18S 8557   2.344   3.105  15.122  0.3689 -1.5343  1.2012
   6623SM  H18T 8558   2.424   3.009  14.994 -1.6299  1.6729 -1.2952
   6623SM  H18U 8559   2.484   3.177  15.033  0.1747  0.2647  1.5569
   6623SM   C1F 8560   2.940   2.578  16.775 -0.7315 -0.0572 -0.1441
   6623SM    OF 8561   2.859   2.524  16.847 -0.1706 -0.0898 -0.4949
   6623SM   C2F 8562   3.021   2.508  16.665  0.0106 -0.7091 -0.1564
   6623SM   H2F 8563   3.117   2.473  16.709  1.3671  1.0715 -1.5732
   6623SM   H2G 8564   3.048   2.582  16.587 -0.1840 -1.1192 -0.6141
   6623SM   C3F 8565   2.954   2.385  16.604 -0.3036  0.2677  0.0574
   6623SM   H3F 8566   2.922   2.311  16.680  0.7189  1.1075  1.3607
   6623SM   H3G 8567   3.026   2.345  16.529  1.0740  2.1584  0.2880
   6623SM   C4F 8568   2.831   2.431  16.516 -0.1816 -0.3438  0.2239
   6623SM   H4F 8569   2.748   2.460  16.585 -1.2018 -1.4477 -0.4968
   6623SM   H4G 8570   2.798   2.339  16.463  1.3559  1.0722 -3.4713
   6623SM   C5F 8571   2.861   2.541  16.414  0.5458  0.2823 -0.2066
   6623SM   H5F 8572   2.916   2.630  16.452 -1.3192  1.7430 -0.7912
   6623SM   H5G 8573   2.761   2.578  16.386 -0.0109 -1.9528 -1.3944
   6623SM   C6F 8574   2.921   2.497  16.286  0.4588 -0.0156  0.1645
   6623SM   H6F 8575   2.863   2.407  16.258 -2.7529  1.8592  0.2696
   6623SM   H6G 8576   3.027   2.468  16.297 -0.0136 -1.2566  1.8846
   6623SM   C7F 8577   2.913   2.588  16.169  0.5285 -0.3012 -0.1203
   6623SM   H7F 8578   2.956   2.689  16.184 -1.2538  0.1056  3.0527
   6623SM   H7G 8579   2.803   2.604  16.158  0.1030 -2.9716 -0.4618
   6623SM   C8F 8580   2.970   2.539  16.041 -0.1607  0.2097  0.4732
   6623SM   H8F 8581   2.940   2.435  16.016 -1.3417  0.2948  1.4224
   6623SM   H8G 8582   3.080   2.529  16.055 -0.3132 -0.6284  1.2097
   6623SM   C9F 8583   2.945   2.636  15.927  0.1695 -0.8195  0.2484
   6623SM   H9F 8584   3.010   2.724  15.943 -2.0978  0.8496  0.7496
   6623SM   H9G 8585   2.839   2.667  15.939 -0.0340  0.0733 -2.9525
   6623SM  C10F 8586   2.976   2.591  15.786  0.0109 -0.6770 -0.6684
   6623SM  H10F 8587   2.930   2.495  15.756 -3.2231 -0.0004  1.6179
   6623SM  H10G 8588   3.087   2.584  15.775  0.0355  0.6294 -1.4804
   6623SM  C11F 8589   2.936   2.704  15.685 -0.4333  0.5834 -0.3678
   6623SM  H11F 8590   3.004   2.787  15.711  1.7761 -0.8617 -1.2851
   6623SM  H11G 8591   2.827   2.728  15.683 -0.7077 -0.5435  0.2996
   6623SM  C12F 8592   2.971   2.661  15.541  0.7493  0.2445  0.3745
   6623SM  H12F 8593   2.909   2.572  15.519  0.4141  0.9691 -1.9454
   6623SM  H12G 8594   3.079   2.633  15.533  0.9945  1.3056 -0.1808
   6623SM  C13F 8595   2.937   2.769  15.433 -0.2698  0.1483 -0.2619
   6623SM  H13F 8596   2.991   2.862  15.460 -0.3007  0.0422  0.1684
   6623SM  H13G 8597   2.828   2.788  15.431  0.0935  2.7080 -2.8976
   6623SM  C14F 8598   2.981   2.730  15.292  0.5583  0.4816  0.2977
   6623SM  H14F 8599   2.945   2.630  15.263 -0.3842  0.4429  1.5192
   6623SM  H14G 8600   3.089   2.730  15.266 -0.2193  1.3521 -3.6339
   6623SM  C15F 8601   2.924   2.827  15.196 -0.0354  0.4241 -0.6678
   6623SM  H15F 8602   2.954   2.932  15.221 -1.5453  0.7111  0.0540
   6623SM  H15G 8603   2.814   2.826  15.209 -0.0136 -2.7779 -0.1102
   6623SM  C16F 8604   2.968   2.795  15.052  0.0925  0.1342  0.3211
   6623SM  H16F 8605   2.991   2.690  15.027 -0.2054 -0.0103  0.6434
   6623SM  H16G 8606   3.067   2.840  15.027 -0.1033 -0.6619 -2.0454
   6623SM  C17F 8607   2.863   2.849  14.957  0.5514  0.0582  0.1466
   6623SM  H17F 8608   2.826   2.945  15.000 -0.2151 -0.0028 -0.3539
   6623SM  H17G 8609   2.784   2.772  14.947  0.0194  0.2994  2.1017
   6623SM  C18F 8610   2.925   2.882  14.820 -0.4883  0.4682 -0.6509
   6623SM  H18F 8611   2.847   2.872  14.742 -1.8527 -1.6153  0.8646
   6623SM  H18G 8612   2.997   2.802  14.791  0.2568  0.3769  1.3218
   6623SM  C19F 8613   2.982   3.027  14.814  0.2693 -0.0703 -0.6683
   6623SM  H19F 8614   3.076   3.025  14.872  0.4553 -2.5113 -0.9279
   6623SM  H19G 8615   2.908   3.100  14.853 -1.2611 -1.1000 -1.5275
   6623SM  C20F 8616   3.031   3.056  14.671 -0.7175 -0.8283  0.1195
   6623SM  H20F 8617   3.027   3.164  14.644 -1.3959 -1.2009 -1.3536
   6623SM  H20G 8618   2.950   3.012  14.609 -0.8148 -1.5890  0.7838
   6623SM  C21F 8619   3.168   2.995  14.627 -0.1473  0.0098 -0.0731
   6623SM  H21F 8620   3.181   2.894  14.670 -2.6362 -0.2219  0.2989
   6623SM  H21G 8621   3.249   3.060  14.665 -0.7700  0.3163  0.7782
   6623SM  C22F 8622   3.184   2.983  14.473  0.1664  0.2225 -0.4618
   6623SM  H22F 8623   3.095   2.927  14.438  0.2646  1.4609 -2.9040
   6623SM  H22G 8624   3.274   2.925  14.443  1.2577  2.2558 -1.3991
   6623SM  C23F 8625   3.188   3.116  14.398 -0.0490  0.5629 -0.2027
   6623SM  H23F 8626   3.280   3.173  14.422  1.4254 -1.5443 -0.5873
   6623SM  H23G 8627   3.097   3.179  14.408 -0.8203 -0.1965 -1.9097
   6623SM  H23H 8628   3.201   3.098  14.289  2.9174  0.4903  0.0931
   6723SM     N 8629   0.409   6.647  17.575  0.3018 -0.3849 -0.0807
   6723SM   C15 8630   0.281   6.660  17.660  0.0085  0.5317 -0.2220
   6723SM  H15A 8631   0.195   6.685  17.599  0.4181 -3.0715 -2.5162
   6723SM  H15B 8632   0.291   6.744  17.728 -1.1194 -0.6182  1.4288
   6723SM  H15C 8633   0.258   6.571  17.715  0.8692 -0.1882 -0.9967
   6723SM   C14 8634   0.526   6.666  17.671  0.2444 -0.0703 -0.7382
   6723SM  H14A 8635   0.532   6.756  17.730  0.4945  0.1956 -1.1677
   6723SM  H14B 8636   0.621   6.655  17.619  0.7680  2.2702 -0.3699
   6723SM  H14C 8637   0.509   6.586  17.741  1.4593  0.3269  0.0442
   6723SM   C13 8638   0.405   6.508  17.526 -0.2346  0.3974 -0.6294
   6723SM  H13A 8639   0.325   6.496  17.453 -2.2772 -0.1687  1.5652
   6723SM  H13B 8640   0.390   6.440  17.608  1.5448  0.0439 -0.5635
   6723SM  H13C 8641   0.498   6.484  17.478  0.1043  0.5315 -0.0453
   6723SM   C12 8642   0.406   6.760  17.471 -0.6351  0.6949 -0.5322
   6723SM  H12A 8643   0.414   6.854  17.523  0.9385 -0.6191  1.7490
   6723SM  H12B 8644   0.311   6.745  17.422 -2.4683  0.7321  2.7330
   6723SM   C11 8645   0.535   6.769  17.375 -0.6399  0.6314 -0.1016
   6723SM  H11A 8646   0.502   6.841  17.298 -0.7072  0.0566 -0.6210
   6723SM  H11B 8647   0.554   6.664  17.344 -2.2401  0.3825 -0.3145
   6723SM     P 8648   0.768   6.887  17.427 -0.4272 -0.5548  0.0020
   6723SM   O13 8649   0.750   7.015  17.361  0.5309  0.0859 -0.0918
   6723SM   O14 8650   0.853   6.896  17.551  0.2783 -0.2883 -0.2413
   6723SM   O11 8651   0.838   6.779  17.335  0.9563 -0.2097 -0.3667
   6723SM   O12 8652   0.635   6.816  17.467 -0.6255  0.2163  0.8271
   6723SM   C1S 8653   0.794   6.757  17.197 -0.4062  0.0358  0.4065
   6723SM   H1S 8654   0.717   6.831  17.167  0.3480  0.5171 -0.3656
   6723SM   H1T 8655   0.755   6.654  17.182 -3.5000  1.2372 -0.6505
   6723SM    NF 8656   0.860   6.762  16.961  0.3288 -0.6042  0.3466
   6723SM   HNF 8657   0.883   6.678  16.912  0.5752 -0.7024  0.6308
   6723SM   C2S 8658   0.907   6.778  17.098  0.2753 -0.2788 -0.9251
   6723SM   H2S 8659   0.933   6.884  17.118  1.9966 -0.7868 -0.3450
   6723SM   C3S 8660   1.036   6.703  17.139  0.6466 -0.2948 -0.0706
   6723SM   H3S 8661   1.021   6.594  17.128 -0.0079 -0.4893  2.3200
   6723SM    O3 8662   1.093   6.724  17.272  0.4920  0.1129 -0.1580
   6723SM   HO3 8663   1.020   6.768  17.316 -0.6742  0.6395 -2.4239
   6723SM   C4S 8664   1.139   6.742  17.036  0.1149  0.2768 -0.2101
   6723SM   H4S 8665   1.155   6.849  17.012  1.9785  0.0531 -0.1346
   6723SM   C5S 8666   1.205   6.661  16.963 -0.0395  0.6830 -0.6131
   6723SM   H5S 8667   1.167   6.558  16.970 -2.8408  1.7286  1.5914
   6723SM   C6S 8668   1.281   6.691  16.837 -0.8912  0.7659 -0.4987
   6723SM   H6S 8669   1.298   6.595  16.785 -1.2135  0.0510  0.6734
   6723SM   H6T 8670   1.376   6.748  16.851 -0.1445 -0.3783 -0.7918
   6723SM   C7S 8671   1.200   6.772  16.741 -0.3989 -0.3362 -0.2915
   6723SM   H7S 8672   1.169   6.867  16.789 -3.1153 -0.1370 -2.2524
   6723SM   H7T 8673   1.101   6.727  16.720 -1.1602  0.6708  0.9826
   6723SM   C8S 8674   1.257   6.819  16.608 -0.1859 -0.3353  0.0008
   6723SM   H8S 8675   1.355   6.861  16.636  0.5286 -0.5571 -1.9722
   6723SM   H8T 8676   1.209   6.915  16.580 -1.4405 -0.2319  2.2754
   6723SM   C9S 8677   1.277   6.703  16.513 -0.5543  0.1361  0.1514
   6723SM   H9S 8678   1.183   6.649  16.486 -2.0308  2.9844 -0.8059
   6723SM   H9T 8679   1.352   6.636  16.560 -0.4779 -0.6841 -1.0903
   6723SM  C10S 8680   1.339   6.752  16.377 -0.1367  0.6917  0.6516
   6723SM  H10S 8681   1.446   6.773  16.394  0.0566  1.5099 -1.2370
   6723SM  H10T 8682   1.290   6.852  16.370  1.3206  1.5017  1.6903
   6723SM  C11S 8683   1.312   6.679  16.247 -0.0240  0.4320  0.2583
   6723SM  H11S 8684   1.209   6.644  16.227 -0.7902  3.3189 -1.4442
   6723SM  H11T 8685   1.369   6.584  16.245  0.9526  0.9595 -2.9020
   6723SM  C12S 8686   1.330   6.782  16.133  0.1814 -0.0701 -0.2830
   6723SM  H12S 8687   1.434   6.820  16.139  1.0580 -2.5091  2.2842
   6723SM  H12T 8688   1.267   6.872  16.149  2.3099  1.3067  0.7536
   6723SM  C13S 8689   1.297   6.723  15.995  0.6452 -0.2154 -0.6048
   6723SM  H13S 8690   1.197   6.680  16.016  2.1832 -2.1411  4.2891
   6723SM  H13T 8691   1.365   6.639  15.971 -2.1066 -2.5875 -0.5371
   6723SM  C14S 8692   1.307   6.817  15.874  0.5393 -0.2066 -0.1120
   6723SM  H14S 8693   1.310   6.924  15.904 -0.2325 -0.0259 -0.6545
   6723SM  H14T 8694   1.220   6.794  15.808  0.3284 -2.4410  0.8706
   6723SM  C15S 8695   1.431   6.778  15.788 -0.1023  0.1253  0.5753
   6723SM  H15S 8696   1.420   6.667  15.781 -3.1998  0.3338  0.7144
   6723SM  H15T 8697   1.515   6.797  15.858 -1.3930  0.6829  2.0379
   6723SM  C16S 8698   1.446   6.849  15.650 -0.5005 -0.4817 -0.5441
   6723SM  H16S 8699   1.534   6.810  15.594  1.9157  1.7617  1.4084
   6723SM  H16T 8700   1.454   6.959  15.664  2.2947 -0.6857  0.1074
   6723SM  C17S 8701   1.339   6.798  15.547  0.7079 -0.2871 -0.4571
   6723SM  H17S 8702   1.236   6.820  15.584  0.7891 -1.2451  0.3834
   6723SM  H17T 8703   1.351   6.688  15.549 -1.3500 -0.5644 -1.1560
   6723SM  C18S 8704   1.351   6.859  15.407  0.3420  0.3786  0.0163
   6723SM  H18S 8705   1.274   6.814  15.340 -0.9357  1.0465  0.9910
   6723SM  H18T 8706   1.455   6.848  15.372 -0.7124  1.3804 -3.9375
   6723SM  H18U 8707   1.323   6.966  15.409  1.5981  0.7405 -0.8357
   6723SM   C1F 8708   0.782   6.854  16.909 -0.6460 -0.1756  0.4179
   6723SM    OF 8709   0.769   6.963  16.965  0.3286  0.1843 -0.1113
   6723SM   C2F 8710   0.713   6.820  16.775  0.3114 -0.3572 -0.7537
   6723SM   H2F 8711   0.667   6.920  16.761  1.4139  0.6865  2.2959
   6723SM   H2G 8712   0.636   6.741  16.789  0.2494 -0.1027  0.4201
   6723SM   C3F 8713   0.811   6.795  16.667 -0.1150 -0.6327 -0.1875
   6723SM   H3F 8714   0.842   6.688  16.668 -0.9564 -0.8970  0.7400
   6723SM   H3G 8715   0.900   6.860  16.682  0.7260 -1.9374  0.7417
   6723SM   C4F 8716   0.758   6.817  16.524  0.2171  0.0539  0.4932
   6723SM   H4F 8717   0.707   6.916  16.518  0.5273  0.1800 -0.2676
   6723SM   H4G 8718   0.686   6.736  16.499  0.3565 -0.7684  2.6139
   6723SM   C5F 8719   0.873   6.813  16.415  0.3331  0.1823 -0.3443
   6723SM   H5F 8720   0.911   6.709  16.412  0.5400  0.1351  1.9430
   6723SM   H5G 8721   0.954   6.886  16.437 -1.0710  1.2493  1.6816
   6723SM   C6F 8722   0.812   6.859  16.277  0.2348  0.2049  0.1008
   6723SM   H6F 8723   0.803   6.970  16.275 -1.6792  0.0762  0.1703
   6723SM   H6G 8724   0.714   6.809  16.262  0.4676  0.5578 -3.1686
   6723SM   C7F 8725   0.913   6.835  16.163  0.5630  0.0857  0.6085
   6723SM   H7F 8726   0.926   6.725  16.158 -0.4460 -0.0190 -0.1228
   6723SM   H7G 8727   1.009   6.882  16.192  0.7335 -0.0084  0.1965
   6723SM   C8F 8728   0.860   6.906  16.039  0.0752 -0.1668  0.1555
   6723SM   H8F 8729   0.860   7.014  16.065 -1.2151 -0.0236 -0.3925
   6723SM   H8G 8730   0.755   6.884  16.011  0.0642  0.2262 -0.1301
   6723SM   C9F 8731   0.936   6.886  15.913  0.4814 -0.1055  0.3721
   6723SM   H9F 8732   0.920   6.780  15.884 -3.8395  0.6198 -0.4602
   6723SM   H9G 8733   1.044   6.899  15.939  0.6118  2.3678 -1.0596
   6723SM  C10F 8734   0.909   6.981  15.795 -0.5244 -0.2044 -0.0570
   6723SM  H10F 8735   0.941   7.086  15.806 -1.1293  0.0789 -0.8817
   6723SM  H10G 8736   0.799   6.980  15.775 -0.6189  2.1738  0.1191
   6723SM  C11F 8737   0.969   6.952  15.654  0.1475  0.4786  0.2309
   6723SM  H11F 8738   0.964   6.842  15.639  1.0562  0.5957 -1.0759
   6723SM  H11G 8739   1.077   6.977  15.647  0.6761 -1.7015 -0.0600
   6723SM  C12F 8740   0.899   7.016  15.528  0.2312 -0.7434  0.7848
   6723SM  H12F 8741   0.799   6.969  15.518  0.2594 -0.3833 -2.3210
   6723SM  H12G 8742   0.962   6.971  15.448  1.4891 -1.3980  2.0909
   6723SM  C13F 8743   0.898   7.167  15.526 -0.2879 -0.3812  0.1579
   6723SM  H13F 8744   0.999   7.213  15.535 -1.2305  2.0737 -0.7613
   6723SM  H13G 8745   0.841   7.198  15.616 -0.5449 -0.8429  0.1577
   6723SM  C14F 8746   0.818   7.218  15.401 -0.3509  0.3550 -0.0189
   6723SM  H14F 8747   0.776   7.318  15.426 -3.3405 -0.3191 -1.7944
   6723SM  H14G 8748   0.730   7.153  15.382 -1.6138  1.9078  0.3209
   6723SM  C15F 8749   0.896   7.218  15.267  0.4664 -0.4257  0.7850
   6723SM  H15F 8750   0.929   7.114  15.244  3.9529  0.6135  0.5186
   6723SM  H15G 8751   0.991   7.275  15.272  0.4677 -0.5313  2.6377
   6723SM  C16F 8752   0.808   7.265  15.150 -0.2355 -0.0120 -0.4583
   6723SM  H16F 8753   0.798   7.374  15.165  1.7523  0.4455 -1.9239
   6723SM  H16G 8754   0.710   7.216  15.169  0.4250 -1.0220  0.4478
   6723SM  C17F 8755   0.862   7.239  15.009 -1.0667  0.0331  0.3152
   6723SM  H17F 8756   0.892   7.134  15.031  0.3437  0.7120  1.9559
   6723SM  H17G 8757   0.949   7.303  14.984  0.5426 -1.5657  1.4902
   6723SM  C18F 8758   0.751   7.243  14.902 -0.3384  0.0170  0.2009
   6723SM  H18F 8759   0.678   7.170  14.944 -0.1645  0.0669  0.5914
   6723SM  H18G 8760   0.795   7.211  14.804 -0.3524  0.2757  0.1097
   6723SM  C19F 8761   0.694   7.384  14.878 -0.0818  0.4695 -0.2633
   6723SM  H19F 8762   0.788   7.443  14.872  0.7598 -0.9086 -0.8106
   6723SM  H19G 8763   0.641   7.407  14.974 -1.3078  1.2462 -1.0982
   6723SM  C20F 8764   0.604   7.407  14.757  0.4890 -0.4043  0.5259
   6723SM  H20F 8765   0.663   7.397  14.664  0.9617 -0.6542  0.8494
   6723SM  H20G 8766   0.570   7.513  14.749  0.9862 -0.1664  1.4436
   6723SM  C21F 8767   0.481   7.310  14.747  0.2820  0.8059  0.2296
   6723SM  H21F 8768   0.404   7.326  14.825  1.3811  1.2998  1.2464
   6723SM  H21G 8769   0.510   7.204  14.760  0.7787  0.4360 -2.9431
   6723SM  C22F 8770   0.414   7.322  14.609 -0.6335  0.0113 -0.6405
   6723SM  H22F 8771   0.478   7.267  14.537  0.0151 -0.6781  0.4264
   6723SM  H22G 8772   0.420   7.431  14.590 -2.9618  0.6464  1.6310
   6723SM  C23F 8773   0.269   7.268  14.609 -0.2569  0.3025  0.4888
   6723SM  H23F 8774   0.277   7.159  14.630  2.0387 -0.0290 -1.5766
   6723SM  H23G 8775   0.212   7.290  14.517  0.9024 -1.2625 -0.6686
   6723SM  H23H 8776   0.216   7.318  14.693 -1.5383 -0.0917 -0.0715
   6823SM     N 8777   3.031   2.089  17.502 -0.3701 -0.0562 -0.5033
   6823SM   C15 8778   3.091   2.039  17.638 -0.2288 -0.4493  0.9094
   6823SM  H15A 8779   3.078   1.933  17.651 -1.0668 -0.4154  0.4479
   6823SM  H15B 8780   3.046   2.097  17.717  0.9768 -0.4147  1.5869
   6823SM  H15C 8781   3.194   2.072  17.640 -0.6052  0.9341 -0.3035
   6823SM   C14 8782   3.099   2.220  17.474  0.1186 -0.2564  0.6030
   6823SM  H14A 8783   3.059   2.263  17.383  1.3757 -0.2738  0.0188
   6823SM  H14B 8784   3.206   2.208  17.469 -0.1160 -2.5651 -0.3159
   6823SM  H14C 8785   3.073   2.294  17.548  0.7801  0.3678  0.2226
   6823SM   C13 8786   3.062   1.996  17.394 -0.7481 -0.4494 -0.0996
   6823SM  H13A 8787   3.168   2.007  17.376 -0.7057 -0.0935  0.3611
   6823SM  H13B 8788   3.008   2.013  17.302 -1.1763  1.3294  0.4389
   6823SM  H13C 8789   3.052   1.893  17.425  0.4910 -0.3985  0.5436
   6823SM   C12 8790   2.881   2.099  17.517 -0.4726 -0.1881 -0.1265
   6823SM  H12A 8791   2.839   2.147  17.430  0.8142 -0.1743 -0.7764
   6823SM  H12B 8792   2.860   2.159  17.604  0.6362 -0.4952  0.3813
   6823SM   C11 8793   2.812   1.966  17.543  0.1897  0.5253 -0.6198
   6823SM  H11A 8794   2.723   1.991  17.604 -0.8375 -1.2907 -1.2913
   6823SM  H11B 8795   2.879   1.902  17.605 -2.7221 -2.0070  0.1571
   6823SM     P 8796   2.796   1.737  17.413 -0.2466 -0.2883  0.3360
   6823SM   O13 8797   2.935   1.697  17.453  0.0800 -0.2697 -0.2752
   6823SM   O14 8798   2.685   1.682  17.485  0.1373  0.3088 -0.1107
   6823SM   O11 8799   2.773   1.708  17.266 -0.3110  0.1899  0.8086
   6823SM   O12 8800   2.781   1.899  17.424  0.0329 -0.0753  0.3862
   6823SM   C1S 8801   2.793   1.783  17.150  0.3132  0.5377 -0.8259
   6823SM   H1S 8802   2.895   1.826  17.139  0.3390  1.2879  1.6528
   6823SM   H1T 8803   2.724   1.870  17.159 -2.6839 -1.8799  2.4724
   6823SM    NF 8804   2.807   1.771  16.910  0.6134  0.0547 -0.2452
   6823SM   HNF 8805   2.730   1.814  16.863  0.0265  0.1564  0.7955
   6823SM   C2S 8806   2.779   1.695  17.032  0.3374  0.2929  0.8669
   6823SM   H2S 8807   2.854   1.615  17.046 -0.6630 -1.0469 -1.0089
   6823SM   C3S 8808   2.645   1.615  17.021  0.4203 -0.4903 -0.3016
   6823SM   H3S 8809   2.567   1.694  17.029  1.0308  0.0802  0.1015
   6823SM    O3 8810   2.617   1.525  17.136  0.0851  0.3756  0.4645
   6823SM   HO3 8811   2.672   1.567  17.203  0.3770 -0.3475  0.6827
   6823SM   C4S 8812   2.633   1.544  16.891 -0.1907 -0.3836 -0.9614
   6823SM   H4S 8813   2.706   1.468  16.858  0.8364 -0.1452  0.6719
   6823SM   C5S 8814   2.519   1.540  16.818 -0.0895 -0.7947  0.5157
   6823SM   H5S 8815   2.432   1.604  16.840 -0.1198 -0.7298  0.2112
   6823SM   C6S 8816   2.503   1.459  16.688 -0.3900 -0.8338 -0.6139
   6823SM   H6S 8817   2.395   1.434  16.683 -0.2660 -1.3883 -0.5867
   6823SM   H6T 8818   2.566   1.368  16.697  0.2337 -0.2495  1.4117
   6823SM   C7S 8819   2.541   1.527  16.554 -0.3672 -0.2943 -0.6554
   6823SM   H7S 8820   2.480   1.618  16.538 -1.9017 -0.6801  2.2430
   6823SM   H7T 8821   2.505   1.450  16.483  0.9593 -2.1267  0.5777
   6823SM   C8S 8822   2.691   1.538  16.550  0.3151  0.0195 -0.3830
   6823SM   H8S 8823   2.741   1.439  16.550  0.1482 -0.0685 -1.0670
   6823SM   H8T 8824   2.718   1.588  16.646 -0.5115 -1.7842  0.8316
   6823SM   C9S 8825   2.752   1.620  16.438  0.5030 -0.3302 -0.0320
   6823SM   H9S 8826   2.860   1.641  16.454  0.1893  2.0853 -0.6983
   6823SM   H9T 8827   2.706   1.721  16.439 -2.4504 -1.5721  0.9775
   6823SM  C10S 8828   2.728   1.572  16.296 -0.8247 -0.4026 -0.0947
   6823SM  H10S 8829   2.618   1.563  16.283 -0.8275 -0.6377  0.0947
   6823SM  H10T 8830   2.769   1.471  16.275 -2.6960 -0.8650 -1.7628
   6823SM  C11S 8831   2.782   1.660  16.182  0.3282  0.1010  0.0153
   6823SM  H11S 8832   2.892   1.675  16.187  0.2179  0.7906  0.5266
   6823SM  H11T 8833   2.730   1.758  16.178 -0.9759 -0.5111  1.1339
   6823SM  C12S 8834   2.763   1.588  16.049  0.6003 -0.5223  0.1423
   6823SM  H12S 8835   2.655   1.570  16.029 -0.0803  1.0341  1.9690
   6823SM  H12T 8836   2.821   1.494  16.048  0.8098 -0.3942  0.2149
   6823SM  C13S 8837   2.810   1.683  15.941 -0.3904 -0.2512  0.4798
   6823SM  H13S 8838   2.911   1.716  15.974 -0.2481 -0.6410  0.4484
   6823SM  H13T 8839   2.736   1.765  15.932 -1.1351 -1.0068 -0.4976
   6823SM  C14S 8840   2.835   1.617  15.806 -0.0861  0.3725 -0.5868
   6823SM  H14S 8841   2.749   1.549  15.787  0.5156 -0.2205 -1.2771
   6823SM  H14T 8842   2.923   1.550  15.812 -0.5950 -0.1829  1.5615
   6823SM  C15S 8843   2.846   1.716  15.695  0.5887 -0.0593 -0.1702
   6823SM  H15S 8844   2.946   1.760  15.714  0.3554  0.9988 -1.3198
   6823SM  H15T 8845   2.769   1.796  15.699  0.9562  0.2456  1.5932
   6823SM  C16S 8846   2.864   1.655  15.558 -0.4165 -0.6511 -0.2816
   6823SM  H16S 8847   2.770   1.635  15.503  2.5560 -0.3697 -6.2389
   6823SM  H16T 8848   2.910   1.555  15.575  1.5985  0.2385 -0.0881
   6823SM  C17S 8849   2.956   1.737  15.472 -0.1299 -0.7511 -0.5307
   6823SM  H17S 8850   3.055   1.738  15.522  0.1646 -1.2676 -1.0825
   6823SM  H17T 8851   2.932   1.844  15.458  1.8499  0.0715  1.7527
   6823SM  C18S 8852   2.976   1.671  15.337 -0.1523  0.1105  0.5589
   6823SM  H18S 8853   3.048   1.731  15.277  0.1966 -0.8790 -0.0285
   6823SM  H18T 8854   2.884   1.654  15.278  1.9222 -0.5938 -2.7571
   6823SM  H18U 8855   3.015   1.567  15.344  1.8127  0.6852 -0.8468
   6823SM   C1F 8856   2.927   1.815  16.884 -0.0910 -0.3601  0.0135
   6823SM    OF 8857   3.021   1.775  16.951 -0.1851 -0.1219  0.4979
   6823SM   C2F 8858   2.937   1.929  16.788  0.1453 -0.3353 -0.1203
   6823SM   H2F 8859   3.026   1.991  16.811 -0.0063 -0.4874  0.9048
   6823SM   H2G 8860   2.842   1.983  16.806  1.4985  2.2315 -0.2359
   6823SM   C3F 8861   2.949   1.885  16.645 -0.2107 -0.4550  0.2409
   6823SM   H3F 8862   2.880   1.798  16.637 -1.6247  0.6830 -0.5262
   6823SM   H3G 8863   3.050   1.843  16.629  1.1670  3.1885 -1.8466
   6823SM   C4F 8864   2.929   1.999  16.548 -0.2836  0.4044 -0.4996
   6823SM   H4F 8865   3.021   2.060  16.558 -0.4445  0.2880  2.3576
   6823SM   H4G 8866   2.845   2.064  16.578 -2.0237 -1.2286 -1.5964
   6823SM   C5F 8867   2.904   1.955  16.405  0.4760 -0.0178 -0.2313
   6823SM   H5F 8868   2.812   1.894  16.398  1.2669 -1.2287 -0.4200
   6823SM   H5G 8869   2.981   1.883  16.372 -0.7074 -0.7855 -1.3674
   6823SM   C6F 8870   2.898   2.074  16.305 -0.4711  0.0438 -0.7526
   6823SM   H6F 8871   3.002   2.112  16.296 -0.2295 -0.1291  1.0588
   6823SM   H6G 8872   2.830   2.149  16.350  0.6835 -0.2433  1.5905
   6823SM   C7F 8873   2.857   2.024  16.165  0.1705  1.2543  0.3435
   6823SM   H7F 8874   2.751   1.990  16.168  0.6005 -0.2024 -0.1753
   6823SM   H7G 8875   2.923   1.939  16.141 -0.4487  0.5551  1.0446
   6823SM   C8F 8876   2.877   2.129  16.057 -0.0913 -0.2381  0.1629
   6823SM   H8F 8877   2.986   2.153  16.058 -0.1085 -0.0742 -0.9847
   6823SM   H8G 8878   2.824   2.224  16.078 -0.7884 -0.3348 -1.0875
   6823SM   C9F 8879   2.831   2.083  15.915  0.1238  0.6388  0.4840
   6823SM   H9F 8880   2.724   2.053  15.908  0.0273  0.5216  1.9773
   6823SM   H9G 8881   2.893   1.994  15.889 -1.1336  0.1557 -0.9966
   6823SM  C10F 8882   2.858   2.184  15.803 -0.9227  0.6305  0.5325
   6823SM  H10F 8883   2.952   2.240  15.821  0.1033  0.0276 -2.3376
   6823SM  H10G 8884   2.777   2.259  15.813 -1.4813  0.4990 -2.2361
   6823SM  C11F 8885   2.866   2.131  15.661 -0.0726 -0.1305  0.7564
   6823SM  H11F 8886   2.769   2.084  15.632 -1.8587  2.9930  1.1844
   6823SM  H11G 8887   2.950   2.060  15.649 -0.7310 -0.7548 -0.3004
   6823SM  C12F 8888   2.894   2.254  15.565 -0.1349  0.0078 -0.5424
   6823SM  H12F 8889   2.985   2.303  15.605 -0.3577 -0.4809  0.6209
   6823SM  H12G 8890   2.805   2.316  15.590  0.0750  0.1564 -0.1498
   6823SM  C13F 8891   2.885   2.214  15.420  0.2108  0.3328 -0.9031
   6823SM  H13F 8892   2.782   2.177  15.400  0.0430 -1.6399  2.7897
   6823SM  H13G 8893   2.944   2.123  15.394 -1.0282 -1.3662  1.7994
   6823SM  C14F 8894   2.902   2.336  15.329 -0.8973  0.8306  1.0683
   6823SM  H14F 8895   3.004   2.335  15.284 -0.4577 -2.4076  1.8114
   6823SM  H14G 8896   2.880   2.436  15.370  1.4772  2.1225 -0.5987
   6823SM  C15F 8897   2.815   2.321  15.204  0.0809 -0.7546 -0.5272
   6823SM  H15F 8898   2.831   2.414  15.146 -0.8260  1.1934  2.1657
   6823SM  H15G 8899   2.709   2.327  15.237 -0.3503  0.3246 -1.9768
   6823SM  C16F 8900   2.849   2.194  15.117 -0.3736  0.1938 -0.2074
   6823SM  H16F 8901   2.803   2.100  15.156  0.9650 -0.7468 -0.8409
   6823SM  H16G 8902   2.958   2.172  15.113 -0.4702 -0.2944 -0.2938
   6823SM  C17F 8903   2.792   2.214  14.980 -0.0542 -0.1448  0.8230
   6823SM  H17F 8904   2.687   2.250  14.989  0.6720  1.7903  1.9401
   6823SM  H17G 8905   2.786   2.109  14.943  1.0593 -1.6831  4.5787
   6823SM  C18F 8906   2.867   2.304  14.887  0.4418  0.0364  0.6446
   6823SM  H18F 8907   2.970   2.264  14.880 -0.0177 -1.1324  0.4711
   6823SM  H18G 8908   2.875   2.409  14.923  3.1551  0.4101 -0.8048
   6823SM  C19F 8909   2.804   2.319  14.744 -0.0566  0.2447 -0.4908
   6823SM  H19F 8910   2.710   2.376  14.760  0.8788  1.3082  1.6294
   6823SM  H19G 8911   2.776   2.219  14.705 -2.0986  0.6339 -0.1531
   6823SM  C20F 8912   2.899   2.395  14.656  0.2259 -0.5061 -0.7671
   6823SM  H20F 8913   2.884   2.354  14.553 -1.4206 -1.2158 -0.2757
   6823SM  H20G 8914   3.006   2.370  14.676  0.2585 -0.4740 -0.8953
   6823SM  C21F 8915   2.880   2.548  14.656 -0.0099  0.0689 -0.0795
   6823SM  H21F 8916   2.946   2.585  14.737 -1.0582 -0.6826  1.1516
   6823SM  H21G 8917   2.776   2.566  14.688  0.0816 -0.2232  0.4014
   6823SM  C22F 8918   2.912   2.605  14.523 -0.1536 -0.2489 -0.3582
   6823SM  H22F 8919   2.874   2.710  14.526 -2.2431 -0.9814  0.6462
   6823SM  H22G 8920   2.862   2.562  14.434  0.6363  1.5967 -1.7705
   6823SM  C23F 8921   3.067   2.615  14.495  0.1137  0.1977 -0.1967
   6823SM  H23F 8922   3.112   2.518  14.528  0.1248  0.3787  0.3430
   6823SM  H23G 8923   3.126   2.692  14.550  2.2467  0.3987 -2.5873
   6823SM  H23H 8924   3.086   2.641  14.389  0.3308 -1.3688 -0.5741
   6923SM     N 8925   3.428   3.143  17.937 -0.1233  0.8862 -1.8261
   6923SM   C15 8926   3.312   3.232  17.926 -0.2063 -0.1916 -0.1298
   6923SM  H15A 8927   3.294   3.252  17.821  0.1229  0.2875 -0.1021
   6923SM  H15B 8928   3.337   3.323  17.978 -1.0550 -0.1715  0.2495
   6923SM  H15C 8929   3.220   3.196  17.968 -0.6228  1.5731  0.5538
   6923SM   C14 8930   3.552   3.224  17.911 -1.1158 -0.6606  0.2012
   6923SM  H14A 8931   3.560   3.259  17.810  1.6889 -1.3041  0.1076
   6923SM  H14B 8932   3.641   3.163  17.924  0.6656  1.8839  0.7877
   6923SM  H14C 8933   3.552   3.318  17.965 -0.3312  0.6697 -2.0189
   6923SM   C13 8934   3.424   3.095  18.087  0.0563  0.8417 -0.1529
   6923SM  H13A 8935   3.439   3.178  18.155 -0.6021  0.7659  0.0865
   6923SM  H13B 8936   3.504   3.024  18.104  0.1784  1.4676  2.2413
   6923SM  H13C 8937   3.332   3.044  18.112  0.9353 -0.6284  0.2315
   6923SM   C12 8938   3.406   3.029  17.849 -0.2417 -0.3343  0.9320
   6923SM  H12A 8939   3.309   2.991  17.879  0.3820  0.3869  4.2648
   6923SM  H12B 8940   3.487   2.960  17.864 -0.5524 -1.3217 -1.4482
   6923SM   C11 8941   3.417   3.060  17.700  0.4060 -1.0250  0.1465
   6923SM  H11A 8942   3.346   3.140  17.670  0.9477 -0.9521 -1.0131
   6923SM  H11B 8943   3.390   2.979  17.629  2.9020 -1.0542 -0.8631
   6923SM     P 8944   3.666   3.020  17.615  0.0030 -0.4152 -0.2072
   6923SM   O13 8945   3.791   3.061  17.678  0.3829 -0.2040  0.6560
   6923SM   O14 8946   3.635   2.879  17.621  0.6370 -0.1819  0.1043
   6923SM   O11 8947   3.677   3.070  17.467  0.9865  0.3135 -0.3801
   6923SM   O12 8948   3.546   3.106  17.663  0.5025 -0.3044 -0.8863
   6923SM   C1S 8949   3.569   3.045  17.380 -0.1661 -0.6807  0.3279
   6923SM   H1S 8950   3.489   3.122  17.379 -0.5826 -1.1017 -0.7435
   6923SM   H1T 8951   3.530   2.943  17.400  0.5210 -0.7643  1.3293
   6923SM    NF 8952   3.505   3.019  17.138  0.0390 -0.1872  0.1289
   6923SM   HNF 8953   3.481   2.922  17.130  0.1500 -0.0716 -2.4657
   6923SM   C2S 8954   3.610   3.039  17.230  0.3955  0.0940 -0.4670
   6923SM   H2S 8955   3.653   3.138  17.203  0.9145 -0.0150 -0.0451
   6923SM   C3S 8956   3.722   2.930  17.219  0.0328 -0.2821  0.2012
   6923SM   H3S 8957   3.696   2.828  17.255  0.0277  0.4997  2.6115
   6923SM    O3 8958   3.832   2.973  17.299 -0.0768 -0.5379 -0.1114
   6923SM   HO3 8959   3.782   3.023  17.365  0.0909 -0.5706  0.0396
   6923SM   C4S 8960   3.777   2.935  17.081  0.5948 -0.3235  0.4423
   6923SM   H4S 8961   3.818   3.031  17.045  0.8842 -1.1560 -1.5563
   6923SM   C5S 8962   3.775   2.845  16.982  0.6436 -0.3450  0.5281
   6923SM   H5S 8963   3.722   2.750  16.996 -0.3089  0.3798  2.1257
   6923SM   C6S 8964   3.827   2.863  16.843  0.1115  0.5403 -0.6571
   6923SM   H6S 8965   3.858   2.966  16.812 -0.8405  0.3579 -2.3330
   6923SM   H6T 8966   3.749   2.833  16.770  2.8698 -1.2484 -3.1032
   6923SM   C7S 8967   3.952   2.767  16.823  0.2883 -0.0472  0.3319
   6923SM   H7S 8968   3.922   2.676  16.877 -1.8267 -0.2129 -1.0022
   6923SM   H7T 8969   4.035   2.818  16.876 -1.1176 -0.5316  3.2265
   6923SM   C8S 8970   3.985   2.741  16.679  0.1735  0.2871  0.7123
   6923SM   H8S 8971   4.090   2.704  16.676  0.0445 -0.0284 -0.2884
   6923SM   H8T 8972   3.979   2.835  16.620  1.4593 -0.2112 -0.2381
   6923SM   C9S 8973   3.887   2.642  16.606 -0.6476 -0.1410 -1.0076
   6923SM   H9S 8974   3.786   2.682  16.630 -0.2110 -0.4515  1.6087
   6923SM   H9T 8975   3.891   2.543  16.655  0.3211  0.4661  0.1709
   6923SM  C10S 8976   3.905   2.642  16.457  0.8072  0.1681 -0.7896
   6923SM  H10S 8977   3.990   2.577  16.427  2.0163  1.0846  0.4646
   6923SM  H10T 8978   3.919   2.745  16.417 -1.0065  0.9471  0.4528
   6923SM  C11S 8979   3.774   2.596  16.378  0.8919  0.2908  0.3779
   6923SM  H11S 8980   3.692   2.668  16.395  0.6565  1.0231 -3.0362
   6923SM  H11T 8981   3.752   2.491  16.405  0.7987 -1.2494 -4.6958
   6923SM  C12S 8982   3.797   2.592  16.227 -0.0061  0.3923  0.1488
   6923SM  H12S 8983   3.885   2.529  16.202 -1.3144 -0.9665 -1.2794
   6923SM  H12T 8984   3.825   2.695  16.197 -0.4647  0.2256 -0.8931
   6923SM  C13S 8985   3.676   2.545  16.147  0.2350 -0.1142  0.1781
   6923SM  H13S 8986   3.591   2.613  16.171  2.6370  2.5461  1.8875
   6923SM  H13T 8987   3.650   2.439  16.167 -0.0544  0.2888  2.2201
   6923SM  C14S 8988   3.687   2.555  15.991 -0.4337  0.0171 -0.6268
   6923SM  H14S 8989   3.661   2.654  15.949  0.4521  0.4589 -0.1765
   6923SM  H14T 8990   3.606   2.494  15.947 -0.9365 -0.1767  0.5203
   6923SM  C15S 8991   3.816   2.491  15.945  0.2253 -0.0774 -0.1642
   6923SM  H15S 8992   3.840   2.403  16.008 -0.7382 -1.2265 -1.3436
   6923SM  H15T 8993   3.888   2.575  15.958 -0.1698  0.1698  0.4699
   6923SM  C16S 8994   3.811   2.453  15.796  0.4742 -0.0150 -0.5046
   6923SM  H16S 8995   3.724   2.388  15.773  0.6787 -0.1635 -0.8648
   6923SM  H16T 8996   3.905   2.408  15.758  0.3187  0.7492 -1.8801
   6923SM  C17S 8997   3.783   2.577  15.709  0.0700 -0.0352  0.5669
   6923SM  H17S 8998   3.853   2.661  15.732  0.5817 -0.7630  1.7482
   6923SM  H17T 8999   3.680   2.608  15.737 -0.0370  0.1672 -0.0286
   6923SM  C18S 9000   3.794   2.547  15.562 -0.2925 -0.1664 -0.2599
   6923SM  H18S 9001   3.734   2.620  15.503  0.3975  1.2626  0.7392
   6923SM  H18T 9002   3.762   2.441  15.551 -0.0765 -0.2075 -0.4958
   6923SM  H18U 9003   3.895   2.531  15.518 -0.7647 -3.2930 -0.4197
   6923SM   C1F 9004   3.406   3.102  17.108 -0.3216 -0.3400 -0.3471
   6923SM    OF 9005   3.416   3.217  17.136 -0.0451 -0.2219 -0.6466
   6923SM   C2F 9006   3.278   3.044  17.055  0.2395  0.0116 -0.3995
   6923SM   H2F 9007   3.201   3.124  17.061  1.3579  1.2270 -1.4258
   6923SM   H2G 9008   3.238   2.950  17.098 -0.3700  0.7545  0.6788
   6923SM   C3F 9009   3.306   3.003  16.907  0.0293  0.3088 -0.1315
   6923SM   H3F 9010   3.220   2.950  16.861  0.7946  0.6446 -2.0467
   6923SM   H3G 9011   3.385   2.924  16.910 -1.9383 -1.7605 -0.1572
   6923SM   C4F 9012   3.349   3.123  16.822  0.2791 -0.1219  0.4993
   6923SM   H4F 9013   3.422   3.085  16.747 -1.0703 -0.4533 -0.6829
   6923SM   H4G 9014   3.406   3.204  16.873  0.6285  0.6774 -1.1028
   6923SM   C5F 9015   3.234   3.185  16.755  0.3621  0.3262 -0.3336
   6923SM   H5F 9016   3.163   3.227  16.829  1.1944 -0.3337  0.8667
   6923SM   H5G 9017   3.173   3.113  16.696  1.2924  0.7614 -1.8697
   6923SM   C6F 9018   3.263   3.281  16.642  0.2162  0.1954 -0.6182
   6923SM   H6F 9019   3.344   3.245  16.574  0.4004 -0.4250 -0.0743
   6923SM   H6G 9020   3.306   3.373  16.687 -1.1263  0.1810  0.7674
   6923SM   C7F 9021   3.128   3.325  16.569  0.1942 -0.0060 -0.0481
   6923SM   H7F 9022   3.144   3.433  16.549 -1.9184  0.3132 -0.2622
   6923SM   H7G 9023   3.049   3.322  16.648 -0.3453  0.8226 -0.5371
   6923SM   C8F 9024   3.095   3.251  16.447 -0.0939 -0.0620  0.4097
   6923SM   H8F 9025   2.987   3.259  16.423  0.3399  3.5276 -0.8556
   6923SM   H8G 9026   3.111   3.141  16.457 -2.5354 -0.8970 -3.0869
   6923SM   C9F 9027   3.176   3.302  16.322  0.2881  0.2996 -0.1273
   6923SM   H9F 9028   3.276   3.309  16.370 -1.1366  0.2277  3.0980
   6923SM   H9G 9029   3.143   3.406  16.304 -0.0791 -0.0848 -1.8085
   6923SM  C10F 9030   3.178   3.207  16.201  0.6882 -0.0011 -0.2858
   6923SM  H10F 9031   3.082   3.155  16.183  0.4406  0.7333 -1.1804
   6923SM  H10G 9032   3.257   3.132  16.222 -0.1486 -0.9475 -0.4273
   6923SM  C11F 9033   3.205   3.276  16.069  0.3379  0.0311 -0.5103
   6923SM  H11F 9034   3.288   3.349  16.077  1.5553 -1.4060  0.4217
   6923SM  H11G 9035   3.113   3.332  16.043 -0.0571  0.5908  1.8235
   6923SM  C12F 9036   3.231   3.174  15.954 -0.0710 -0.3102 -0.0464
   6923SM  H12F 9037   3.150   3.098  15.954  0.2200 -0.6242 -0.9538
   6923SM  H12G 9038   3.327   3.122  15.971 -0.8251 -1.3018  1.3271
   6923SM  C13F 9039   3.245   3.232  15.810 -0.4222 -0.9364 -0.2395
   6923SM  H13F 9040   3.302   3.166  15.742  2.0872  1.2697 -0.4069
   6923SM  H13G 9041   3.307   3.324  15.813  0.7947 -1.7659  1.0328
   6923SM  C14F 9042   3.108   3.265  15.754  1.4594 -0.2879  0.7408
   6923SM  H14F 9043   3.073   3.361  15.797  0.7223 -0.1834 -0.0506
   6923SM  H14G 9044   3.032   3.187  15.777 -0.5087  1.9008  1.9937
   6923SM  C15F 9045   3.120   3.297  15.607  0.2816 -0.0394  0.1890
   6923SM  H15F 9046   3.198   3.372  15.582  1.5666 -1.2209  0.5394
   6923SM  H15G 9047   3.022   3.321  15.560 -0.1113  0.1925  1.0951
   6923SM  C16F 9048   3.164   3.179  15.519 -0.1722 -0.8756 -0.1074
   6923SM  H16F 9049   3.102   3.091  15.545 -2.8201  0.5896 -1.0802
   6923SM  H16G 9050   3.267   3.148  15.545  0.0294  0.8139  1.3348
   6923SM  C17F 9051   3.183   3.211  15.367  0.2772  0.0629  0.6415
   6923SM  H17F 9052   3.241   3.126  15.326 -0.8446  0.5152 -2.0806
   6923SM  H17G 9053   3.240   3.306  15.360  1.0380 -0.5188 -1.9683
   6923SM  C18F 9054   3.046   3.229  15.294  0.0958  0.4383 -0.0252
   6923SM  H18F 9055   2.998   3.313  15.348  1.9173  1.1387  0.5734
   6923SM  H18G 9056   2.996   3.131  15.310  1.1357 -0.1839 -0.4572
   6923SM  C19F 9057   3.060   3.245  15.144 -0.1455  0.6143  0.2742
   6923SM  H19F 9058   3.084   3.142  15.110  0.6789  0.0877  2.3127
   6923SM  H19G 9059   3.150   3.301  15.113 -1.3199  1.5952 -1.4986
   6923SM  C20F 9060   2.927   3.283  15.079  0.3224 -0.1445 -0.0101
   6923SM  H20F 9061   2.849   3.238  15.145  0.5854  0.7414  0.9295
   6923SM  H20G 9062   2.921   3.233  14.980 -0.0108 -0.9550  0.4077
   6923SM  C21F 9063   2.895   3.434  15.069 -0.7901  0.2941 -0.2200
   6923SM  H21F 9064   2.980   3.488  15.022  0.6747 -1.8521 -0.2158
   6923SM  H21G 9065   2.867   3.477  15.167  0.0989  0.7614 -0.1648
   6923SM  C22F 9066   2.773   3.448  14.974 -0.0816 -0.1235 -0.3511
   6923SM  H22F 9067   2.685   3.400  15.022  0.5245 -2.0836 -1.1050
   6923SM  H22G 9068   2.797   3.400  14.877  1.6622  1.4905 -0.7733
   6923SM  C23F 9069   2.743   3.593  14.945  0.0073 -0.7949  0.1607
   6923SM  H23F 9070   2.729   3.657  15.034 -1.6879  0.9859 -1.3030
   6923SM  H23G 9071   2.649   3.599  14.886  0.2449 -0.5499 -0.1954
   6923SM  H23H 9072   2.829   3.645  14.898  2.6173 -3.6582  1.4372
   7023SM     N 9073   3.599   1.608  17.357  0.0468 -0.5646 -0.4802
   7023SM   C15 9074   3.468   1.656  17.327  0.4005 -0.3349  0.0632
   7023SM  H15A 9075   3.460   1.681  17.223 -1.8214 -0.6746  0.1003
   7023SM  H15B 9076   3.448   1.753  17.370 -1.5836 -0.8596  0.4406
   7023SM  H15C 9077   3.392   1.581  17.341 -0.4284  0.4872  0.0404
   7023SM   C14 9078   3.608   1.582  17.502  0.5696  0.1802 -0.2918
   7023SM  H14A 9079   3.697   1.533  17.539  0.7507  0.8814  0.2132
   7023SM  H14B 9080   3.527   1.519  17.536 -0.7582  1.4764 -0.9450
   7023SM  H14C 9081   3.597   1.671  17.562  0.0493 -1.4494  2.1837
   7023SM   C13 9082   3.623   1.482  17.282 -0.3983  0.4123 -0.5690
   7023SM  H13A 9083   3.552   1.408  17.315 -0.2059  0.9911  1.2819
   7023SM  H13B 9084   3.721   1.450  17.316 -1.0948 -0.3082  0.8474
   7023SM  H13C 9085   3.616   1.505  17.177 -1.2788 -1.7443 -1.0308
   7023SM   C12 9086   3.704   1.711  17.324 -0.3740 -0.0029  0.2609
   7023SM  H12A 9087   3.797   1.691  17.375  0.9574  3.6874 -0.4269
   7023SM  H12B 9088   3.670   1.807  17.360  1.1428  0.7399 -0.1750
   7023SM   C11 9089   3.748   1.741  17.175  0.4941 -0.3989  0.4302
   7023SM  H11A 9090   3.794   1.650  17.131  0.6754  0.4081 -1.1498
   7023SM  H11B 9091   3.818   1.827  17.167  2.1049 -1.6741  0.2622
   7023SM     P 9092   3.545   1.894  17.094 -0.3922 -0.1526  0.4752
   7023SM   O13 9093   3.406   1.857  17.088 -0.4362  0.2430 -0.6611
   7023SM   O14 9094   3.581   1.969  17.214 -0.0449  0.4653  0.2918
   7023SM   O11 9095   3.592   1.973  16.968 -0.1379 -0.4258 -0.2847
   7023SM   O12 9096   3.634   1.767  17.090 -0.1085 -0.6992  0.0871
   7023SM   C1S 9097   3.719   2.037  16.967 -0.1922 -0.1936 -0.1049
   7023SM   H1S 9098   3.793   1.990  17.034 -1.4718 -0.6649  1.0171
   7023SM   H1T 9099   3.712   2.145  16.992 -0.3123 -0.3917  0.7455
   7023SM    NF 9100   3.936   2.064  16.830 -1.0596  0.4298  0.5134
   7023SM   HNF 9101   3.969   2.151  16.795  0.7910  0.0078  1.0797
   7023SM   C2S 9102   3.794   2.027  16.824 -0.1475 -0.1246 -0.8908
   7023SM   H2S 9103   3.802   1.920  16.797  0.7935 -0.6084  1.1350
   7023SM   C3S 9104   3.711   2.104  16.727  0.5991 -0.0006  0.6959
   7023SM   H3S 9105   3.710   2.207  16.769 -0.1848  0.2543  0.0528
   7023SM    O3 9106   3.577   2.059  16.711 -0.2558 -0.9260 -0.1171
   7023SM   HO3 9107   3.559   2.003  16.787  0.2038  2.6856  2.9659
   7023SM   C4S 9108   3.769   2.089  16.595  0.1111 -0.1337  0.4749
   7023SM   H4S 9109   3.771   1.983  16.568  0.1226  0.3639 -1.5985
   7023SM   C5S 9110   3.812   2.190  16.512  0.1877  0.9767  0.0806
   7023SM   H5S 9111   3.799   2.294  16.546 -1.8350  0.7619  0.0676
   7023SM   C6S 9112   3.858   2.178  16.366  0.1925 -0.3657 -0.0782
   7023SM   H6S 9113   3.949   2.241  16.355  0.1867 -0.6034 -1.6729
   7023SM   H6T 9114   3.787   2.223  16.293  2.3344  2.7168 -0.4526
   7023SM   C7S 9115   3.872   2.034  16.320  0.2685 -0.7266 -1.1245
   7023SM   H7S 9116   3.779   1.974  16.310 -1.3340  1.1191  1.5973
   7023SM   H7T 9117   3.929   1.971  16.391 -0.1241 -2.0761 -1.9753
   7023SM   C8S 9118   3.956   2.015  16.196 -0.5476  0.3252 -0.1608
   7023SM   H8S 9119   3.972   1.906  16.190  2.7599  0.6230  1.1710
   7023SM   H8T 9120   4.059   2.058  16.203 -1.2514  2.1354 -0.3481
   7023SM   C9S 9121   3.878   2.078  16.078 -0.2060 -0.0738  0.1024
   7023SM   H9S 9122   3.894   2.188  16.080 -0.0868 -0.0933  1.0574
   7023SM   H9T 9123   3.769   2.056  16.087 -0.1221 -0.9663 -0.9186
   7023SM  C10S 9124   3.929   2.016  15.944 -0.2357 -0.4789  0.4543
   7023SM  H10S 9125   3.929   1.906  15.933 -0.4579 -0.4241 -0.1203
   7023SM  H10T 9126   4.036   2.041  15.928 -0.9375  1.3774 -1.7866
   7023SM  C11S 9127   3.857   2.080  15.824  0.2122  0.7404 -0.4347
   7023SM  H11S 9128   3.863   2.191  15.825  3.6440  0.6809 -1.8390
   7023SM  H11T 9129   3.749   2.054  15.820  0.7414 -1.8563  0.4199
   7023SM  C12S 9130   3.914   2.035  15.689 -0.0558  0.8129  0.0399
   7023SM  H12S 9131   3.917   1.924  15.682  2.4282  0.7060  1.6705
   7023SM  H12T 9132   4.021   2.064  15.690 -0.1015  0.9921  1.5971
   7023SM  C13S 9133   3.841   2.092  15.575 -0.3775  0.0728 -0.1949
   7023SM  H13S 9134   3.850   2.202  15.576  0.9557 -0.0149  0.1833
   7023SM  H13T 9135   3.736   2.058  15.588 -0.1339  0.2944  3.5824
   7023SM  C14S 9136   3.906   2.046  15.443 -0.2103 -0.6382  0.4432
   7023SM  H14S 9137   3.920   1.936  15.443  0.8428 -0.5228 -0.4518
   7023SM  H14T 9138   4.009   2.083  15.421 -1.6287  3.2170 -0.5851
   7023SM  C15S 9139   3.806   2.078  15.324  0.1452 -0.8026  0.4947
   7023SM  H15S 9140   3.724   2.006  15.348 -0.2201 -0.3763  0.5247
   7023SM  H15T 9141   3.840   2.069  15.218 -0.3110  0.1525  0.2625
   7023SM  C16S 9142   3.748   2.220  15.335  0.1711 -0.5429  0.8242
   7023SM  H16S 9143   3.838   2.281  15.356  0.4784 -0.6813 -0.0337
   7023SM  H16T 9144   3.673   2.224  15.417 -2.2622  0.8097 -1.2850
   7023SM  C17S 9145   3.693   2.278  15.200  0.0024 -0.4137  0.1063
   7023SM  H17S 9146   3.617   2.212  15.151 -0.0484 -0.2756  0.0002
   7023SM  H17T 9147   3.783   2.282  15.135  0.7665  1.7967  1.2145
   7023SM  C18S 9148   3.636   2.419  15.217  0.1858 -0.0277  0.1225
   7023SM  H18S 9149   3.591   2.449  15.120 -0.4749  0.8141  0.6747
   7023SM  H18T 9150   3.715   2.491  15.250 -0.3617  0.3872  0.5390
   7023SM  H18U 9151   3.558   2.422  15.295  1.0481 -2.0261  1.1311
   7023SM   C1F 9152   4.034   1.990  16.881  0.1653 -0.3591 -0.6191
   7023SM    OF 9153   4.018   1.883  16.934 -0.0610 -0.1623 -0.3487
   7023SM   C2F 9154   4.167   2.047  16.867  1.0063 -0.7472 -0.5572
   7023SM   H2F 9155   4.204   2.030  16.971 -3.0202  1.2816  1.4174
   7023SM   H2G 9156   4.159   2.157  16.855 -2.2056 -0.3260  3.3974
   7023SM   C3F 9157   4.253   1.978  16.759  0.0752  0.3470  0.2355
   7023SM   H3F 9158   4.255   1.869  16.778  2.7914  0.1494 -0.7178
   7023SM   H3G 9159   4.363   1.993  16.766  0.6408 -2.7243 -0.5686
   7023SM   C4F 9160   4.214   1.997  16.610  0.1157 -0.3966 -0.7542
   7023SM   H4F 9161   4.218   2.106  16.588  0.3742 -0.0274  1.0305
   7023SM   H4G 9162   4.109   1.961  16.595 -0.1176 -1.9260  3.3499
   7023SM   C5F 9163   4.312   1.915  16.528  0.1067  0.3327 -0.4234
   7023SM   H5F 9164   4.307   1.808  16.556 -2.6621  0.2788 -0.7897
   7023SM   H5G 9165   4.415   1.953  16.544 -0.0312  0.9707 -1.0057
   7023SM   C6F 9166   4.269   1.934  16.382  1.0733  0.0602  0.4608
   7023SM   H6F 9167   4.264   2.042  16.356  1.6192 -0.4094 -1.8879
   7023SM   H6G 9168   4.166   1.894  16.370  1.2444 -0.2161 -0.1261
   7023SM   C7F 9169   4.354   1.863  16.279  1.0712  0.7927 -0.2917
   7023SM   H7F 9170   4.362   1.753  16.295  0.7327  0.5581 -1.6041
   7023SM   H7G 9171   4.458   1.901  16.271  1.6996 -0.6362  0.5716
   7023SM   C8F 9172   4.297   1.877  16.135  0.4670 -0.0595 -0.3174
   7023SM   H8F 9173   4.278   1.986  16.123 -0.5820 -0.1165  0.7412
   7023SM   H8G 9174   4.202   1.820  16.137 -0.1611  0.9816 -0.1638
   7023SM   C9F 9175   4.387   1.825  16.024  0.1861  0.2588  0.0449
   7023SM   H9F 9176   4.409   1.718  16.045  0.1334  0.2522  0.0639
   7023SM   H9G 9177   4.482   1.883  16.025 -1.1325  2.5338  1.8532
   7023SM  C10F 9178   4.320   1.830  15.884  0.1510 -0.2286 -0.0645
   7023SM  H10F 9179   4.300   1.938  15.870 -0.5655 -0.5711 -2.1577
   7023SM  H10G 9180   4.216   1.792  15.897 -0.6182  2.4066  2.6223
   7023SM  C11F 9181   4.396   1.771  15.764  0.3125  0.2106  1.0164
   7023SM  H11F 9182   4.424   1.665  15.780  3.2485  0.9239  1.2380
   7023SM  H11G 9183   4.490   1.829  15.747  0.6182  0.2108  2.5238
   7023SM  C12F 9184   4.316   1.778  15.640  0.3316  0.0745  0.6157
   7023SM  H12F 9185   4.244   1.862  15.647 -2.6831 -2.3046  0.1299
   7023SM  H12G 9186   4.241   1.696  15.634 -1.0486  1.2055  1.8527
   7023SM  C13F 9187   4.384   1.796  15.505 -0.7001 -0.5136  0.4338
   7023SM  H13F 9188   4.454   1.713  15.484 -0.1942 -0.4189  1.6537
   7023SM  H13G 9189   4.446   1.888  15.514 -1.0887 -0.1641 -0.3980
   7023SM  C14F 9190   4.294   1.809  15.390  0.8193  0.2239 -0.3605
   7023SM  H14F 9191   4.256   1.914  15.394  0.4086  0.1425 -1.7767
   7023SM  H14G 9192   4.210   1.737  15.399  0.2396  0.8926 -0.3557
   7023SM  C15F 9193   4.360   1.792  15.255  0.2730  0.1135 -0.5205
   7023SM  H15F 9194   4.412   1.694  15.253 -0.2974 -0.2244  0.4964
   7023SM  H15G 9195   4.436   1.872  15.248 -0.9912  1.3700 -0.3337
   7023SM  C16F 9196   4.272   1.798  15.126  0.3816  0.3366 -0.8597
   7023SM  H16F 9197   4.198   1.879  15.142  0.0236  0.0527 -1.0698
   7023SM  H16G 9198   4.211   1.707  15.104 -2.5222  2.5263 -2.4996
   7023SM  C17F 9199   4.358   1.817  14.993 -0.0913  0.4422 -0.5725
   7023SM  H17F 9200   4.294   1.819  14.902 -1.9225 -0.0640  0.6413
   7023SM  H17G 9201   4.431   1.734  14.991  2.6412  2.4877  2.7296
   7023SM  C18F 9202   4.455   1.940  14.986 -0.1376  0.7767  0.3953
   7023SM  H18F 9203   4.499   1.953  14.884 -0.0260  1.9121  0.5824
   7023SM  H18G 9204   4.539   1.915  15.055 -1.3330 -2.9980  0.6985
   7023SM  C19F 9205   4.381   2.070  15.021 -0.7459  0.3518 -0.3476
   7023SM  H19F 9206   4.454   2.153  15.031 -1.3541  1.1217 -1.9097
   7023SM  H19G 9207   4.327   2.062  15.117 -0.9849  0.7214 -0.4502
   7023SM  C20F 9208   4.287   2.134  14.913  0.3604 -0.0939 -0.6913
   7023SM  H20F 9209   4.227   2.216  14.959  0.0076  0.6369 -2.3893
   7023SM  H20G 9210   4.217   2.049  14.898 -0.0500  0.2506 -0.7557
   7023SM  C21F 9211   4.353   2.190  14.789  0.0035 -0.0652 -0.1545
   7023SM  H21F 9212   4.378   2.108  14.718  1.1389  0.9970 -1.0353
   7023SM  H21G 9213   4.442   2.244  14.828 -0.3834 -0.2525  1.0031
   7023SM  C22F 9214   4.254   2.275  14.695 -0.5655  0.1659 -0.1462
   7023SM  H22F 9215   4.174   2.202  14.672 -2.0642  1.7654 -0.1505
   7023SM  H22G 9216   4.320   2.289  14.607 -0.5030 -2.8005 -0.6682
   7023SM  C23F 9217   4.205   2.413  14.750 -0.3118 -0.2326  0.1924
   7023SM  H23F 9218   4.128   2.401  14.830 -0.8894  0.6447 -0.2107
   7023SM  H23G 9219   4.157   2.476  14.671 -0.5450 -0.1615  0.3866
   7023SM  H23H 9220   4.285   2.470  14.803 -0.7624 -0.3653  1.0366
   7123SM     N 9221   2.729   1.420  17.733  0.1854  0.1469  0.3743
   7123SM   C15 9222   2.821   1.316  17.791  0.0120 -0.3342  0.5192
   7123SM  H15A 9223   2.761   1.235  17.831 -1.0835  0.0519 -0.2695
   7123SM  H15B 9224   2.890   1.359  17.861  0.2054 -1.4323  1.0274
   7123SM  H15C 9225   2.882   1.271  17.714  1.3175  1.2221  0.6034
   7123SM   C14 9226   2.614   1.426  17.822 -0.2347 -0.1669 -0.8727
   7123SM  H14A 9227   2.641   1.430  17.926  2.6948 -0.6590 -1.5055
   7123SM  H14B 9228   2.555   1.337  17.807 -0.1256 -0.2978 -0.5257
   7123SM  H14C 9229   2.559   1.516  17.797  0.5356  0.3959 -0.5845
   7123SM   C13 9230   2.799   1.547  17.736 -0.5351 -0.5477 -0.7342
   7123SM  H13A 9231   2.760   1.610  17.658 -0.3723 -1.3695 -1.4956
   7123SM  H13B 9232   2.904   1.543  17.711 -0.2882  3.0425 -0.7433
   7123SM  H13C 9233   2.791   1.589  17.836 -0.6828  0.5217 -1.1790
   7123SM   C12 9234   2.667   1.391  17.591 -0.5961  0.2235 -0.1761
   7123SM  H12A 9235   2.594   1.465  17.564 -1.4915 -1.4403 -2.7098
   7123SM  H12B 9236   2.613   1.298  17.603 -0.1414 -0.2075 -1.3158
   7123SM   C11 9237   2.772   1.360  17.480 -0.6375 -0.3988 -0.0441
   7123SM  H11A 9238   2.842   1.446  17.472 -0.5103 -0.1637  2.5954
   7123SM  H11B 9239   2.713   1.343  17.387 -2.6408 -0.3533  1.1462
   7123SM     P 9240   2.831   1.116  17.420 -0.3371  0.3045  0.3788
   7123SM   O13 9241   2.945   1.023  17.432  0.1966  0.3630 -0.3495
   7123SM   O14 9242   2.698   1.067  17.451 -0.4517  0.2233 -0.2583
   7123SM   O11 9243   2.847   1.175  17.277 -0.1955 -0.1692  1.0911
   7123SM   O12 9244   2.853   1.244  17.511 -0.9907  0.2662  0.2800
   7123SM   C1S 9245   2.952   1.256  17.231 -0.2122  0.2437 -0.5696
   7123SM   H1S 9246   3.039   1.258  17.300 -1.7222 -1.5094  1.5058
   7123SM   H1T 9247   2.920   1.362  17.222 -0.6096  0.2176  0.4839
   7123SM    NF 9248   3.128   1.284  17.052  0.5854  0.0660  0.9910
   7123SM   HNF 9249   3.124   1.378  17.017  0.0582 -0.5052 -0.5690
   7123SM   C2S 9250   3.003   1.209  17.091  0.1904 -0.0637  0.1930
   7123SM   H2S 9251   3.022   1.100  17.091  1.1112  0.0876  0.4878
   7123SM   C3S 9252   2.879   1.240  16.997  0.5029  0.3305 -0.9996
   7123SM   H3S 9253   2.864   1.347  17.024  1.2389 -0.1240  1.4392
   7123SM    O3 9254   2.759   1.182  17.034 -0.7073  0.2220 -0.0917
   7123SM   HO3 9255   2.776   1.151  17.124 -4.8263 -2.2424  0.1259
   7123SM   C4S 9256   2.910   1.222  16.850 -0.0278  0.5655  0.4022
   7123SM   H4S 9257   2.945   1.318  16.807 -0.0368  0.7214  0.7388
   7123SM   C5S 9258   2.909   1.109  16.775  0.6280  0.2109  0.2157
   7123SM   H5S 9259   2.876   1.013  16.818 -3.1677  1.0447 -0.4707
   7123SM   C6S 9260   2.945   1.094  16.625  0.8250  0.2745 -0.4070
   7123SM   H6S 9261   2.869   1.035  16.570  0.3838 -0.5091  0.9872
   7123SM   H6T 9262   3.037   1.032  16.629  0.0600 -1.1323 -2.6657
   7123SM   C7S 9263   2.986   1.212  16.533  0.2332  0.4754 -0.8203
   7123SM   H7S 9264   3.093   1.236  16.551  0.4330  0.0884 -1.4911
   7123SM   H7T 9265   2.927   1.301  16.564 -0.2832  0.2353 -1.1072
   7123SM   C8S 9266   2.966   1.181  16.384 -0.6127 -0.0992  0.5320
   7123SM   H8S 9267   2.990   1.273  16.326  0.7449 -1.1682 -0.6696
   7123SM   H8T 9268   2.863   1.161  16.347 -0.6736 -0.9192  1.1162
   7123SM   C9S 9269   3.056   1.072  16.337 -0.7213  0.1116 -0.0395
   7123SM   H9S 9270   3.048   0.983  16.402  1.0127  0.4066  0.6281
   7123SM   H9T 9271   3.162   1.102  16.352 -0.4192 -0.3989 -1.0391
   7123SM  C10S 9272   3.038   1.034  16.194 -0.8867  0.4758  0.3879
   7123SM  H10S 9273   2.939   0.987  16.179  0.2446 -1.6724 -0.7779
   7123SM  H10T 9274   3.119   0.965  16.161 -0.3691  1.3838 -0.3000
   7123SM  C11S 9275   3.057   1.152  16.095  0.3880  0.1339  0.6061
   7123SM  H11S 9276   3.162   1.187  16.107  0.3947  0.4747 -0.3726
   7123SM  H11T 9277   2.991   1.238  16.118  0.8079  1.0145 -1.3018
   7123SM  C12S 9278   3.034   1.113  15.951  0.1840 -1.0179 -0.0777
   7123SM  H12S 9279   2.929   1.077  15.940 -0.0819 -0.2639 -0.0648
   7123SM  H12T 9280   3.108   1.039  15.914 -1.2766 -2.6205  0.0604
   7123SM  C13S 9281   3.030   1.235  15.856 -0.3026 -0.1578  0.2855
   7123SM  H13S 9282   3.130   1.282  15.862 -0.6702  0.7318 -0.4395
   7123SM  H13T 9283   2.959   1.313  15.890 -0.6214  0.0118 -0.7394
   7123SM  C14S 9284   3.005   1.197  15.710 -0.2196 -0.1087  0.5274
   7123SM  H14S 9285   2.963   1.290  15.666  0.8333 -0.7134 -1.9163
   7123SM  H14T 9286   2.929   1.118  15.694 -0.3305 -0.2722  1.7423
   7123SM  C15S 9287   3.127   1.166  15.626 -1.0167 -0.0707  0.2882
   7123SM  H15S 9288   3.182   1.087  15.681 -0.7116  0.3112  0.5328
   7123SM  H15T 9289   3.191   1.257  15.624  0.6697 -1.2263  0.1815
   7123SM  C16S 9290   3.094   1.115  15.487  0.3172  0.7238 -0.2597
   7123SM  H16S 9291   3.028   1.184  15.430  1.0495 -1.3710 -4.0369
   7123SM  H16T 9292   3.041   1.019  15.504  0.5293  0.8242  1.0601
   7123SM  C17S 9293   3.213   1.091  15.385  0.1595  0.3336 -0.1538
   7123SM  H17S 9294   3.162   1.056  15.293 -0.3051 -0.2841  0.3216
   7123SM  H17T 9295   3.274   1.007  15.426 -1.8579 -0.0659  2.3902
   7123SM  C18S 9296   3.298   1.214  15.357  0.5020  0.1777 -0.1523
   7123SM  H18S 9297   3.360   1.181  15.270  3.0242  0.5648  1.3975
   7123SM  H18T 9298   3.351   1.234  15.452 -1.5653 -0.5447  1.2104
   7123SM  H18U 9299   3.234   1.304  15.340 -3.2216 -2.0469  1.0055
   7123SM   C1F 9300   3.246   1.234  17.079 -0.5756 -0.0784 -0.7867
   7123SM    OF 9301   3.253   1.139  17.158  0.2955  0.4171  0.4104
   7123SM   C2F 9302   3.363   1.303  17.024 -0.2408  0.6087  1.0097
   7123SM   H2F 9303   3.403   1.359  17.111 -0.8090 -1.4568  2.7124
   7123SM   H2G 9304   3.328   1.372  16.945  1.5313  1.2443  0.7531
   7123SM   C3F 9305   3.481   1.213  16.975 -0.4189  0.3646 -1.0361
   7123SM   H3F 9306   3.514   1.163  17.068 -1.6231  0.6792 -0.4219
   7123SM   H3G 9307   3.566   1.276  16.939  0.4126  0.7567  1.4119
   7123SM   C4F 9308   3.458   1.102  16.881  0.3113  0.0615  0.1329
   7123SM   H4F 9309   3.384   1.035  16.930 -1.4709  0.9673 -1.1944
   7123SM   H4G 9310   3.547   1.038  16.862  1.1916  0.9801  1.0610
   7123SM   C5F 9311   3.395   1.157  16.754 -0.4156  0.5158  0.4183
   7123SM   H5F 9312   3.471   1.232  16.726  0.6295 -0.0594  1.6427
   7123SM   H5G 9313   3.300   1.213  16.767 -0.8179  0.2163 -0.9953
   7123SM   C6F 9314   3.397   1.055  16.637  0.6239  0.2993 -0.1561
   7123SM   H6F 9315   3.298   1.009  16.615 -0.2219  2.3356 -0.8559
   7123SM   H6G 9316   3.453   0.963  16.665 -2.5108 -1.7417 -0.0787
   7123SM   C7F 9317   3.471   1.096  16.515 -0.0708 -0.3266 -0.0779
   7123SM   H7F 9318   3.572   1.136  16.538 -0.3151  0.3890 -0.2296
   7123SM   H7G 9319   3.416   1.188  16.487 -0.7382 -1.2984 -2.1352
   7123SM   C8F 9320   3.479   0.983  16.420  1.1032 -0.6077  0.0842
   7123SM   H8F 9321   3.403   0.904  16.436 -0.0471  0.3903 -0.2294
   7123SM   H8G 9322   3.580   0.937  16.421  0.9204 -1.5360 -4.1467
   7123SM   C9F 9323   3.455   1.029  16.267  0.1312 -0.5074 -0.0684
   7123SM   H9F 9324   3.522   1.115  16.245  1.8301 -2.2721 -2.2232
   7123SM   H9G 9325   3.348   1.054  16.255  0.5910  0.8319 -1.7969
   7123SM  C10F 9326   3.505   0.932  16.166 -0.2324 -0.1271 -0.8674
   7123SM  H10F 9327   3.452   0.834  16.170 -1.5208  0.5646  2.7118
   7123SM  H10G 9328   3.611   0.909  16.189 -0.4444 -0.3313 -0.0846
   7123SM  C11F 9329   3.493   0.991  16.027  0.8185  0.2181  0.3519
   7123SM  H11F 9330   3.565   1.075  16.024 -0.1628  1.1404  1.4708
   7123SM  H11G 9331   3.392   1.035  16.010  0.9510  0.4183  0.0746
   7123SM  C12F 9332   3.534   0.891  15.917 -0.2016 -0.3222 -0.6773
   7123SM  H12F 9333   3.464   0.805  15.919  0.0614 -0.5590 -1.5317
   7123SM  H12G 9334   3.634   0.845  15.931  0.1473 -0.2194 -2.6475
   7123SM  C13F 9335   3.538   0.954  15.780  0.1375  0.1183  0.9959
   7123SM  H13F 9336   3.604   1.042  15.766 -0.8714  0.8063  0.4788
   7123SM  H13G 9337   3.433   0.984  15.759 -0.0511  0.2260  2.0462
   7123SM  C14F 9338   3.575   0.850  15.670 -0.4557 -0.4605 -0.4225
   7123SM  H14F 9339   3.524   0.753  15.687 -2.0416  0.2677 -0.8457
   7123SM  H14G 9340   3.682   0.824  15.658  0.2385  2.1765 -0.5103
   7123SM  C15F 9341   3.540   0.892  15.528  0.4329  0.1822  0.6969
   7123SM  H15F 9342   3.605   0.961  15.469 -0.6783 -0.6483 -1.6234
   7123SM  H15G 9343   3.446   0.951  15.532  0.7779  0.7184  1.0474
   7123SM  C16F 9344   3.532   0.781  15.420  0.3789 -1.0599  0.1681
   7123SM  H16F 9345   3.512   0.819  15.317  1.7152 -0.3478  0.1457
   7123SM  H16G 9346   3.452   0.709  15.448 -2.2129  0.4512 -2.7438
   7123SM  C17F 9347   3.666   0.714  15.406  0.4365 -0.0165 -0.0918
   7123SM  H17F 9348   3.684   0.652  15.497  2.0529  0.1990 -0.2215
   7123SM  H17G 9349   3.755   0.782  15.408  1.2018 -1.0132  0.6213
   7123SM  C18F 9350   3.677   0.631  15.276  0.1271  0.2079 -0.5286
   7123SM  H18F 9351   3.576   0.596  15.244  1.1418 -1.5141 -2.0313
   7123SM  H18G 9352   3.754   0.553  15.288  0.8979  0.7401 -1.8914
   7123SM  C19F 9353   3.728   0.705  15.151 -0.4695  0.6696  0.2954
   7123SM  H19F 9354   3.834   0.730  15.173 -0.8772  1.2451  1.6909
   7123SM  H19G 9355   3.676   0.803  15.146 -1.3180  0.5106  3.7904
   7123SM  C20F 9356   3.708   0.624  15.022 -0.1801  0.0764  0.6941
   7123SM  H20F 9357   3.615   0.562  15.024  0.8366 -1.5028  0.1096
   7123SM  H20G 9358   3.788   0.550  15.001 -0.3867  0.4505 -1.6308
   7123SM  C21F 9359   3.707   0.699  14.896 -0.1721 -0.9196 -0.1760
   7123SM  H21F 9360   3.806   0.751  14.892 -0.4167 -0.4574 -0.4077
   7123SM  H21G 9361   3.640   0.787  14.899  1.0091  0.0769 -1.4714
   7123SM  C22F 9362   3.708   0.609  14.767  0.3117  1.0448 -0.4408
   7123SM  H22F 9363   3.609   0.560  14.778  0.8751  0.2344  1.4199
   7123SM  H22G 9364   3.790   0.535  14.769  0.4475  1.1995  0.0347
   7123SM  C23F 9365   3.721   0.685  14.634  0.6524 -0.0589 -0.0502
   7123SM  H23F 9366   3.821   0.730  14.618  1.4730 -0.5465  3.0075
   7123SM  H23G 9367   3.631   0.750  14.633 -0.2227 -1.2387 -1.3894
   7123SM  H23H 9368   3.700   0.602  14.563 -0.6855  1.3323 -1.3440
   7223SM     N 9369   5.476   3.623  17.670 -0.1117  0.0805 -0.7539
   7223SM   C15 9370   5.332   3.604  17.687  0.5823  0.2869 -0.3598
   7223SM  H15A 9371   5.279   3.699  17.687 -0.7912 -0.4169 -2.3526
   7223SM  H15B 9372   5.308   3.559  17.783 -0.3824  1.3458 -0.0667
   7223SM  H15C 9373   5.284   3.548  17.609  0.2943 -1.6196  1.1147
   7223SM   C14 9374   5.523   3.713  17.775  0.6900  0.0633  0.0051
   7223SM  H14A 9375   5.483   3.685  17.872  1.2655  2.0148  0.8666
   7223SM  H14B 9376   5.498   3.816  17.754  2.1209  0.0421 -2.0899
   7223SM  H14C 9377   5.630   3.717  17.784  0.8577  0.6342 -1.7863
   7223SM   C13 9378   5.545   3.492  17.696 -0.2147  0.2792 -0.5140
   7223SM  H13A 9379   5.525   3.422  17.616  0.5422 -0.4844 -0.0575
   7223SM  H13B 9380   5.509   3.451  17.790 -0.7004  3.3237  0.7593
   7223SM  H13C 9381   5.651   3.505  17.687 -0.3576  1.0373 -1.1838
   7223SM   C12 9382   5.509   3.686  17.538 -0.0408  0.7336  0.2039
   7223SM  H12A 9383   5.616   3.691  17.527 -0.0029 -0.8252 -0.4532
   7223SM  H12B 9384   5.475   3.788  17.539 -0.7481  0.5292 -0.9292
   7223SM   C11 9385   5.443   3.626  17.414  0.1443  0.1622  0.1589
   7223SM  H11A 9386   5.462   3.517  17.423  0.4833  0.3200  1.7229
   7223SM  H11B 9387   5.487   3.656  17.316  0.1147  2.0846  0.7035
   7223SM     P 9388   5.240   3.783  17.355 -0.3920 -0.0593 -0.3642
   7223SM   O13 9389   5.113   3.802  17.428 -0.1151 -0.5040 -0.8612
   7223SM   O14 9390   5.342   3.893  17.372 -0.0989  0.1580 -0.3330
   7223SM   O11 9391   5.215   3.765  17.199  0.5002  0.0147  0.2083
   7223SM   O12 9392   5.302   3.646  17.418  0.7405  0.5889 -0.1880
   7223SM   C1S 9393   5.132   3.650  17.159 -0.2078  0.2460 -0.7593
   7223SM   H1S 9394   5.039   3.652  17.221 -0.0635 -0.3546 -0.5205
   7223SM   H1T 9395   5.184   3.553  17.168 -0.3581  0.2422  0.1672
   7223SM    NF 9396   5.018   3.548  16.978 -0.1258 -0.4251  0.0777
   7223SM   HNF 9397   5.062   3.483  16.916 -1.1944 -0.4317 -0.7003
   7223SM   C2S 9398   5.091   3.666  17.009 -0.7322 -0.2306 -0.2745
   7223SM   H2S 9399   5.019   3.749  16.990  1.3292  1.5572 -0.6541
   7223SM   C3S 9400   5.213   3.691  16.918  0.4120 -0.2026  0.9067
   7223SM   H3S 9401   5.285   3.607  16.926  2.1763  0.9180 -1.5961
   7223SM    O3 9402   5.301   3.805  16.944  0.2864 -0.7623 -0.5323
   7223SM   HO3 9403   5.267   3.843  17.026  0.7595 -0.7873 -0.3204
   7223SM   C4S 9404   5.177   3.679  16.770  0.2904 -0.2116 -0.4507
   7223SM   H4S 9405   5.162   3.578  16.731  2.3941 -0.9233  0.4493
   7223SM   C5S 9406   5.152   3.784  16.683 -0.5151  0.0108 -0.0717
   7223SM   H5S 9407   5.159   3.887  16.720 -1.7026  0.2295 -0.4151
   7223SM   C6S 9408   5.109   3.785  16.542 -0.3531 -0.6053  0.0304
   7223SM   H6S 9409   5.031   3.864  16.548  2.1996  2.0285  2.3226
   7223SM   H6T 9410   5.070   3.686  16.513 -0.1273 -0.4236 -0.9195
   7223SM   C7S 9411   5.219   3.815  16.434  0.1272  1.1109 -0.1090
   7223SM   H7S 9412   5.291   3.731  16.446 -0.1012  1.2202  2.4015
   7223SM   H7T 9413   5.264   3.915  16.452 -1.0113  1.6773 -0.2706
   7223SM   C8S 9414   5.159   3.818  16.297 -0.4270 -0.0328  0.6789
   7223SM   H8S 9415   5.100   3.912  16.304  0.2704  0.5632 -0.9449
   7223SM   H8T 9416   5.090   3.732  16.299  0.6727 -0.9353  0.7983
   7223SM   C9S 9417   5.263   3.830  16.184 -0.7155  0.4863  0.0851
   7223SM   H9S 9418   5.351   3.762  16.178 -1.0582  0.0165  0.4068
   7223SM   H9T 9419   5.307   3.932  16.186 -2.2440  1.1594  1.0521
   7223SM  C10S 9420   5.202   3.828  16.048 -0.2030  0.1269 -0.3277
   7223SM  H10S 9421   5.116   3.897  16.034  1.0703  1.4052 -2.5100
   7223SM  H10T 9422   5.165   3.723  16.038 -0.2980  0.1566 -0.2870
   7223SM  C11S 9423   5.299   3.867  15.931  0.5310  0.6638 -0.5816
   7223SM  H11S 9424   5.381   3.793  15.940  0.9939  1.1542 -0.7104
   7223SM  H11T 9425   5.317   3.974  15.954  1.2660  0.1279  1.6013
   7223SM  C12S 9426   5.230   3.848  15.802  0.1701 -0.3498  1.0127
   7223SM  H12S 9427   5.125   3.885  15.810  0.3680  0.4232  0.1901
   7223SM  H12T 9428   5.230   3.743  15.767 -0.6091  0.2731 -1.0643
   7223SM  C13S 9429   5.295   3.941  15.691 -0.0138 -0.4532 -0.1818
   7223SM  H13S 9430   5.400   3.905  15.686 -0.0980 -1.1987  2.0264
   7223SM  H13T 9431   5.305   4.041  15.739 -2.7690 -0.0170 -0.3243
   7223SM  C14S 9432   5.224   3.932  15.559  0.2279 -0.7704  0.2425
   7223SM  H14S 9433   5.114   3.945  15.561  0.4159  1.1885 -0.4674
   7223SM  H14T 9434   5.233   3.824  15.534 -1.9894 -0.8134 -0.6115
   7223SM  C15S 9435   5.280   4.015  15.445 -0.2000  0.2040  0.5507
   7223SM  H15S 9436   5.391   4.009  15.442 -0.2545 -0.5183 -1.5385
   7223SM  H15T 9437   5.239   4.116  15.467 -0.9958 -0.3495  1.6979
   7223SM  C16S 9438   5.207   3.986  15.306 -0.4576 -0.0119 -0.2390
   7223SM  H16S 9439   5.100   4.012  15.321 -0.8199 -0.7220 -1.4613
   7223SM  H16T 9440   5.210   3.877  15.285 -0.4938  0.0167 -0.3927
   7223SM  C17S 9441   5.270   4.047  15.187  0.0574  0.2895 -0.2390
   7223SM  H17S 9442   5.374   4.012  15.199 -0.0850 -0.2059 -0.4342
   7223SM  H17T 9443   5.267   4.158  15.194  2.9580  0.4490 -0.5134
   7223SM  C18S 9444   5.226   3.994  15.049  0.1452 -0.4363 -0.0233
   7223SM  H18S 9445   5.127   4.031  15.013 -1.0997 -1.9515  1.6324
   7223SM  H18T 9446   5.210   3.884  15.053  0.8278 -0.5662 -0.7143
   7223SM  H18U 9447   5.306   4.003  14.972  0.6591 -2.7253  0.1588
   7223SM   C1F 9448   4.896   3.528  17.016  0.2403 -0.4648 -0.7574
   7223SM    OF 9449   4.830   3.620  17.065  0.1088 -0.1006 -0.2786
   7223SM   C2F 9450   4.843   3.379  17.016  0.3814 -0.3309  0.0376
   7223SM   H2F 9451   4.852   3.332  17.116 -0.0610 -2.4906 -0.8844
   7223SM   H2G 9452   4.915   3.324  16.951  0.6138  1.7276 -1.5599
   7223SM   C3F 9453   4.702   3.369  16.954 -1.3854 -0.5500 -1.0611
   7223SM   H3F 9454   4.627   3.433  17.005 -0.0636 -1.0280  1.6763
   7223SM   H3G 9455   4.668   3.264  16.958 -2.6390 -0.1088  1.0162
   7223SM   C4F 9456   4.696   3.417  16.806 -0.4567  0.6183 -0.4267
   7223SM   H4F 9457   4.715   3.526  16.796 -1.4302  0.9093  0.7350
   7223SM   H4G 9458   4.591   3.395  16.776 -1.2633  1.4573  1.5759
   7223SM   C5F 9459   4.789   3.353  16.700 -0.0153  0.5068  0.4730
   7223SM   H5F 9460   4.778   3.243  16.700  2.0011  0.2710  1.4815
   7223SM   H5G 9461   4.893   3.378  16.728 -0.7488  1.4102  2.6307
   7223SM   C6F 9462   4.742   3.399  16.560  0.0879  0.2473  0.1047
   7223SM   H6F 9463   4.823   3.415  16.485 -0.5573  0.7012 -0.5099
   7223SM   H6G 9464   4.680   3.490  16.577 -0.3760 -0.2021  0.8696
   7223SM   C7F 9465   4.662   3.295  16.485 -0.1747  0.3273  0.1285
   7223SM   H7F 9466   4.639   3.341  16.387 -0.4386 -0.7085 -0.3111
   7223SM   H7G 9467   4.570   3.269  16.542  0.1062  1.2356  1.0296
   7223SM   C8F 9468   4.746   3.162  16.449  0.7964  0.1920  0.0885
   7223SM   H8F 9469   4.760   3.101  16.541  0.7612  1.7955  1.2143
   7223SM   H8G 9470   4.849   3.179  16.414  0.9304  2.0755  1.2205
   7223SM   C9F 9471   4.658   3.085  16.344  0.1754  0.5946  0.1523
   7223SM   H9F 9472   4.557   3.078  16.390  1.0654 -0.4989  2.0909
   7223SM   H9G 9473   4.696   2.981  16.338 -2.3256 -0.3436 -0.5904
   7223SM  C10F 9474   4.672   3.149  16.209  0.5098 -0.6762 -0.1386
   7223SM  H10F 9475   4.777   3.184  16.198 -0.1614  1.4327 -0.2363
   7223SM  H10G 9476   4.617   3.245  16.210  0.8306 -0.4282  2.6359
   7223SM  C11F 9477   4.642   3.049  16.094 -0.8285 -0.5014  0.0490
   7223SM  H11F 9478   4.532   3.030  16.098 -1.0396  0.6085 -0.2178
   7223SM  H11G 9479   4.706   2.958  16.097 -2.4676 -1.7274 -0.7005
   7223SM  C12F 9480   4.665   3.108  15.954  0.2927  0.0025  0.2789
   7223SM  H12F 9481   4.770   3.142  15.939  0.7977 -1.3738  0.5620
   7223SM  H12G 9482   4.604   3.194  15.920  0.4063  0.4387  1.1518
   7223SM  C13F 9483   4.635   3.009  15.848 -0.4452  0.3034 -0.6891
   7223SM  H13F 9484   4.541   2.955  15.872  0.8745 -0.9652  2.2071
   7223SM  H13G 9485   4.705   2.923  15.861 -2.3334 -1.0284  1.6723
   7223SM  C14F 9486   4.646   3.046  15.703 -0.4275 -0.4669  0.3146
   7223SM  H14F 9487   4.597   2.975  15.634  0.5699  1.1129 -2.1710
   7223SM  H14G 9488   4.754   3.043  15.676 -0.4085  0.4023  0.2604
   7223SM  C15F 9489   4.585   3.181  15.663 -0.4356  0.3602  0.1146
   7223SM  H15F 9490   4.653   3.265  15.688 -0.3866 -0.0574  1.5033
   7223SM  H15G 9491   4.486   3.186  15.714 -0.9396  0.1401 -0.8253
   7223SM  C16F 9492   4.563   3.190  15.514 -0.6832 -0.5239 -0.3885
   7223SM  H16F 9493   4.514   3.289  15.503 -1.6654 -0.6401  2.2426
   7223SM  H16G 9494   4.485   3.119  15.480 -1.2505 -0.1068  0.0227
   7223SM  C17F 9495   4.685   3.193  15.423  0.2443 -0.3091 -0.2633
   7223SM  H17F 9496   4.730   3.091  15.425  1.8107  0.2723 -2.3753
   7223SM  H17G 9497   4.757   3.262  15.472  1.8746 -1.5796 -0.7623
   7223SM  C18F 9498   4.648   3.229  15.277  0.4979  0.0887 -0.0107
   7223SM  H18F 9499   4.613   3.141  15.220  1.7317 -0.2730 -0.2487
   7223SM  H18G 9500   4.749   3.264  15.244 -0.4326  2.1656 -0.8201
   7223SM  C19F 9501   4.544   3.342  15.258  0.8257  0.3645  0.1299
   7223SM  H19F 9502   4.575   3.431  15.318 -0.2997  1.2346 -0.5504
   7223SM  H19G 9503   4.448   3.302  15.294  0.4024  2.0190  0.9444
   7223SM  C20F 9504   4.530   3.388  15.107 -0.3210 -0.3968 -0.1401
   7223SM  H20F 9505   4.491   3.295  15.060 -1.0387 -0.6231  0.8780
   7223SM  H20G 9506   4.625   3.415  15.055 -1.3777  0.1823 -1.8650
   7223SM  C21F 9507   4.438   3.509  15.097 -0.0692  0.0281 -0.6433
   7223SM  H21F 9508   4.473   3.589  15.165  0.2092  0.7085 -1.5596
   7223SM  H21G 9509   4.330   3.489  15.112  0.4708 -3.3385 -0.3809
   7223SM  C22F 9510   4.462   3.569  14.955 -0.2591 -0.8829 -0.0843
   7223SM  H22F 9511   4.572   3.574  14.937 -0.1060  0.0480  0.9803
   7223SM  H22G 9512   4.433   3.676  14.965  1.9893 -0.4371  2.9594
   7223SM  C23F 9513   4.375   3.506  14.848  0.3139 -0.2164  1.0532
   7223SM  H23F 9514   4.426   3.419  14.801 -1.2816  0.0386 -1.3240
   7223SM  H23G 9515   4.357   3.570  14.759  1.7651  0.3760  1.1581
   7223SM  H23H 9516   4.277   3.462  14.878  0.2563 -0.2716  0.7837
   7323SM     N 9517   4.242   1.916  18.023  0.1930  0.3092  0.4192
   7323SM   C15 9518   4.198   1.826  18.134  0.1105 -0.5252 -0.2092
   7323SM  H15A 9519   4.090   1.831  18.140  0.1238  0.7758 -0.8066
   7323SM  H15B 9520   4.227   1.867  18.230 -0.6713 -1.0107  0.2554
   7323SM  H15C 9521   4.231   1.723  18.128  0.6693 -0.3232 -0.6865
   7323SM   C14 9522   4.202   2.058  18.054  0.1443 -0.1024 -0.3296
   7323SM  H14A 9523   4.095   2.070  18.054  0.0528 -0.9240 -0.2990
   7323SM  H14B 9524   4.260   2.128  17.995  1.1153  0.6777  1.4659
   7323SM  H14C 9525   4.236   2.098  18.148  1.5730 -0.0445 -0.8401
   7323SM   C13 9526   4.391   1.909  18.036  0.1333  0.6384  0.5883
   7323SM  H13A 9527   4.427   1.949  18.129  1.6387  1.8098 -0.4444
   7323SM  H13B 9528   4.433   1.973  17.959 -1.3761 -0.6055 -1.3604
   7323SM  H13C 9529   4.428   1.808  18.024 -0.6368  0.3571  0.5261
   7323SM   C12 9530   4.203   1.865  17.886 -0.2998 -0.3859 -0.3199
   7323SM  H12A 9531   4.244   1.930  17.809  0.2805 -0.5243 -0.1331
   7323SM  H12B 9532   4.096   1.878  17.877 -0.1338  0.7562 -0.8906
   7323SM   C11 9533   4.258   1.721  17.843  0.9620 -0.3810  0.0736
   7323SM  H11A 9534   4.368   1.722  17.860  0.7480 -2.9629  2.4789
   7323SM  H11B 9535   4.230   1.713  17.736  0.2855  0.4328  0.1745
   7323SM     P 9536   4.279   1.482  17.959 -0.1704 -0.0126  0.4171
   7323SM   O13 9537   4.361   1.518  18.079  0.3488 -0.7043 -0.1381
   7323SM   O14 9538   4.186   1.366  17.979  0.5614 -0.7725 -0.0950
   7323SM   O11 9539   4.375   1.443  17.839  0.3022  0.4896  0.4428
   7323SM   O12 9540   4.200   1.614  17.920 -0.0086 -0.0549  0.0768
   7323SM   C1S 9541   4.314   1.416  17.710  0.3576 -0.0349  0.3472
   7323SM   H1S 9542   4.235   1.489  17.683 -2.2304 -2.2493  1.4985
   7323SM   H1T 9543   4.253   1.324  17.713 -0.1359  0.2942  0.4775
   7323SM    NF 9544   4.325   1.395  17.468 -0.8045  0.2253  0.2973
   7323SM   HNF 9545   4.321   1.304  17.428 -2.1553  0.1914  0.4717
   7323SM   C2S 9546   4.410   1.408  17.591 -0.1178  0.3434  0.0866
   7323SM   H2S 9547   4.457   1.509  17.591 -2.2339  1.4037  1.9061
   7323SM   C3S 9548   4.523   1.302  17.605  0.0522 -0.1246 -1.0124
   7323SM   H3S 9549   4.469   1.204  17.602 -1.6039  0.7463 -4.0848
   7323SM    O3 9550   4.588   1.309  17.733  0.1844 -0.5802 -0.2617
   7323SM   HO3 9551   4.537   1.376  17.778  0.7042  0.0853 -0.6471
   7323SM   C4S 9552   4.619   1.288  17.480  0.3250 -0.1732 -1.1607
   7323SM   H4S 9553   4.585   1.226  17.396 -1.0592  0.6195 -1.2191
   7323SM   C5S 9554   4.729   1.358  17.454 -0.3361 -0.3550  0.1875
   7323SM   H5S 9555   4.759   1.432  17.529 -0.5362  1.5008 -1.4945
   7323SM   C6S 9556   4.826   1.344  17.346 -0.8741  0.0755  0.1475
   7323SM   H6S 9557   4.890   1.254  17.359 -1.6074 -0.6736 -1.2367
   7323SM   H6T 9558   4.892   1.433  17.355 -1.3955  0.5583 -0.7086
   7323SM   C7S 9559   4.757   1.341  17.201 -0.2588  0.7516 -0.1468
   7323SM   H7S 9560   4.684   1.425  17.195 -0.4880  0.6203  0.6618
   7323SM   H7T 9561   4.701   1.245  17.198 -0.6911  0.9443  1.2335
   7323SM   C8S 9562   4.862   1.347  17.092  0.4243  0.6116  0.3175
   7323SM   H8S 9563   4.918   1.251  17.095  1.0840  1.0054  1.2164
   7323SM   H8T 9564   4.947   1.416  17.107  1.4966 -0.1322 -1.9264
   7323SM   C9S 9565   4.803   1.374  16.951  0.9365 -0.4282  0.6891
   7323SM   H9S 9566   4.733   1.461  16.952 -2.0085 -2.6297 -0.1750
   7323SM   H9T 9567   4.734   1.292  16.922 -0.0670 -0.3514  2.6622
   7323SM  C10S 9568   4.912   1.404  16.849 -0.5188 -0.0070 -0.3331
   7323SM  H10S 9569   5.000   1.337  16.860 -1.5655 -1.8877 -2.5101
   7323SM  H10T 9570   4.954   1.506  16.865 -1.3145  0.6424 -2.0739
   7323SM  C11S 9571   4.875   1.399  16.696 -0.2698 -0.1653 -0.1955
   7323SM  H11S 9572   4.801   1.478  16.670 -0.2975 -0.1567 -0.0915
   7323SM  H11T 9573   4.830   1.299  16.678 -1.7034  0.5685 -0.8584
   7323SM  C12S 9574   5.005   1.404  16.602 -0.1636 -0.7137  0.0264
   7323SM  H12S 9575   5.079   1.327  16.633 -0.8330 -0.7795  1.5991
   7323SM  H12T 9576   5.065   1.497  16.613 -0.7563  0.0308 -2.4908
   7323SM  C13S 9577   4.958   1.392  16.457 -0.2330 -0.3093 -0.1430
   7323SM  H13S 9578   4.912   1.488  16.423  0.7488 -0.3148 -1.5814
   7323SM  H13T 9579   4.885   1.308  16.451 -1.0408  0.1562  2.1565
   7323SM  C14S 9580   5.084   1.375  16.370  0.7856  0.7281 -0.6316
   7323SM  H14S 9581   5.128   1.278  16.402  1.5585  1.3292  0.1752
   7323SM  H14T 9582   5.158   1.452  16.400  0.6370  0.0817  1.5495
   7323SM  C15S 9583   5.047   1.387  16.217 -0.9464 -0.3141 -0.0885
   7323SM  H15S 9584   5.050   1.496  16.193 -1.2496  0.4866  2.9862
   7323SM  H15T 9585   4.941   1.353  16.208 -0.9377 -0.1410 -0.9064
   7323SM  C16S 9586   5.146   1.317  16.127  0.4259 -0.7437 -0.0394
   7323SM  H16S 9587   5.135   1.210  16.154  2.0267 -1.2101 -1.0855
   7323SM  H16T 9588   5.251   1.348  16.148  0.3823 -0.8919  0.4005
   7323SM  C17S 9589   5.114   1.334  15.973 -0.2928 -0.1410 -0.5086
   7323SM  H17S 9590   5.118   1.442  15.946 -0.0409  0.7284  2.6120
   7323SM  H17T 9591   5.005   1.311  15.964 -0.0888 -1.3764 -0.0733
   7323SM  C18S 9592   5.200   1.245  15.887 -0.2314 -0.6049 -0.5213
   7323SM  H18S 9593   5.197   1.141  15.926  0.5011 -1.6756 -3.1092
   7323SM  H18T 9594   5.303   1.285  15.878  0.6095 -2.1850  1.3286
   7323SM  H18U 9595   5.160   1.248  15.783 -2.2444  0.3894  0.2325
   7323SM   C1F 9596   4.264   1.499  17.412  0.1280  1.1427 -0.0354
   7323SM    OF 9597   4.283   1.613  17.451  0.2714 -0.0304 -0.7435
   7323SM   C2F 9598   4.164   1.463  17.310 -0.8551  0.6717 -0.3865
   7323SM   H2F 9599   4.077   1.423  17.366 -0.1792 -2.1009 -1.1553
   7323SM   H2G 9600   4.205   1.386  17.240  2.4928  2.5754 -0.7419
   7323SM   C3F 9601   4.109   1.570  17.211  0.0000  0.6564 -1.1778
   7323SM   H3F 9602   4.072   1.644  17.285 -0.4703 -3.5613  3.3080
   7323SM   H3G 9603   4.019   1.543  17.152 -0.1940  0.0419 -0.6116
   7323SM   C4F 9604   4.210   1.634  17.114 -0.3589  0.5178 -0.2253
   7323SM   H4F 9605   4.296   1.679  17.167  1.2235 -1.6829 -0.7784
   7323SM   H4G 9606   4.154   1.702  17.046  2.4334  0.1658 -3.1015
   7323SM   C5F 9607   4.287   1.529  17.026 -0.0695 -0.3937 -0.0190
   7323SM   H5F 9608   4.207   1.469  16.977  0.7461 -1.9859  0.5349
   7323SM   H5G 9609   4.351   1.458  17.084 -1.1749 -3.3825 -2.2038
   7323SM   C6F 9610   4.361   1.604  16.908  0.1205 -0.3041 -0.2947
   7323SM   H6F 9611   4.439   1.671  16.953 -1.1818 -1.1009  3.5166
   7323SM   H6G 9612   4.283   1.669  16.863 -0.0895 -0.1724  0.2425
   7323SM   C7F 9613   4.428   1.511  16.814  0.7359 -0.1528 -0.1222
   7323SM   H7F 9614   4.342   1.450  16.779 -0.9581  1.6627  0.6603
   7323SM   H7G 9615   4.501   1.445  16.865 -1.9401 -1.3101  2.4399
   7323SM   C8F 9616   4.486   1.597  16.699  0.4250 -0.1775  0.8393
   7323SM   H8F 9617   4.581   1.646  16.730 -0.4539  1.6232  0.8184
   7323SM   H8G 9618   4.411   1.674  16.671 -0.3055 -1.4492 -0.8636
   7323SM   C9F 9619   4.505   1.523  16.568  0.2132 -0.5223 -0.3461
   7323SM   H9F 9620   4.406   1.484  16.537 -0.5498  0.9996  0.0510
   7323SM   H9G 9621   4.574   1.439  16.588  0.6531 -0.4019 -1.2701
   7323SM  C10F 9622   4.566   1.622  16.473 -0.1825  0.6488  1.0615
   7323SM  H10F 9623   4.671   1.646  16.500 -0.2584  2.5334 -0.1345
   7323SM  H10G 9624   4.511   1.718  16.465 -1.5613 -0.0533  1.7810
   7323SM  C11F 9625   4.560   1.561  16.325  0.3805  0.0754 -1.0737
   7323SM  H11F 9626   4.457   1.547  16.286 -0.4248 -0.1860  1.0418
   7323SM  H11G 9627   4.596   1.459  16.350 -0.6550  0.1337  0.7836
   7323SM  C12F 9628   4.646   1.628  16.224 -0.5711  0.2933 -0.3244
   7323SM  H12F 9629   4.731   1.677  16.277 -0.5431 -0.5302  0.4102
   7323SM  H12G 9630   4.582   1.716  16.200  0.1460  0.4879 -1.6260
   7323SM  C13F 9631   4.702   1.549  16.107 -0.8808  0.2561 -0.1883
   7323SM  H13F 9632   4.610   1.511  16.059 -0.6350 -1.8547  0.8986
   7323SM  H13G 9633   4.766   1.465  16.140  0.7470  0.8840 -1.5830
   7323SM  C14F 9634   4.795   1.629  16.010 -0.4129 -0.5017 -0.7547
   7323SM  H14F 9635   4.887   1.568  16.015  0.2063  0.2912 -2.1026
   7323SM  H14G 9636   4.810   1.732  16.048 -1.3471  0.3973 -2.6587
   7323SM  C15F 9637   4.739   1.641  15.870  0.2342 -0.5235 -0.1736
   7323SM  H15F 9638   4.821   1.670  15.801 -0.5923 -2.7667 -2.2429
   7323SM  H15G 9639   4.672   1.729  15.876  1.2775  0.2037  1.7771
   7323SM  C16F 9640   4.660   1.523  15.809  0.2683 -0.3083 -0.2468
   7323SM  H16F 9641   4.557   1.517  15.850 -0.4554  0.6582 -1.7908
   7323SM  H16G 9642   4.709   1.427  15.836 -1.2931 -2.0719 -3.1141
   7323SM  C17F 9643   4.652   1.509  15.658 -0.0153  0.0009  0.1139
   7323SM  H17F 9644   4.603   1.599  15.614  0.5468 -0.7108 -2.1233
   7323SM  H17G 9645   4.582   1.428  15.628  0.2287  0.6533 -2.4815
   7323SM  C18F 9646   4.787   1.497  15.593 -0.4134 -0.1814  0.2225
   7323SM  H18F 9647   4.836   1.410  15.642  2.1162  0.8997 -0.2292
   7323SM  H18G 9648   4.847   1.590  15.598  1.6755 -0.9332 -5.1094
   7323SM  C19F 9649   4.780   1.469  15.442 -0.5662  0.2846 -0.2853
   7323SM  H19F 9650   4.700   1.394  15.426 -2.0408  1.5347  0.9159
   7323SM  H19G 9651   4.879   1.426  15.414 -0.9686  0.0593 -1.4053
   7323SM  C20F 9652   4.762   1.596  15.364 -0.7345 -0.5429  0.0574
   7323SM  H20F 9653   4.847   1.665  15.383  0.2992 -1.3400 -1.3896
   7323SM  H20G 9654   4.669   1.651  15.390 -0.6354 -0.3341 -0.0277
   7323SM  C21F 9655   4.742   1.577  15.213 -0.4566  0.7008  0.0219
   7323SM  H21F 9656   4.648   1.517  15.211 -0.6770  0.8362  2.8044
   7323SM  H21G 9657   4.832   1.523  15.176 -0.5058 -1.1647  2.3841
   7323SM  C22F 9658   4.717   1.703  15.128  0.0150  0.4687 -0.3456
   7323SM  H22F 9659   4.641   1.761  15.184 -0.6889 -0.9922  0.2768
   7323SM  H22G 9660   4.688   1.670  15.026  0.1393 -2.9167  0.5986
   7323SM  C23F 9661   4.847   1.783  15.104 -0.0464 -0.2692 -0.6707
   7323SM  H23F 9662   4.881   1.823  15.202 -0.7066 -0.6068 -0.2933
   7323SM  H23G 9663   4.825   1.865  15.033 -0.6289 -0.2937 -0.5213
   7323SM  H23H 9664   4.925   1.712  15.067  2.0293  1.9004 -0.6966
   7423SM     N 9665   5.983   4.994  17.604 -0.0288  0.9861  0.2294
   7423SM   C15 9666   5.873   5.070  17.547  0.8591 -0.1191 -0.6201
   7423SM  H15A 9667   5.791   5.016  17.501  0.3526 -0.0677  0.2044
   7423SM  H15B 9668   5.906   5.140  17.471 -1.0750  0.3788 -1.0687
   7423SM  H15C 9669   5.835   5.128  17.629  4.1759  1.2224  0.1152
   7423SM   C14 9670   6.087   5.088  17.653 -0.6912 -0.5682 -1.3565
   7423SM  H14A 9671   6.163   5.037  17.710 -1.1682 -0.4710 -0.6267
   7423SM  H14B 9672   6.061   5.173  17.714  2.3062 -2.4610  3.1512
   7423SM  H14C 9673   6.135   5.127  17.564  0.1286  0.1079 -0.6337
   7423SM   C13 9674   5.935   4.915  17.725  0.1334 -0.5459 -0.3127
   7423SM  H13A 9675   5.874   4.984  17.782  0.8831  1.1673 -1.4881
   7423SM  H13B 9676   6.012   4.864  17.781 -0.4997  0.3888  1.5112
   7423SM  H13C 9677   5.871   4.837  17.688 -1.5431 -0.1313  1.5513
   7423SM   C12 9678   6.044   4.897  17.496 -0.1229 -0.1836 -0.5056
   7423SM  H12A 9679   5.975   4.814  17.484  1.4701 -1.6385 -0.1085
   7423SM  H12B 9680   6.134   4.849  17.533  0.4635 -1.3085 -3.1030
   7423SM   C11 9681   6.077   4.953  17.355 -0.0160  0.5924  0.1980
   7423SM  H11A 9682   5.988   5.013  17.325  0.6651  2.6744  2.1360
   7423SM  H11B 9683   6.100   4.877  17.277  3.4399  1.2288  0.4668
   7423SM     P 9684   6.327   4.981  17.325  0.4042  0.1594  0.0243
   7423SM   O13 9685   6.423   5.090  17.326  0.1371 -0.5218  0.1134
   7423SM   O14 9686   6.365   4.856  17.392 -0.4174  0.2248 -0.0499
   7423SM   O11 9687   6.295   4.938  17.172  0.5277 -0.3338  0.2289
   7423SM   O12 9688   6.188   5.037  17.374 -0.5141 -0.3024 -0.2508
   7423SM   C1S 9689   6.383   4.982  17.067 -0.8326  0.1366 -0.5833
   7423SM   H1S 9690   6.482   4.937  17.092  0.3852  1.4998 -2.6111
   7423SM   H1T 9691   6.389   5.091  17.049  3.8053 -0.0683 -1.6509
   7423SM    NF 9692   6.452   4.906  16.832  0.2541 -0.3441  0.1342
   7423SM   HNF 9693   6.436   4.962  16.751 -1.2867 -0.2705  0.4759
   7423SM   C2S 9694   6.348   4.910  16.927 -0.0491  0.1757  0.4258
   7423SM   H2S 9695   6.311   4.807  16.949  0.6017 -0.4504 -1.2569
   7423SM   C3S 9696   6.218   4.984  16.878  0.0545 -0.5909  0.1069
   7423SM   H3S 9697   6.243   5.091  16.861 -0.9093 -0.4415 -0.4069
   7423SM    O3 9698   6.114   4.986  16.981  0.0374 -0.1907  0.6491
   7423SM   HO3 9699   6.150   4.954  17.064 -2.4292  0.1723  1.9298
   7423SM   C4S 9700   6.160   4.943  16.743 -0.6294 -0.0716 -0.0652
   7423SM   H4S 9701   6.191   5.011  16.663 -0.5657 -0.8074 -0.6804
   7423SM   C5S 9702   6.073   4.846  16.715  0.3305 -0.2908  0.5528
   7423SM   H5S 9703   6.050   4.775  16.795  0.3128  0.4984  1.2597
   7423SM   C6S 9704   6.011   4.818  16.581  0.7821 -0.4823 -0.3824
   7423SM   H6S 9705   5.901   4.833  16.584  0.9615  1.2447 -1.1812
   7423SM   H6T 9706   6.043   4.716  16.548  0.9510  0.1743 -2.3701
   7423SM   C7S 9707   6.053   4.911  16.462 -0.2433 -0.6646 -0.1027
   7423SM   H7S 9708   6.163   4.905  16.468 -0.3741 -2.0313  1.5962
   7423SM   H7T 9709   6.012   5.013  16.481 -0.6730 -0.7402 -0.5920
   7423SM   C8S 9710   5.997   4.857  16.330  0.0900 -0.2545  0.6946
   7423SM   H8S 9711   5.886   4.861  16.343 -0.1323  5.4044 -0.1908
   7423SM   H8T 9712   6.023   4.750  16.316 -1.2089 -0.6444  1.0434
   7423SM   C9S 9713   6.029   4.943  16.214 -0.1314  0.5311 -0.4191
   7423SM   H9S 9714   6.139   4.950  16.202 -0.0843 -0.4740 -0.6047
   7423SM   H9T 9715   6.000   5.051  16.216 -0.9732  0.3164 -0.7219
   7423SM  C10S 9716   5.974   4.884  16.080 -0.6592  0.2654 -0.0192
   7423SM  H10S 9717   5.864   4.868  16.082 -0.6410  0.2144  0.5221
   7423SM  H10T 9718   6.029   4.789  16.063  1.5854  1.6557 -1.0914
   7423SM  C11S 9719   6.023   4.963  15.958 -0.0118  0.7608 -0.3575
   7423SM  H11S 9720   6.002   4.902  15.867 -2.6157  2.3394 -0.9288
   7423SM  H11T 9721   6.133   4.979  15.960  0.2048 -0.5614 -0.3838
   7423SM  C12S 9722   5.953   5.098  15.934  0.1227  0.4087  0.4096
   7423SM  H12S 9723   5.960   5.157  16.027  1.9300  1.1482 -0.1561
   7423SM  H12T 9724   5.843   5.085  15.925  0.2545  0.2867 -1.6466
   7423SM  C13S 9725   6.001   5.170  15.814 -0.6220 -0.0010  0.6676
   7423SM  H13S 9726   6.112   5.169  15.807 -0.7178  1.0404 -2.0052
   7423SM  H13T 9727   5.969   5.276  15.818 -1.7338 -0.1280 -2.2358
   7423SM  C14S 9728   5.940   5.123  15.682  0.0343 -0.1794 -0.4693
   7423SM  H14S 9729   5.836   5.084  15.693  0.6485 -1.6705  0.3790
   7423SM  H14T 9730   5.985   5.028  15.645  0.9379  0.6232 -1.4936
   7423SM  C15S 9731   5.944   5.230  15.571  0.8605 -0.2538  0.3811
   7423SM  H15S 9732   6.045   5.276  15.570  0.3724  0.8571  0.3278
   7423SM  H15T 9733   5.864   5.305  15.587 -0.0000 -1.1607  0.4005
   7423SM  C16S 9734   5.913   5.166  15.438 -0.1530  0.0454  0.7075
   7423SM  H16S 9735   5.816   5.111  15.442  0.0418 -0.2869  0.9720
   7423SM  H16T 9736   5.985   5.084  15.420 -0.4994 -0.2085  0.4501
   7423SM  C17S 9737   5.910   5.266  15.317 -0.0154 -0.4347  0.3340
   7423SM  H17S 9738   6.017   5.290  15.295  0.1879 -1.2667  0.3710
   7423SM  H17T 9739   5.859   5.357  15.354 -1.3171 -1.1972  0.4524
   7423SM  C18S 9740   5.835   5.220  15.192  0.1022  0.4511 -0.4821
   7423SM  H18S 9741   5.869   5.120  15.158  0.9665 -0.3408  2.4482
   7423SM  H18T 9742   5.841   5.292  15.107 -0.2623  0.2942 -0.6445
   7423SM  H18U 9743   5.727   5.217  15.218  0.5064  2.5206  1.7525
   7423SM   C1F 9744   6.559   4.829  16.855  0.2030 -0.6576  0.0505
   7423SM    OF 9745   6.564   4.759  16.959  0.0419  0.5770 -0.5107
   7423SM   C2F 9746   6.655   4.835  16.742 -0.6094 -0.2857  0.0944
   7423SM   H2F 9747   6.702   4.936  16.745  0.0147 -0.5914  1.0171
   7423SM   H2G 9748   6.593   4.824  16.650 -0.0881  0.4700 -0.3608
   7423SM   C3F 9749   6.773   4.725  16.741  0.4135 -0.0784  0.7348
   7423SM   H3F 9750   6.731   4.628  16.775 -0.0265 -0.7151 -1.4122
   7423SM   H3G 9751   6.843   4.758  16.820  0.4249 -1.4296  1.3076
   7423SM   C4F 9752   6.832   4.708  16.605  0.7412 -0.0589  0.0442
   7423SM   H4F 9753   6.749   4.673  16.540 -1.5439  2.0151  1.6831
   7423SM   H4G 9754   6.904   4.624  16.608 -0.1513 -0.8369 -0.0368
   7423SM   C5F 9755   6.910   4.838  16.562 -0.9741 -0.3401 -0.0538
   7423SM   H5F 9756   6.992   4.860  16.634 -0.6023 -1.2713 -0.1701
   7423SM   H5G 9757   6.837   4.920  16.576 -1.2125 -0.8829  2.1679
   7423SM   C6F 9758   6.959   4.846  16.414 -0.3572 -0.0395  0.2304
   7423SM   H6F 9759   7.018   4.753  16.400 -2.0291 -0.7424 -3.1108
   7423SM   H6G 9760   7.038   4.923  16.399  0.3075 -0.2839  2.1664
   7423SM   C7F 9761   6.840   4.846  16.318  0.2484  0.1257 -0.7814
   7423SM   H7F 9762   6.766   4.920  16.356 -1.1722 -0.9840 -1.3329
   7423SM   H7G 9763   6.776   4.756  16.328 -0.9529  1.2515  3.2667
   7423SM   C8F 9764   6.878   4.862  16.173 -0.9559 -0.1380 -0.2509
   7423SM   H8F 9765   6.943   4.952  16.172 -0.8521 -0.2106 -0.0162
   7423SM   H8G 9766   6.789   4.878  16.107 -1.5581 -2.1238  0.0088
   7423SM   C9F 9767   6.943   4.736  16.112  0.8208 -0.4296  0.0439
   7423SM   H9F 9768   6.868   4.655  16.102  0.2377  0.2365 -1.0697
   7423SM   H9G 9769   7.021   4.704  16.185  0.4462 -1.5439 -0.0222
   7423SM  C10F 9770   6.994   4.772  15.974 -0.0251  0.5956  0.2170
   7423SM  H10F 9771   7.056   4.687  15.938 -0.8603 -0.8497  2.0285
   7423SM  H10G 9772   7.072   4.851  15.980  0.0579  0.5761 -0.4927
   7423SM  C11F 9773   6.889   4.786  15.867 -0.6046 -0.1267 -0.0865
   7423SM  H11F 9774   6.815   4.863  15.895  0.7078  0.9877  0.4053
   7423SM  H11G 9775   6.832   4.690  15.867 -0.5799 -0.2058  2.5893
   7423SM  C12F 9776   6.946   4.821  15.728 -0.2569 -0.0898  0.4508
   7423SM  H12F 9777   7.004   4.735  15.689 -1.6916 -0.4754 -0.9259
   7423SM  H12G 9778   7.012   4.910  15.740 -1.1483  0.5065  1.1059
   7423SM  C13F 9779   6.836   4.842  15.624  0.3354  0.0435 -0.1974
   7423SM  H13F 9780   6.758   4.906  15.670 -0.5306 -0.2171 -1.2754
   7423SM  H13G 9781   6.799   4.738  15.610  1.0305 -0.0368 -1.6047
   7423SM  C14F 9782   6.887   4.899  15.494  0.3555 -0.4712  0.1211
   7423SM  H14F 9783   6.976   4.841  15.460  0.7505 -0.0801  0.4927
   7423SM  H14G 9784   6.922   5.002  15.513 -1.3436  0.0733  0.4920
   7423SM  C15F 9785   6.782   4.897  15.380  0.1052 -0.5454  0.8787
   7423SM  H15F 9786   6.696   4.955  15.420 -0.1303  0.8064 -1.4115
   7423SM  H15G 9787   6.758   4.797  15.338  4.0644 -0.8360 -1.1779
   7423SM  C16F 9788   6.841   4.971  15.254 -0.7159  0.2907  0.2048
   7423SM  H16F 9789   6.849   5.079  15.279 -1.9145  0.0338  1.8800
   7423SM  H16G 9790   6.767   4.972  15.172 -0.0311 -1.1409 -0.4588
   7423SM  C17F 9791   6.971   4.908  15.199  0.2808 -0.1018 -0.0282
   7423SM  H17F 9792   7.050   4.940  15.271 -0.0322 -2.2648  1.3555
   7423SM  H17G 9793   6.997   4.961  15.105  1.0844 -1.2146 -0.4489
   7423SM  C18F 9794   6.963   4.757  15.170 -0.5566 -0.1774 -0.5729
   7423SM  H18F 9795   6.880   4.740  15.098 -1.3333 -1.8036  0.6266
   7423SM  H18G 9796   6.951   4.710  15.270  1.9797 -0.8285 -0.5259
   7423SM  C19F 9797   7.089   4.694  15.139  0.1482  0.0130  0.3340
   7423SM  H19F 9798   7.093   4.588  15.173 -0.5590  0.3214  1.4337
   7423SM  H19G 9799   7.165   4.746  15.202 -0.4212  1.7305 -0.3309
   7423SM  C20F 9800   7.114   4.703  14.986 -0.6872 -0.2486  0.2232
   7423SM  H20F 9801   7.222   4.682  14.973 -0.3216  0.7325  1.4282
   7423SM  H20G 9802   7.103   4.807  14.948  1.9772 -0.8561 -2.5946
   7423SM  C21F 9803   7.034   4.598  14.908  0.1149  0.7135  0.0682
   7423SM  H21F 9804   6.926   4.619  14.921  0.1026  0.9826 -0.4595
   7423SM  H21G 9805   7.061   4.496  14.940 -0.8320  0.8450  1.3795
   7423SM  C22F 9806   7.058   4.602  14.759  0.9487  0.3500  0.3351
   7423SM  H22F 9807   7.009   4.694  14.720 -1.2451  0.2112  2.5183
   7423SM  H22G 9808   7.021   4.512  14.705  0.8072  2.5289 -3.5885
   7423SM  C23F 9809   7.208   4.610  14.712  0.4452 -0.6821  0.1237
   7423SM  H23F 9810   7.272   4.537  14.764  0.6004  0.2918  1.3456
   7423SM  H23G 9811   7.250   4.711  14.731 -0.6253  0.2374 -1.9321
   7423SM  H23H 9812   7.215   4.598  14.601  3.9430 -1.0826  0.2944
   7523SM     N 9813   5.535   6.224  17.771  0.0166 -0.2685 -0.7904
   7523SM   C15 9814   5.463   6.112  17.841  0.5741 -0.5068 -0.6315
   7523SM  H15A 9815   5.452   6.022  17.782  1.6296 -1.4130  0.4855
   7523SM  H15B 9816   5.368   6.146  17.881  1.4978 -0.0242  1.3055
   7523SM  H15C 9817   5.518   6.089  17.932 -1.4659  0.6698  0.9905
   7523SM   C14 9818   5.521   6.354  17.848 -0.8268  0.1970 -0.4037
   7523SM  H14A 9819   5.556   6.437  17.789 -0.7984  2.1367  2.2011
   7523SM  H14B 9820   5.585   6.360  17.934 -1.5099  0.3933  0.0955
   7523SM  H14C 9821   5.422   6.374  17.886 -0.9986  1.5449 -1.4872
   7523SM   C13 9822   5.683   6.188  17.767 -0.9113  0.4931 -0.2380
   7523SM  H13A 9823   5.738   6.239  17.689  1.6149 -2.1129 -0.3319
   7523SM  H13B 9824   5.696   6.081  17.757  0.2384  0.5083  0.7716
   7523SM  H13C 9825   5.733   6.218  17.858  0.2412 -0.5706 -0.4966
   7523SM   C12 9826   5.471   6.239  17.632 -0.4117  0.4553  0.2718
   7523SM  H12A 9827   5.514   6.333  17.600  1.0079 -0.1543  0.3519
   7523SM  H12B 9828   5.364   6.247  17.648 -0.5385 -2.2401  1.2005
   7523SM   C11 9829   5.484   6.125  17.529  0.5598 -0.7481  0.5176
   7523SM  H11A 9830   5.589   6.092  17.516  0.7455 -0.2605  0.7552
   7523SM  H11B 9831   5.457   6.163  17.428  0.4753 -2.0200  0.0356
   7523SM     P 9832   5.251   6.014  17.525 -0.2613  0.1395 -0.3467
   7523SM   O13 9833   5.183   5.897  17.584 -0.1245  0.6978 -0.3277
   7523SM   O14 9834   5.196   6.145  17.568  0.2690  0.5101  0.2965
   7523SM   O11 9835   5.254   6.008  17.362  0.2108 -0.4444 -0.3741
   7523SM   O12 9836   5.403   6.014  17.567 -0.3395 -0.2662 -0.0548
   7523SM   C1S 9837   5.329   5.914  17.290  0.3320 -0.3619 -0.1173
   7523SM   H1S 9838   5.282   5.814  17.305 -2.0835 -0.2349 -4.9497
   7523SM   H1T 9839   5.438   5.913  17.312  0.1281  0.5602  1.0218
   7523SM    NF 9840   5.363   5.802  17.071  0.7705  0.5457 -0.0675
   7523SM   HNF 9841   5.436   5.822  17.005 -0.6703  1.2342 -1.5362
   7523SM   C2S 9842   5.304   5.922  17.137 -0.1613 -0.5118 -0.3242
   7523SM   H2S 9843   5.195   5.922  17.114 -0.2646 -0.2120  0.1591
   7523SM   C3S 9844   5.355   6.063  17.082 -0.0941  0.0650  0.8667
   7523SM   H3S 9845   5.466   6.062  17.091 -0.0242 -1.4633  0.1735
   7523SM    O3 9846   5.321   6.175  17.168  0.8015  0.0251 -0.0629
   7523SM   HO3 9847   5.267   6.132  17.235  0.9849  2.3636  1.7298
   7523SM   C4S 9848   5.314   6.073  16.941 -0.8858  0.2456  0.6351
   7523SM   H4S 9849   5.223   6.014  16.924  1.8257 -4.4631  0.7762
   7523SM   C5S 9850   5.396   6.104  16.832  0.4674  0.2862 -0.3288
   7523SM   H5S 9851   5.500   6.129  16.859  0.4890  0.3082 -0.4317
   7523SM   C6S 9852   5.355   6.069  16.692  0.3513 -0.1108 -0.1873
   7523SM   H6S 9853   5.350   6.154  16.621 -3.9838 -0.0059 -0.0051
   7523SM   H6T 9854   5.253   6.026  16.697 -0.7013  2.3793  1.3628
   7523SM   C7S 9855   5.448   5.960  16.625 -0.1549 -0.0367  0.3435
   7523SM   H7S 9856   5.444   5.875  16.697  0.5970  0.1252  0.5886
   7523SM   H7T 9857   5.551   6.002  16.621  0.2664 -0.8899  1.4598
   7523SM   C8S 9858   5.413   5.919  16.488 -0.3534 -0.0554  1.5059
   7523SM   H8S 9859   5.451   5.992  16.414  1.3597 -0.7196  1.6813
   7523SM   H8T 9860   5.302   5.912  16.492 -0.3116 -0.6065  1.8618
   7523SM   C9S 9861   5.462   5.779  16.440 -0.2918 -0.9251 -0.2384
   7523SM   H9S 9862   5.449   5.705  16.521 -1.5849 -0.6008 -0.1372
   7523SM   H9T 9863   5.570   5.793  16.416  0.2520 -2.1465  1.3549
   7523SM  C10S 9864   5.406   5.724  16.308  0.1783  0.5199  0.7268
   7523SM  H10S 9865   5.296   5.715  16.324 -0.0709  0.5900 -0.7906
   7523SM  H10T 9866   5.439   5.622  16.282  1.9249  0.6134  2.4051
   7523SM  C11S 9867   5.429   5.818  16.192  0.3017 -0.4343  0.2090
   7523SM  H11S 9868   5.510   5.887  16.224 -1.9178  1.3334  2.4477
   7523SM  H11T 9869   5.341   5.886  16.187  1.1367  0.6336 -0.6004
   7523SM  C12S 9870   5.425   5.738  16.058 -0.5040 -0.0765  0.4330
   7523SM  H12S 9871   5.328   5.688  16.038 -0.1125 -0.0165 -1.8212
   7523SM  H12T 9872   5.497   5.653  16.057  0.7760  0.9070 -2.8983
   7523SM  C13S 9873   5.459   5.821  15.928  0.2448 -0.6246 -0.5272
   7523SM  H13S 9874   5.564   5.857  15.930 -0.7549  2.6179  1.5204
   7523SM  H13T 9875   5.383   5.900  15.908 -1.4894 -1.5807  1.7228
   7523SM  C14S 9876   5.442   5.744  15.794  0.4044  0.2098 -0.8651
   7523SM  H14S 9877   5.357   5.781  15.733  0.6245 -1.5077 -2.2908
   7523SM  H14T 9878   5.419   5.639  15.823  2.1123 -0.3160 -1.2831
   7523SM  C15S 9879   5.561   5.744  15.694  0.5875 -0.0507 -0.0549
   7523SM  H15S 9880   5.652   5.705  15.745  0.7856  1.9454  1.1979
   7523SM  H15T 9881   5.584   5.850  15.671  0.8606 -0.4547 -1.7571
   7523SM  C16S 9882   5.534   5.670  15.566  0.6615  0.4008  0.8628
   7523SM  H16S 9883   5.431   5.693  15.529  1.6294  2.4759 -0.7523
   7523SM  H16T 9884   5.545   5.563  15.592  2.2367  0.5218  0.7527
   7523SM  C17S 9885   5.636   5.693  15.450  0.0503  0.2368  0.7649
   7523SM  H17S 9886   5.581   5.658  15.360  0.4010  0.7648  0.3340
   7523SM  H17T 9887   5.723   5.627  15.469  2.8769  3.1608 -0.9784
   7523SM  C18S 9888   5.663   5.839  15.416 -0.1106  0.1764 -0.4149
   7523SM  H18S 9889   5.703   5.848  15.313 -1.2405 -0.7861 -0.9595
   7523SM  H18T 9890   5.731   5.888  15.489 -0.1371 -0.1552 -0.1631
   7523SM  H18U 9891   5.567   5.895  15.415  0.5608  1.3628 -0.0588
   7523SM   C1F 9892   5.322   5.675  17.087  0.0100  0.4099  0.5410
   7523SM    OF 9893   5.223   5.647  17.152 -0.4692  0.5584  0.1981
   7523SM   C2F 9894   5.407   5.564  17.032 -0.3750 -0.2779  0.5948
   7523SM   H2F 9895   5.491   5.552  17.104 -1.0484 -0.8286  1.3076
   7523SM   H2G 9896   5.453   5.588  16.934 -0.1225  0.4229  0.8765
   7523SM   C3F 9897   5.332   5.430  17.036  0.9793  0.3519  0.6188
   7523SM   H3F 9898   5.279   5.417  17.132  0.1184 -0.1403  0.0961
   7523SM   H3G 9899   5.412   5.356  17.012  3.2001  3.1349 -1.2139
   7523SM   C4F 9900   5.222   5.419  16.923  0.3130 -0.7622 -0.4400
   7523SM   H4F 9901   5.134   5.478  16.957 -0.9885 -1.0674 -3.0534
   7523SM   H4G 9902   5.190   5.312  16.918  4.2493 -2.2478  1.7540
   7523SM   C5F 9903   5.262   5.466  16.782  0.2235 -0.5969 -0.6599
   7523SM   H5F 9904   5.372   5.462  16.772  0.1260  0.3678 -2.3744
   7523SM   H5G 9905   5.241   5.574  16.767 -2.9752 -1.1328 -0.7730
   7523SM   C6F 9906   5.214   5.375  16.677  0.0070 -0.0281  0.2428
   7523SM   H6F 9907   5.109   5.410  16.669 -0.6058 -1.7322  0.3827
   7523SM   H6G 9908   5.218   5.267  16.704 -0.8965 -0.2514 -0.4595
   7523SM   C7F 9909   5.290   5.410  16.541 -0.0421  0.1268 -1.1543
   7523SM   H7F 9910   5.396   5.392  16.571 -0.5961 -0.0708  0.8530
   7523SM   H7G 9911   5.284   5.520  16.531 -1.4340  0.6882  3.5026
   7523SM   C8F 9912   5.250   5.314  16.434  0.4532  0.2400 -0.6389
   7523SM   H8F 9913   5.265   5.209  16.469  0.1833 -0.0730 -1.4434
   7523SM   H8G 9914   5.315   5.324  16.345  0.6357  0.4547 -0.4817
   7523SM   C9F 9915   5.113   5.336  16.361  0.1202  0.2289 -0.8373
   7523SM   H9F 9916   5.042   5.385  16.431 -0.3164 -0.8270 -0.5185
   7523SM   H9G 9917   5.070   5.239  16.326  1.2216 -0.4012 -0.4868
   7523SM  C10F 9918   5.132   5.420  16.235  0.4473 -0.8271  0.1358
   7523SM  H10F 9919   5.178   5.369  16.148 -1.4396 -1.2384 -0.6837
   7523SM  H10G 9920   5.202   5.504  16.252 -0.2797  0.0921 -1.2070
   7523SM  C11F 9921   4.991   5.485  16.194 -0.2071 -0.1300 -0.9930
   7523SM  H11F 9922   4.955   5.538  16.285 -1.0967 -1.4473 -0.5384
   7523SM  H11G 9923   4.909   5.411  16.176 -0.2737 -0.1945 -0.4400
   7523SM  C12F 9924   5.012   5.570  16.072 -0.3807  0.2049 -0.3449
   7523SM  H12F 9925   5.091   5.647  16.087  0.6541 -1.1451  1.4651
   7523SM  H12G 9926   4.920   5.631  16.059 -0.6916 -0.0911  0.3824
   7523SM  C13F 9927   5.050   5.481  15.953  0.4420 -0.1464  0.0458
   7523SM  H13F 9928   4.972   5.402  15.942  2.3317 -2.5129  2.2358
   7523SM  H13G 9929   5.149   5.432  15.965  0.0017 -1.3720 -1.0850
   7523SM  C14F 9930   5.065   5.556  15.816  0.5467  0.0721  0.2002
   7523SM  H14F 9931   5.136   5.639  15.835  1.2722 -0.6019  0.4822
   7523SM  H14G 9932   4.980   5.605  15.763  0.9697 -1.8756 -2.4564
   7523SM  C15F 9933   5.108   5.462  15.703 -0.3141  0.0431  0.9722
   7523SM  H15F 9934   5.051   5.367  15.717  0.0264 -0.0063  2.1070
   7523SM  H15G 9935   5.216   5.439  15.716  0.2167  1.9226  0.2662
   7523SM  C16F 9936   5.092   5.530  15.570 -0.4841 -0.0132 -0.5246
   7523SM  H16F 9937   5.126   5.635  15.574  0.3391 -0.2609 -0.8949
   7523SM  H16G 9938   4.991   5.514  15.527  0.4094 -0.2860 -2.6347
   7523SM  C17F 9939   5.185   5.462  15.474  0.2669  0.2166 -0.1851
   7523SM  H17F 9940   5.161   5.354  15.466 -3.5987  1.0060 -1.4711
   7523SM  H17G 9941   5.293   5.483  15.493 -0.0702  2.6206 -0.6062
   7523SM  C18F 9942   5.157   5.518  15.334  0.7044  0.5586 -0.3999
   7523SM  H18F 9943   5.174   5.627  15.326 -0.3218  0.6720 -1.2909
   7523SM  H18G 9944   5.053   5.490  15.306  0.7617 -1.2421  1.0293
   7523SM  C19F 9945   5.250   5.455  15.224  0.2867  0.3247 -0.0987
   7523SM  H19F 9946   5.238   5.345  15.218  0.2702  0.2776  0.6344
   7523SM  H19G 9947   5.353   5.463  15.264  0.2707 -1.4175  0.3555
   7523SM  C20F 9948   5.252   5.538  15.097 -0.0131  0.5130  0.3843
   7523SM  H20F 9949   5.304   5.633  15.121  0.1821  0.3391  0.6524
   7523SM  H20G 9950   5.151   5.550  15.052 -1.0422 -0.5638  2.3032
   7523SM  C21F 9951   5.329   5.470  14.971  0.3296 -0.2525 -0.0158
   7523SM  H21F 9952   5.309   5.535  14.884  0.8109  1.2967  1.0026
   7523SM  H21G 9953   5.292   5.365  14.962  1.1810 -0.5733  0.1817
   7523SM  C22F 9954   5.478   5.470  14.994  0.2922  0.6649  0.2027
   7523SM  H22F 9955   5.501   5.396  15.073 -2.3805  1.0098  1.4295
   7523SM  H22G 9956   5.506   5.571  15.030  2.3836 -0.3420  1.5696
   7523SM  C23F 9957   5.553   5.414  14.875 -0.6617 -0.3338  0.5497
   7523SM  H23F 9958   5.500   5.322  14.842 -1.0058 -0.0693  0.3683
   7523SM  H23G 9959   5.654   5.376  14.903 -0.0668  2.0884  1.9937
   7523SM  H23H 9960   5.554   5.487  14.792  0.1717  1.1327  1.7945
   7623SM     N 9961   6.083   5.426  17.406 -0.1647  0.2493  0.0404
   7623SM   C15 9962   6.079   5.298  17.318 -0.1648  0.0188  1.1193
   7623SM  H15A 9963   6.158   5.296  17.244 -1.7698  0.4726 -0.6862
   7623SM  H15B 9964   5.991   5.287  17.256 -0.9284  1.6930  1.8389
   7623SM  H15C 9965   6.096   5.207  17.374  1.7533 -0.2729  0.1402
   7623SM   C14 9966   6.213   5.428  17.479 -1.5117 -0.2233 -0.2579
   7623SM  H14A 9967   6.297   5.413  17.413 -1.1643 -0.5708  0.2567
   7623SM  H14B 9968   6.214   5.361  17.563 -1.7268 -0.9135 -0.7968
   7623SM  H14C 9969   6.232   5.525  17.522  3.1364 -1.0391 -0.0157
   7623SM   C13 9970   6.077   5.543  17.312  0.4360  0.4253 -0.1669
   7623SM  H13A 9971   5.975   5.560  17.282  0.3238 -0.8898 -0.6122
   7623SM  H13B 9972   6.158   5.524  17.242  1.4311 -0.1957  1.0970
   7623SM  H13C 9973   6.097   5.639  17.356  1.2330 -0.2799  1.0798
   7623SM   C12 9974   5.959   5.422  17.496  0.3976 -0.3852 -0.6683
   7623SM  H12A 9975   5.954   5.517  17.547  1.4287  1.7174 -4.1321
   7623SM  H12B 9976   5.963   5.340  17.566  0.7739 -0.6852 -1.0365
   7623SM   C11 9977   5.817   5.412  17.417  0.4181  0.9377 -0.6886
   7623SM  H11A 9978   5.745   5.397  17.500 -1.3102  0.9097 -2.1422
   7623SM  H11B 9979   5.818   5.322  17.352  1.4457  1.0768 -0.8822
   7623SM     P 9980   5.651   5.608  17.363 -0.1112 -0.3420 -0.2833
   7623SM   O13 9981   5.549   5.505  17.341 -0.2464  0.0759  0.1681
   7623SM   O14 9982   5.664   5.665  17.497 -0.1887  0.2384 -0.4019
   7623SM   O11 9983   5.646   5.725  17.248 -0.3848 -0.6463  0.5411
   7623SM   O12 9984   5.789   5.528  17.337 -0.0694  0.5409  0.0201
   7623SM   C1S 9985   5.741   5.738  17.145 -0.1358  0.3650  0.3669
   7623SM   H1S 9986   5.705   5.668  17.066 -2.1411  1.5172  0.1957
   7623SM   H1T 9987   5.844   5.711  17.175 -0.2933 -1.5299 -0.6394
   7623SM    NF 9988   5.789   5.872  16.938  0.5404  0.4190  0.6291
   7623SM   HNF 9989   5.878   5.912  16.917  0.4856  0.9912  1.4181
   7623SM   C2S 9990   5.740   5.874  17.075 -0.1572 -0.3067  0.9249
   7623SM   H2S 9991   5.637   5.914  17.076 -0.0410  0.3614 -2.4830
   7623SM   C3S 9992   5.806   5.984  17.167  0.0823 -0.6346 -0.6561
   7623SM   H3S 9993   5.912   5.961  17.190  0.6017  0.9437 -1.2943
   7623SM    O3 9994   5.757   5.990  17.306  0.4298 -0.0772  0.2881
   7623SM   HO3 9995   5.700   5.913  17.301 -1.0500  1.0040 -0.2497
   7623SM   C4S 9996   5.821   6.122  17.097  0.4842  0.7992 -0.4326
   7623SM   H4S 9997   5.909   6.131  17.031 -0.9600 -1.0130 -2.7818
   7623SM   C5S 9998   5.729   6.217  17.098  0.1797 -0.0676 -0.3210
   7623SM   H5S 9999   5.652   6.215  17.176  0.1445  0.4031 -0.3384
   7623SM   C6S10000   5.737   6.360  17.048  0.2520 -0.0506  0.1803
   7623SM   H6S10001   5.841   6.390  17.023  0.6287 -1.2473  0.2493
   7623SM   H6T10002   5.688   6.434  17.115 -0.2682  1.2279 -1.5494
   7623SM   C7S10003   5.671   6.406  16.914  0.4361  0.8113 -0.6453
   7623SM   H7S10004   5.675   6.516  16.904 -0.8167  0.7760 -1.9626
   7623SM   H7T10005   5.567   6.368  16.919  0.5552  0.2578 -1.9967
   7623SM   C8S10006   5.734   6.347  16.787  0.4278  0.7714  1.1220
   7623SM   H8S10007   5.718   6.237  16.781  2.8960  0.4159 -1.3812
   7623SM   H8T10008   5.843   6.352  16.805  0.5924 -1.2089  0.9203
   7623SM   C9S10009   5.691   6.407  16.653 -0.0841 -0.4286 -0.6824
   7623SM   H9S10010   5.769   6.378  16.579 -0.2628  1.3149 -1.6075
   7623SM   H9T10011   5.688   6.518  16.660  0.6003 -0.4727  0.4263
   7623SM  C10S10012   5.553   6.364  16.610  0.1131 -0.4399  0.0378
   7623SM  H10S10013   5.488   6.357  16.700  2.3835  1.3174  1.9315
   7623SM  H10T10014   5.551   6.258  16.577  1.0003 -0.7307  0.8776
   7623SM  C11S10015   5.501   6.449  16.495  0.5206  0.2887 -0.0947
   7623SM  H11S10016   5.551   6.548  16.510 -0.1014  0.2939  2.2741
   7623SM  H11T10017   5.391   6.463  16.494  0.0296 -2.8513  0.9986
   7623SM  C12S10018   5.538   6.391  16.354 -0.0142 -0.4751  0.3769
   7623SM  H12S10019   5.645   6.362  16.355 -0.3453 -1.7701  0.9049
   7623SM  H12T10020   5.531   6.479  16.286  0.3708 -1.5561 -1.1120
   7623SM  C13S10021   5.456   6.273  16.308 -0.1932  0.4188  0.3200
   7623SM  H13S10022   5.351   6.307  16.293 -1.6625 -3.3900  0.8136
   7623SM  H13T10023   5.459   6.205  16.395 -0.5873 -0.0505 -0.0244
   7623SM  C14S10024   5.513   6.220  16.177  0.3283 -0.0114  0.8713
   7623SM  H14S10025   5.514   6.109  16.171 -0.7454 -0.1316  2.2190
   7623SM  H14T10026   5.616   6.260  16.171 -0.5290  2.5046  1.5389
   7623SM  C15S10027   5.438   6.274  16.053  0.7956  0.0197  0.0056
   7623SM  H15S10028   5.434   6.385  16.057  2.0567  0.0498  2.6651
   7623SM  H15T10029   5.332   6.242  16.048  1.1288 -0.9487 -1.7654
   7623SM  C16S10030   5.510   6.232  15.923  0.0260 -0.4899 -0.2160
   7623SM  H16S10031   5.502   6.122  15.928 -2.1843 -0.3481  0.6102
   7623SM  H16T10032   5.614   6.268  15.940 -0.2653 -0.7861  2.6649
   7623SM  C17S10033   5.454   6.301  15.797  0.1689  0.0329 -0.8740
   7623SM  H17S10034   5.469   6.411  15.805  2.6905 -0.3197  0.1121
   7623SM  H17T10035   5.346   6.279  15.794 -0.4521  2.3973  1.0495
   7623SM  C18S10036   5.509   6.254  15.662  0.0073 -0.1631  0.2832
   7623SM  H18S10037   5.619   6.267  15.663 -0.2494  2.5922  0.7313
   7623SM  H18T10038   5.463   6.314  15.581 -1.4041 -0.5710  0.7391
   7623SM  H18U10039   5.480   6.149  15.638  1.3190 -0.4161 -0.2919
   7623SM   C1F10040   5.716   5.824  16.838 -0.1514 -0.7032 -0.3532
   7623SM    OF10041   5.604   5.784  16.858  0.0980  0.4851 -0.1850
   7623SM   C2F10042   5.785   5.818  16.706  0.5723  0.1636 -0.4937
   7623SM   H2F10043   5.703   5.805  16.632 -0.0420 -0.0527  0.2066
   7623SM   H2G10044   5.839   5.721  16.700 -1.1739 -0.9383  0.6155
   7623SM   C3F10045   5.890   5.934  16.677  0.3838  0.4082 -0.4297
   7623SM   H3F10046   5.979   5.900  16.734  0.4040 -0.0879 -0.7514
   7623SM   H3G10047   5.846   6.034  16.694 -0.3264 -0.1442  1.3290
   7623SM   C4F10048   5.946   5.938  16.536  0.2493  0.4648  0.1708
   7623SM   H4F10049   5.987   5.840  16.506  1.8015  1.9665 -3.0927
   7623SM   H4G10050   6.038   6.000  16.539  1.4653 -1.2051 -0.9584
   7623SM   C5F10051   5.853   5.986  16.424  0.2088  0.5433 -0.8444
   7623SM   H5F10052   5.792   6.074  16.454 -2.1900 -1.1181 -0.4824
   7623SM   H5G10053   5.789   5.900  16.393  1.8499 -0.3215 -1.9489
   7623SM   C6F10054   5.939   6.004  16.303 -0.7341 -0.0189 -0.1267
   7623SM   H6F10055   5.986   5.905  16.286 -0.8333 -0.4033  1.7032
   7623SM   H6G10056   6.008   6.089  16.323 -1.2876  0.1091  1.3161
   7623SM   C7F10057   5.857   6.033  16.173  0.5523 -0.3009  0.1363
   7623SM   H7F10058   5.805   6.130  16.185  1.9523  0.2911  1.7551
   7623SM   H7G10059   5.783   5.958  16.137  0.5391 -1.2715  2.0736
   7623SM   C8F10060   5.960   6.060  16.064 -0.3664 -0.3558 -0.9736
   7623SM   H8F10061   6.032   5.977  16.052 -0.1768 -0.5609  1.2114
   7623SM   H8G10062   6.018   6.140  16.116 -1.3668 -1.5465  2.2374
   7623SM   C9F10063   5.895   6.089  15.926 -0.0311  0.2191  0.1860
   7623SM   H9F10064   5.834   6.182  15.931 -1.5240 -0.7675  1.2269
   7623SM   H9G10065   5.826   6.003  15.908  1.6778 -1.3482  0.8269
   7623SM  C10F10066   6.003   6.095  15.819  0.1099  0.2182 -0.3725
   7623SM  H10F10067   6.050   5.994  15.818 -0.9866 -0.3285 -2.1471
   7623SM  H10G10068   6.082   6.170  15.837  0.2805 -0.0421 -0.0225
   7623SM  C11F10069   5.944   6.131  15.684  0.3308 -0.2124 -0.6494
   7623SM  H11F10070   5.900   6.233  15.686  2.2562  0.7683  3.4134
   7623SM  H11G10071   5.862   6.057  15.674  0.0225  0.2394 -1.4990
   7623SM  C12F10072   6.034   6.118  15.568 -0.9827  0.0525  0.2410
   7623SM  H12F10073   6.065   6.011  15.570 -0.2680  0.2328 -0.4931
   7623SM  H12G10074   6.128   6.177  15.577 -1.9194  1.5810  0.3069
   7623SM  C13F10075   5.968   6.141  15.425  0.2231 -0.2480  0.0787
   7623SM  H13F10076   5.914   6.238  15.423  1.9047  0.8011  1.7838
   7623SM  H13G10077   5.902   6.054  15.407 -0.5727  0.4550 -0.5016
   7623SM  C14F10078   6.082   6.159  15.323  0.3074 -0.8854 -0.0378
   7623SM  H14F10079   6.161   6.082  15.334  2.2355  0.7632 -1.5138
   7623SM  H14G10080   6.138   6.252  15.345 -3.0735  1.3333  0.0660
   7623SM  C15F10081   6.041   6.163  15.166  0.2469  0.0510 -0.7414
   7623SM  H15F10082   5.975   6.251  15.156  0.4142  0.1706 -0.7958
   7623SM  H15G10083   5.985   6.069  15.145  2.7424 -1.1185 -2.6972
   7623SM  C16F10084   6.160   6.180  15.071 -0.0193 -0.0403 -0.1431
   7623SM  H16F10085   6.107   6.168  14.975 -0.8286  0.1303  0.2778
   7623SM  H16G10086   6.238   6.100  15.081  0.1014  0.0512 -0.3420
   7623SM  C17F10087   6.234   6.311  15.079 -0.8843 -0.3803  0.7365
   7623SM  H17F10088   6.287   6.313  15.177 -3.3864  1.3463  2.1942
   7623SM  H17G10089   6.149   6.382  15.092 -0.8035 -0.6664  3.5796
   7623SM  C18F10090   6.342   6.329  14.969 -0.2053  0.5234 -0.4947
   7623SM  H18F10091   6.314   6.379  14.874 -1.5791  0.8229  0.0482
   7623SM  H18G10092   6.348   6.225  14.931 -2.9761  0.4918 -1.0823
   7623SM  C19F10093   6.476   6.366  15.027  0.2155  0.3244  0.1412
   7623SM  H19F10094   6.515   6.297  15.104  0.4373  0.3574  0.0583
   7623SM  H19G10095   6.471   6.462  15.082  1.7430 -0.7393  2.2443
   7623SM  C20F10096   6.582   6.382  14.917 -0.2508 -0.6112 -0.2272
   7623SM  H20F10097   6.565   6.473  14.856 -0.5517 -0.8421 -0.4916
   7623SM  H20G10098   6.574   6.287  14.860 -1.0150 -0.5376 -0.2540
   7623SM  C21F10099   6.721   6.395  14.974 -0.0514  0.2614 -0.6537
   7623SM  H21F10100   6.731   6.332  15.066 -1.2460  0.5411 -0.3202
   7623SM  H21G10101   6.735   6.498  15.014  0.4324  0.0575 -0.2786
   7623SM  C22F10102   6.833   6.355  14.869 -0.1998  0.2845  0.5877
   7623SM  H22F10103   6.816   6.412  14.775  1.9923  0.4929  0.2555
   7623SM  H22G10104   6.820   6.248  14.843  0.5436  0.5981 -1.2136
   7623SM  C23F10105   6.980   6.382  14.912 -0.2135  0.1280 -0.2985
   7623SM  H23F10106   7.026   6.303  14.976  2.1595  0.1184 -1.8727
   7623SM  H23G10107   6.983   6.477  14.969  0.8402 -0.2112  0.2465
   7623SM  H23H10108   7.049   6.397  14.826 -1.8930  1.1600 -1.5286
   7723SM     N10109   6.381   2.242  17.651 -0.8676  0.1692 -0.1032
   7723SM   C1510110   6.349   2.120  17.722  0.1999  0.3326 -0.7784
   7723SM  H15A10111   6.391   2.037  17.668 -1.3955 -1.2940  0.3803
   7723SM  H15B10112   6.241   2.114  17.726  0.0617  1.8215 -1.4090
   7723SM  H15C10113   6.388   2.109  17.822  0.3815  3.0349 -0.4620
   7723SM   C1410114   6.534   2.268  17.660 -0.2440  0.4348  1.0075
   7723SM  H14A10115   6.570   2.284  17.760  0.0629 -1.5049  1.2449
   7723SM  H14B10116   6.561   2.352  17.597 -1.6981  0.5544  0.5180
   7723SM  H14C10117   6.596   2.186  17.626 -0.4409  0.1279  1.3896
   7723SM   C1310118   6.347   2.232  17.507  0.2149  0.5875 -0.1459
   7723SM  H13A10119   6.386   2.143  17.459  0.1824  0.6725 -0.3298
   7723SM  H13B10120   6.376   2.321  17.452  0.0861  0.1767 -0.9011
   7723SM  H13C10121   6.239   2.224  17.506  0.1163  1.4553  1.1603
   7723SM   C1210122   6.316   2.358  17.718 -0.0652 -0.5282 -0.6876
   7723SM  H12A10123   6.336   2.338  17.823 -0.2218  0.9391 -0.3532
   7723SM  H12B10124   6.208   2.352  17.713 -0.3656  1.9397  0.7753
   7723SM   C1110125   6.363   2.499  17.677  0.0118  0.3945 -0.3422
   7723SM  H11A10126   6.471   2.506  17.702  0.1624 -2.0519 -0.0441
   7723SM  H11B10127   6.303   2.570  17.738  0.7524  0.2391  0.5840
   7723SM     P10128   6.216   2.562  17.474  0.1151 -0.0754 -0.2356
   7723SM   O1310129   6.099   2.503  17.548  0.1562 -0.2791 -0.5159
   7723SM   O1410130   6.212   2.702  17.424  0.1139  0.3042 -0.1305
   7723SM   O1110131   6.220   2.475  17.345 -0.0935  0.2805  0.0029
   7723SM   O1210132   6.356   2.522  17.535 -0.4792 -0.0492 -0.0956
   7723SM   C1S10133   6.317   2.501  17.247  0.1807  0.5719 -0.0825
   7723SM   H1S10134   6.370   2.405  17.232 -1.5996 -0.4942  0.1604
   7723SM   H1T10135   6.380   2.589  17.272  1.4200 -0.5299  0.7293
   7723SM    NF10136   6.355   2.550  17.006 -0.1301 -0.3353 -0.0697
   7723SM   HNF10137   6.362   2.638  16.960 -1.4070 -0.6900 -0.9920
   7723SM   C2S10138   6.253   2.533  17.110 -0.6558 -0.0891  0.2528
   7723SM   H2S10139   6.205   2.434  17.093  0.8440 -0.8003  0.0407
   7723SM   C3S10140   6.149   2.645  17.107  1.2341 -0.4772 -0.0402
   7723SM   H3S10141   6.193   2.746  17.126 -0.0605 -0.0955  1.1067
   7723SM    O310142   6.041   2.633  17.198  0.1463  0.1273  0.1600
   7723SM   HO310143   6.059   2.557  17.254 -0.1711 -0.7605 -0.9050
   7723SM   C4S10144   6.091   2.667  16.977  0.1314 -0.1172  0.6810
   7723SM   H4S10145   6.010   2.597  16.953 -1.3010  1.3660  0.9689
   7723SM   C5S10146   6.110   2.760  16.879 -0.4904  0.2643 -0.5240
   7723SM   H5S10147   6.179   2.845  16.886 -0.6946  0.8582 -3.8084
   7723SM   C6S10148   6.036   2.756  16.750  0.0983  0.0240 -0.7745
   7723SM   H6S10149   5.970   2.845  16.748  0.6413  0.4243 -2.0004
   7723SM   H6T10150   5.991   2.655  16.741 -0.4210  0.0952  0.6757
   7723SM   C7S10151   6.131   2.771  16.628  0.1730 -0.5004 -0.0762
   7723SM   H7S10152   6.208   2.691  16.627  1.2531  0.4683 -2.6638
   7723SM   H7T10153   6.174   2.873  16.630 -1.1897  0.1098 -0.4078
   7723SM   C8S10154   6.051   2.769  16.498  0.7195  0.3036 -0.3731
   7723SM   H8S10155   5.983   2.857  16.500  0.3636  0.0265  0.4046
   7723SM   H8T10156   5.996   2.673  16.500  1.5235 -0.1605  0.4880
   7723SM   C9S10157   6.136   2.782  16.366  0.1666 -0.6841  0.2434
   7723SM   H9S10158   6.205   2.695  16.362  1.4410  0.3387 -0.3043
   7723SM   H9T10159   6.180   2.883  16.373  0.2085 -0.4565 -2.3794
   7723SM  C10S10160   6.051   2.780  16.235  0.0303 -0.7842  0.2996
   7723SM  H10S10161   5.988   2.871  16.220 -0.4022 -1.4866 -2.6992
   7723SM  H10T10162   5.970   2.703  16.238  1.0616 -1.8658  1.5287
   7723SM  C11S10163   6.145   2.756  16.115  0.1327 -0.6532  0.6747
   7723SM  H11S10164   6.137   2.650  16.081 -2.0512 -0.2001 -0.4151
   7723SM  H11T10165   6.250   2.755  16.151 -0.0539  2.4858  1.6173
   7723SM  C12S10166   6.111   2.860  16.003  0.4002  0.5180 -0.8619
   7723SM  H12S10167   6.140   2.962  16.033  0.1595  0.4249 -0.3010
   7723SM  H12T10168   6.001   2.852  15.995  0.5544 -0.4348 -2.6709
   7723SM  C13S10169   6.167   2.813  15.870 -0.2664 -0.0646  0.5269
   7723SM  H13S10170   6.145   2.704  15.867 -1.5980  0.1670  1.2501
   7723SM  H13T10171   6.275   2.832  15.887 -0.3386  1.0094 -0.1314
   7723SM  C14S10172   6.094   2.879  15.750 -1.2087  0.5217 -0.5401
   7723SM  H14S10173   6.099   2.989  15.761  0.0169  0.5972 -1.6325
   7723SM  H14T10174   5.989   2.842  15.760 -1.3304  1.2405  1.2751
   7723SM  C15S10175   6.160   2.832  15.625  0.6498  0.0667  0.6803
   7723SM  H15S10176   6.120   2.736  15.586 -0.3584  0.4163  0.8154
   7723SM  H15T10177   6.270   2.820  15.619  0.5939  0.2724 -1.4163
   7723SM  C16S10178   6.137   2.942  15.515  0.4426  0.4413  0.7057
   7723SM  H16S10179   6.183   3.037  15.549  1.3665  0.4478 -0.4917
   7723SM  H16T10180   6.029   2.967  15.526  0.4781  0.9422 -0.0253
   7723SM  C17S10181   6.173   2.893  15.378  0.5255 -0.1630  0.3494
   7723SM  H17S10182   6.143   2.788  15.356 -1.5753  0.3379  0.5879
   7723SM  H17T10183   6.283   2.897  15.365  0.3836  3.5434 -1.0339
   7723SM  C18S10184   6.103   2.974  15.268  0.0099  0.7002  0.2669
   7723SM  H18S10185   6.115   2.949  15.161  1.8883 -0.5089  0.7180
   7723SM  H18T10186   6.146   3.076  15.267 -0.6460  1.0046  1.3899
   7723SM  H18U10187   5.994   2.989  15.284 -0.5967  0.3779 -2.8985
   7723SM   C1F10188   6.442   2.459  16.952 -0.1069 -0.0258 -0.0916
   7723SM    OF10189   6.417   2.339  16.963 -0.6359 -0.1331 -0.1309
   7723SM   C2F10190   6.557   2.510  16.866 -0.4886 -0.9563 -0.3589
   7723SM   H2F10191   6.621   2.579  16.925 -3.3067  3.1706 -1.6451
   7723SM   H2G10192   6.512   2.576  16.788  1.1061  0.2109 -0.3357
   7723SM   C3F10193   6.630   2.393  16.803  0.0734  0.3953 -0.1038
   7723SM   H3F10194   6.559   2.340  16.735  0.6625 -1.8434  0.9183
   7723SM   H3G10195   6.670   2.317  16.873  1.6147  0.4178 -0.9181
   7723SM   C4F10196   6.748   2.441  16.710 -0.4619  0.1496  0.2277
   7723SM   H4F10197   6.783   2.350  16.657 -5.0659 -0.8725 -1.5488
   7723SM   H4G10198   6.831   2.470  16.777 -1.6493  1.7155  1.1097
   7723SM   C5F10199   6.706   2.538  16.591 -0.8307 -0.4514 -0.1918
   7723SM   H5F10200   6.791   2.595  16.548 -2.2662  1.6693 -0.3563
   7723SM   H5G10201   6.656   2.623  16.642  1.0618  1.5208 -1.4687
   7723SM   C6F10202   6.622   2.478  16.480 -0.1175 -0.3185  0.1063
   7723SM   H6F10203   6.533   2.434  16.530 -0.1544 -0.8588 -0.4334
   7723SM   H6G10204   6.673   2.390  16.436 -1.1968 -1.7617  1.6362
   7723SM   C7F10205   6.588   2.569  16.358 -0.0718 -0.2787 -0.7333
   7723SM   H7F10206   6.681   2.625  16.337  0.6803 -0.4877  1.8244
   7723SM   H7G10207   6.500   2.634  16.377 -0.5624 -1.2626  0.5094
   7723SM   C8F10208   6.554   2.483  16.230 -0.5130 -0.1646 -0.0194
   7723SM   H8F10209   6.479   2.405  16.256 -0.4823 -0.6417 -1.2810
   7723SM   H8G10210   6.640   2.419  16.203  0.7315  1.2769  0.4146
   7723SM   C9F10211   6.513   2.566  16.104 -1.0663  0.1374  0.2211
   7723SM   H9F10212   6.595   2.640  16.090 -1.2101  0.1165 -0.7649
   7723SM   H9G10213   6.414   2.613  16.125 -1.3762  0.4666 -1.7941
   7723SM  C10F10214   6.504   2.483  15.976  0.4683  0.1285 -0.3771
   7723SM  H10F10215   6.440   2.396  16.002 -0.4697  1.1483  0.9000
   7723SM  H10G10216   6.607   2.460  15.939  1.4727  0.3837  2.0548
   7723SM  C11F10217   6.447   2.558  15.858  0.4898 -0.1269 -1.0528
   7723SM  H11F10218   6.513   2.645  15.838 -0.5107  1.1115  0.6774
   7723SM  H11G10219   6.348   2.597  15.890  2.3372  2.3720  2.2928
   7723SM  C12F10220   6.421   2.461  15.744 -0.0618 -0.6555 -0.0732
   7723SM  H12F10221   6.347   2.385  15.774 -0.3632 -0.6603 -0.8119
   7723SM  H12G10222   6.518   2.409  15.730  0.7729  0.9954 -0.7077
   7723SM  C13F10223   6.393   2.538  15.614 -0.2295  0.3311 -0.8535
   7723SM  H13F10224   6.476   2.609  15.597  1.0815 -0.8393  0.3329
   7723SM  H13G10225   6.301   2.592  15.644  0.0727  0.2735  0.2265
   7723SM  C14F10226   6.365   2.437  15.498 -0.3198  0.1373 -0.6951
   7723SM  H14F10227   6.274   2.378  15.518 -1.0085  0.9886 -1.2357
   7723SM  H14G10228   6.452   2.370  15.483  1.9853  2.6761  0.4693
   7723SM  C15F10229   6.339   2.501  15.366  0.4995 -0.8216  0.0775
   7723SM  H15F10230   6.248   2.565  15.368 -1.4328 -3.3813  2.7276
   7723SM  H15G10231   6.306   2.419  15.298  0.9568 -1.4278  0.5797
   7723SM  C16F10232   6.460   2.569  15.308  0.6806 -0.0889 -0.1427
   7723SM  H16F10233   6.535   2.488  15.323 -0.3568 -1.0669 -0.1110
   7723SM  H16G10234   6.497   2.662  15.358 -2.0334  2.3258 -2.2739
   7723SM  C17F10235   6.449   2.586  15.160 -0.2279 -0.2891 -0.2430
   7723SM  H17F10236   6.441   2.479  15.130 -0.1230 -0.6275  0.9182
   7723SM  H17G10237   6.536   2.625  15.103  0.1903 -0.3776  0.3287
   7723SM  C18F10238   6.331   2.673  15.106  0.6779  0.1569 -0.5997
   7723SM  H18F10239   6.311   2.759  15.173 -1.4532 -1.1793  0.6374
   7723SM  H18G10240   6.236   2.615  15.099 -0.7239  2.4551 -2.0875
   7723SM  C19F10241   6.367   2.717  14.962 -0.3177  0.3633  0.2419
   7723SM  H19F10242   6.459   2.780  14.964 -0.7990  1.1428 -0.9310
   7723SM  H19G10243   6.282   2.781  14.930  0.8857  1.1033 -1.6790
   7723SM  C20F10244   6.385   2.600  14.867  0.0024 -0.8543  0.7023
   7723SM  H20F10245   6.306   2.527  14.893 -0.4215  0.0540  2.0778
   7723SM  H20G10246   6.486   2.555  14.883  1.0081  0.1724 -2.1814
   7723SM  C21F10247   6.392   2.638  14.720  0.0529 -0.8764  0.3145
   7723SM  H21F10248   6.477   2.709  14.708 -0.8075  0.0887 -0.2172
   7723SM  H21G10249   6.294   2.686  14.705 -0.5092 -0.8473  3.4658
   7723SM  C22F10250   6.413   2.522  14.627  0.4812  0.0005  0.4182
   7723SM  H22F10251   6.343   2.435  14.631  2.6716 -1.8603  0.3975
   7723SM  H22G10252   6.511   2.472  14.645  0.2947  0.3496  2.7933
   7723SM  C23F10253   6.420   2.577  14.483  0.7339  0.3193 -0.2357
   7723SM  H23F10254   6.514   2.634  14.468  1.1741 -0.0519  0.9824
   7723SM  H23G10255   6.325   2.633  14.468 -0.6925 -1.5144  1.3420
   7723SM  H23H10256   6.422   2.495  14.409  1.3386  1.9134 -2.0678
   7823SM     N10257   1.468   2.139  17.722 -0.0338 -0.0126  0.1597
   7823SM   C1510258   1.405   2.251  17.642 -0.3582 -0.8791 -0.0975
   7823SM  H15A10259   1.360   2.324  17.708  3.2737 -0.1715  1.8671
   7823SM  H15B10260   1.331   2.224  17.567 -1.0035  0.2902  0.0920
   7823SM  H15C10261   1.478   2.302  17.582 -1.7974  1.8302  0.2746
   7823SM   C1410262   1.588   2.205  17.794 -0.0179  0.4801  0.1375
   7823SM  H14A10263   1.633   2.143  17.870 -0.2811 -1.7475 -1.4221
   7823SM  H14B10264   1.551   2.297  17.838 -0.7675  0.3971 -0.2957
   7823SM  H14C10265   1.666   2.227  17.723 -0.8622  0.4684 -0.8132
   7823SM   C1310266   1.376   2.087  17.825 -0.2564  0.4020  0.1826
   7823SM  H13A10267   1.280   2.058  17.786 -0.3421 -0.5714  1.0521
   7823SM  H13B10268   1.356   2.161  17.901  0.5479 -0.9802  1.8149
   7823SM  H13C10269   1.419   2.009  17.887 -2.0095  0.1562  1.1640
   7823SM   C1210270   1.502   2.022  17.624 -0.1234  0.2959  0.3464
   7823SM  H12A10271   1.413   1.964  17.604  1.9943 -2.5578 -1.6308
   7823SM  H12B10272   1.576   1.962  17.676  0.0709  0.1768 -0.0696
   7823SM   C1110273   1.565   2.047  17.477 -0.1795 -0.3701 -1.1058
   7823SM  H11A10274   1.488   2.107  17.425 -0.3196  1.5354  1.1424
   7823SM  H11B10275   1.561   1.952  17.420 -2.8869 -0.2553 -1.2091
   7823SM     P10276   1.711   2.245  17.393  0.1452 -0.3270  0.3817
   7823SM   O1310277   1.614   2.352  17.406 -0.1710 -0.3557 -0.4658
   7823SM   O1410278   1.848   2.295  17.400  0.4843  0.1291 -0.7187
   7823SM   O1110279   1.699   2.184  17.246  0.1260  0.0351  0.5878
   7823SM   O1210280   1.691   2.112  17.479 -0.2527  0.3247  0.1548
   7823SM   C1S10281   1.773   2.070  17.206  0.1971 -0.4142  0.3183
   7823SM   H1S10282   1.733   1.982  17.263 -1.5001  0.8019  1.0950
   7823SM   H1T10283   1.880   2.085  17.229  0.3940 -0.2347 -0.6820
   7823SM    NF10284   1.793   1.906  17.024 -0.0467 -0.1458 -0.6650
   7823SM   HNF10285   1.872   1.888  16.966 -0.1332 -1.2824 -0.4565
   7823SM   C2S10286   1.757   2.040  17.053  0.3130  0.3202  0.2520
   7823SM   H2S10287   1.649   2.044  17.029  0.6287  0.9656 -1.1837
   7823SM   C3S10288   1.821   2.143  16.957 -0.4507  0.1010  0.0500
   7823SM   H3S10289   1.931   2.152  16.970 -0.6622  2.1960  0.9071
   7823SM    O310290   1.770   2.273  16.981 -0.6249  0.1678 -0.7541
   7823SM   HO310291   1.723   2.263  17.064 -0.1853 -1.2718 -0.6511
   7823SM   C4S10292   1.789   2.110  16.809  0.1370  0.2193  0.0822
   7823SM   H4S10293   1.872   2.055  16.761 -0.1913 -0.8019  0.6598
   7823SM   C5S10294   1.680   2.143  16.737 -0.0640 -0.3893 -0.4053
   7823SM   H5S10295   1.598   2.202  16.782  0.7432  0.4085  0.0536
   7823SM   C6S10296   1.653   2.110  16.588 -0.6529 -0.1109  0.2936
   7823SM   H6S10297   1.597   2.191  16.536  0.0373  0.8093  0.9479
   7823SM   H6T10298   1.590   2.019  16.588  1.4845 -1.6614  0.2446
   7823SM   C7S10299   1.779   2.091  16.503  0.1686  0.0715 -0.0887
   7823SM   H7S10300   1.828   2.004  16.552 -0.4622  1.5243  3.4205
   7823SM   H7T10301   1.850   2.176  16.503 -0.2146  0.3982 -0.8279
   7823SM   C8S10302   1.758   2.062  16.351  0.7075 -0.1592 -0.2603
   7823SM   H8S10303   1.736   2.159  16.300  0.9364 -0.0083 -0.0750
   7823SM   H8T10304   1.666   2.000  16.343  0.8379 -0.7161  1.9120
   7823SM   C9S10305   1.875   1.993  16.290  0.5806  0.2783 -0.0758
   7823SM   H9S10306   1.901   1.897  16.339  0.7962  2.1039  3.7516
   7823SM   H9T10307   1.967   2.050  16.319  0.5579  0.0881  0.3835
   7823SM  C10S10308   1.864   1.984  16.133 -0.9734 -0.3501 -0.7709
   7823SM  H10S10309   1.855   2.090  16.101  0.5326 -0.4274 -1.5150
   7823SM  H10T10310   1.765   1.938  16.117 -0.4602 -1.1591 -1.7413
   7823SM  C11S10311   1.980   1.909  16.067 -0.1814 -0.0719  0.8103
   7823SM  H11S10312   1.975   1.810  16.117  0.2561 -0.4092  0.2095
   7823SM  H11T10313   2.076   1.956  16.098  0.2051 -0.6325  0.4870
   7823SM  C12S10314   1.969   1.896  15.912 -0.1328 -0.3423  0.2185
   7823SM  H12S10315   1.879   1.842  15.878 -0.6945  1.0967 -0.6703
   7823SM  H12T10316   2.051   1.827  15.884  0.1286 -0.6090  1.5543
   7823SM  C13S10317   1.970   2.032  15.840 -0.2512  0.2924  0.7720
   7823SM  H13S10318   2.052   2.084  15.894  0.9433 -2.2592  1.5881
   7823SM  H13T10319   1.876   2.087  15.858  0.2789  1.5649 -0.1603
   7823SM  C14S10320   1.988   2.021  15.688  0.0355 -0.4011 -0.1435
   7823SM  H14S10321   2.074   1.953  15.672 -0.8194 -1.1128 -2.0599
   7823SM  H14T10322   2.007   2.125  15.655  0.2190 -0.7467 -1.1362
   7823SM  C15S10323   1.864   1.966  15.608 -0.9357 -0.3684  0.8646
   7823SM  H15S10324   1.774   2.031  15.623  0.4534  1.8308  0.1262
   7823SM  H15T10325   1.840   1.864  15.643  1.8083 -0.5329  2.5558
   7823SM  C16S10326   1.907   1.971  15.460 -0.3935 -0.8375  0.7138
   7823SM  H16S10327   2.009   1.927  15.452 -0.4804 -0.9260  0.0488
   7823SM  H16T10328   1.912   2.080  15.438 -1.4631 -1.0000 -0.4242
   7823SM  C17S10329   1.804   1.892  15.371  0.8424  0.1128  0.0897
   7823SM  H17S10330   1.813   1.793  15.420 -0.2262  0.7868  1.7790
   7823SM  H17T10331   1.827   1.902  15.263 -1.1888 -0.5223 -0.4382
   7823SM  C18S10332   1.656   1.942  15.389 -0.2652  0.6162 -0.3635
   7823SM  H18S10333   1.664   2.051  15.373 -1.2673  0.6546 -0.6813
   7823SM  H18T10334   1.627   1.926  15.495 -0.7129  0.5636 -0.4926
   7823SM  H18U10335   1.584   1.883  15.329 -0.4193  0.1248  0.2870
   7823SM   C1F10336   1.728   1.796  17.075  0.5316 -0.2850 -0.1256
   7823SM    OF10337   1.619   1.801  17.134 -0.3474  0.4504  0.1809
   7823SM   C2F10338   1.796   1.668  17.053  0.4395  1.0729 -0.1671
   7823SM   H2F10339   1.797   1.608  17.147 -0.2453  1.1856 -0.0768
   7823SM   H2G10340   1.901   1.691  17.028  0.7252 -1.7215 -2.0179
   7823SM   C3F10341   1.728   1.592  16.936 -0.0272 -0.8990 -0.1591
   7823SM   H3F10342   1.620   1.574  16.958 -0.0009 -3.8715 -1.9169
   7823SM   H3G10343   1.787   1.498  16.939 -0.5564 -1.2155  1.0939
   7823SM   C4F10344   1.734   1.664  16.795  0.0007  1.2954 -0.1847
   7823SM   H4F10345   1.837   1.695  16.768  0.2515  1.5753  1.0519
   7823SM   H4G10346   1.678   1.761  16.797  1.5289  2.2091  2.0853
   7823SM   C5F10347   1.682   1.584  16.671 -0.6604 -0.4405 -0.1480
   7823SM   H5F10348   1.577   1.556  16.694 -0.2667 -0.4440  1.8948
   7823SM   H5G10349   1.732   1.484  16.672 -0.3221 -0.3017 -1.6518
   7823SM   C6F10350   1.699   1.659  16.536 -0.1474  0.7066 -0.4200
   7823SM   H6F10351   1.800   1.705  16.535  0.3838 -0.3803  1.1654
   7823SM   H6G10352   1.629   1.745  16.542 -1.0019  0.0570 -0.7857
   7823SM   C7F10353   1.676   1.576  16.402 -0.4293  0.1209 -0.3638
   7823SM   H7F10354   1.584   1.515  16.411 -0.5647  0.5725  1.9391
   7823SM   H7G10355   1.762   1.506  16.392  0.0380  0.6508 -0.1430
   7823SM   C8F10356   1.672   1.661  16.276  0.8512  0.3957  0.3050
   7823SM   H8F10357   1.771   1.706  16.256  1.4827 -1.2187 -0.4112
   7823SM   H8G10358   1.609   1.752  16.285  0.4221  0.3678 -1.9136
   7823SM   C9F10359   1.621   1.582  16.158 -0.5311  0.3673  0.1230
   7823SM   H9F10360   1.510   1.568  16.160 -0.9686  3.2892  0.4097
   7823SM   H9G10361   1.673   1.485  16.149 -1.1748  0.0487 -0.2408
   7823SM  C10F10362   1.639   1.665  16.026 -0.3817 -0.0229 -0.5425
   7823SM  H10F10363   1.722   1.736  16.046 -0.6225 -0.3907  2.2242
   7823SM  H10G10364   1.547   1.726  16.016 -0.3455  0.0254 -0.5824
   7823SM  C11F10365   1.651   1.567  15.906 -0.0996 -0.2550  0.3291
   7823SM  H11F10366   1.572   1.491  15.919 -0.2899 -0.3758 -1.3066
   7823SM  H11G10367   1.748   1.513  15.909  0.6059  0.6105 -2.7315
   7823SM  C12F10368   1.624   1.642  15.774 -0.3809  0.3477  0.7123
   7823SM  H12F10369   1.700   1.721  15.758 -1.4345  1.1670 -0.4898
   7823SM  H12G10370   1.529   1.700  15.781 -0.0195  1.0294  0.0395
   7823SM  C13F10371   1.613   1.550  15.654 -0.3690  0.7520 -0.1196
   7823SM  H13F10372   1.560   1.457  15.685 -0.1128  0.7701  0.3850
   7823SM  H13G10373   1.710   1.512  15.617 -1.3270 -2.9661  0.7404
   7823SM  C14F10374   1.551   1.604  15.527  0.0789  0.4255  0.0752
   7823SM  H14F10375   1.608   1.693  15.491  0.1969  0.0446 -0.6862
   7823SM  H14G10376   1.453   1.646  15.558  0.2200  0.3913  0.5761
   7823SM  C15F10377   1.549   1.499  15.410 -0.0247  0.7194 -0.1547
   7823SM  H15F10378   1.456   1.525  15.356 -0.2725 -0.6421 -0.4221
   7823SM  H15G10379   1.514   1.404  15.456  0.7504  0.4938 -0.0202
   7823SM  C16F10380   1.677   1.474  15.325 -0.5849 -0.0503  0.1707
   7823SM  H16F10381   1.742   1.398  15.372 -1.2515 -0.9838 -0.3860
   7823SM  H16G10382   1.733   1.570  15.314  1.4055 -1.2846 -1.2344
   7823SM  C17F10383   1.643   1.417  15.189  0.5154 -0.5866 -0.0441
   7823SM  H17F10384   1.572   1.331  15.185  0.6026 -0.6247 -1.2108
   7823SM  H17G10385   1.730   1.366  15.143  1.7439  1.8906 -0.6334
   7823SM  C18F10386   1.581   1.514  15.087  0.0373 -0.3626  0.4317
   7823SM  H18F10387   1.637   1.515  14.991 -0.4133 -0.3305  0.1645
   7823SM  H18G10388   1.583   1.614  15.134 -3.3395 -1.0209  2.3384
   7823SM  C19F10389   1.435   1.489  15.053 -0.5606 -0.0664  1.1896
   7823SM  H19F10390   1.376   1.548  15.127 -0.3199  1.0183  0.5366
   7823SM  H19G10391   1.421   1.381  15.074 -0.7168 -0.1873  0.4801
   7823SM  C20F10392   1.395   1.538  14.914 -0.9804  0.5730  0.4519
   7823SM  H20F10393   1.442   1.480  14.832 -0.3924  0.1318  1.0915
   7823SM  H20G10394   1.431   1.643  14.912  1.8170 -0.3165 -1.3592
   7823SM  C21F10395   1.245   1.531  14.884  0.5391  0.0660 -0.2823
   7823SM  H21F10396   1.227   1.615  14.813  0.0217 -0.9162 -1.3313
   7823SM  H21G10397   1.186   1.552  14.976 -0.9689 -0.7442 -1.0447
   7823SM  C22F10398   1.203   1.394  14.825  0.0148 -0.0372  0.5671
   7823SM  H22F10399   1.276   1.324  14.871  0.6908  1.7221  2.2994
   7823SM  H22G10400   1.212   1.387  14.714  3.1367 -1.6222  0.8037
   7823SM  C23F10401   1.064   1.347  14.872  0.2739  0.3707  0.6087
   7823SM  H23F10402   0.995   1.407  14.809  1.8511  2.1043  0.4412
   7823SM  H23G10403   1.047   1.382  14.976  1.7270  0.5261  0.8161
   7823SM  H23H10404   1.050   1.237  14.877 -0.1824  0.4566  1.2649
   7923SM     N10405   4.925   0.598  17.690 -0.3328  0.0781  0.4848
   7923SM   C1510406   4.856   0.508  17.591 -0.9022  0.5189  0.2638
   7923SM  H15A10407   4.823   0.566  17.506 -1.3276  0.1533  0.1746
   7923SM  H15B10408   4.776   0.452  17.638 -0.4563 -0.3220  0.0515
   7923SM  H15C10409   4.924   0.442  17.539 -1.1657 -0.0413  0.6145
   7923SM   C1410410   4.829   0.664  17.782 -0.1066 -0.2600 -0.0510
   7923SM  H14A10411   4.737   0.700  17.737 -0.5421  1.0300  1.7321
   7923SM  H14B10412   4.875   0.743  17.839 -0.0583  0.2783 -0.8268
   7923SM  H14C10413   4.781   0.601  17.856  0.5216 -0.6753  0.0088
   7923SM   C1310414   5.009   0.518  17.775  0.2529 -0.3146 -0.1436
   7923SM  H13A10415   5.085   0.465  17.719  1.0786  0.5455  0.1284
   7923SM  H13B10416   4.958   0.444  17.834  1.5726 -0.9125  0.3023
   7923SM  H13C10417   5.058   0.571  17.855  0.9643 -1.5877  0.3000
   7923SM   C1210418   5.002   0.703  17.609  0.0080  0.4822 -0.0255
   7923SM  H12A10419   4.936   0.755  17.542 -1.9837  0.1716  1.6012
   7923SM  H12B10420   5.073   0.645  17.551 -0.3591 -0.9876  0.9298
   7923SM   C1110421   5.075   0.816  17.681 -0.0804 -0.6998 -0.3686
   7923SM  H11A10422   5.013   0.886  17.741  1.8174  0.6250  0.1716
   7923SM  H11B10423   5.130   0.874  17.604  0.4293 -1.2421 -0.4153
   7923SM     P10424   5.334   0.797  17.764  0.1019 -0.3595  0.1315
   7923SM   O1310425   5.351   0.938  17.799 -0.1080 -0.1295 -0.4650
   7923SM   O1410426   5.413   0.700  17.835  0.1833  0.1564 -0.5772
   7923SM   O1110427   5.368   0.801  17.610 -0.2471 -0.5218 -0.1138
   7923SM   O1210428   5.179   0.772  17.770 -0.0329  0.1950 -0.3264
   7923SM   C1S10429   5.345   0.673  17.553 -0.2582  0.3112 -0.1538
   7923SM   H1S10430   5.249   0.622  17.575 -0.2482  0.5068  0.3531
   7923SM   H1T10431   5.420   0.599  17.590  0.4655  0.2105 -1.6983
   7923SM    NF10432   5.341   0.543  17.349  0.2949 -0.4073 -0.3950
   7923SM   HNF10433   5.420   0.493  17.315 -0.2306 -2.0520  0.6778
   7923SM   C2S10434   5.360   0.675  17.399 -0.2714 -0.0588 -0.0489
   7923SM   H2S10435   5.281   0.735  17.350  0.6574  1.1114 -0.1506
   7923SM   C3S10436   5.504   0.737  17.370  0.0970  0.8677 -0.5723
   7923SM   H3S10437   5.571   0.655  17.405  0.9187  0.6454 -2.5332
   7923SM    O310438   5.549   0.858  17.434  0.0916  0.2044 -0.5687
   7923SM   HO310439   5.488   0.857  17.508 -0.0887 -1.2729 -0.6896
   7923SM   C4S10440   5.525   0.731  17.222 -0.3821 -0.4455 -0.7824
   7923SM   H4S10441   5.563   0.635  17.185 -0.7382 -1.6190  1.6718
   7923SM   C5S10442   5.497   0.833  17.140  0.3559 -0.1928 -0.2948
   7923SM   H5S10443   5.478   0.934  17.179 -2.1847 -1.1581  1.2023
   7923SM   C6S10444   5.523   0.828  16.987 -0.4680  0.2412  0.2958
   7923SM   H6S10445   5.629   0.832  16.955 -0.9921 -1.1177 -1.7612
   7923SM   H6T10446   5.463   0.904  16.932  0.6679 -0.1821 -1.5832
   7923SM   C7S10447   5.478   0.696  16.919 -0.5291 -0.1723 -0.1770
   7923SM   H7S10448   5.372   0.670  16.941 -0.4354  0.9369  1.8808
   7923SM   H7T10449   5.550   0.618  16.952  0.0426 -0.0209 -1.0573
   7923SM   C8S10450   5.491   0.722  16.772  0.0174  0.3722  0.0634
   7923SM   H8S10451   5.598   0.745  16.754  0.1007 -0.4925 -0.6091
   7923SM   H8T10452   5.424   0.803  16.737 -0.3344 -0.0372 -0.2263
   7923SM   C9S10453   5.456   0.605  16.685 -0.2154 -0.1596 -0.1898
   7923SM   H9S10454   5.360   0.555  16.711 -0.6847  0.4079 -0.7722
   7923SM   H9T10455   5.543   0.538  16.702  1.3192  2.4105  3.2635
   7923SM  C10S10456   5.456   0.651  16.534  0.0217 -0.0423 -0.8552
   7923SM  H10S10457   5.558   0.681  16.504 -0.6966  2.3655 -1.0423
   7923SM  H10T10458   5.399   0.746  16.524  0.6829  0.8080  2.2742
   7923SM  C11S10459   5.402   0.539  16.440  0.3807  0.1340 -0.5420
   7923SM  H11S10460   5.291   0.535  16.449  0.3733 -0.7703 -0.9350
   7923SM  H11T10461   5.446   0.448  16.486  1.0280 -0.5613 -2.4647
   7923SM  C12S10462   5.455   0.532  16.304  0.6945  0.1698  0.0649
   7923SM  H12S10463   5.423   0.436  16.258 -2.4998  1.7143 -1.2629
   7923SM  H12T10464   5.566   0.533  16.313  0.7489  1.1700 -0.5537
   7923SM  C13S10465   5.403   0.642  16.212  0.2388 -0.0647 -0.1885
   7923SM  H13S10466   5.415   0.745  16.254  2.7413 -0.3053 -0.1425
   7923SM  H13T10467   5.293   0.630  16.205 -0.3396  2.9809  1.5639
   7923SM  C14S10468   5.464   0.638  16.076  0.3479  0.4688  0.0952
   7923SM  H14S10469   5.461   0.536  16.032  1.2752  0.2910  0.4262
   7923SM  H14T10470   5.570   0.669  16.072  0.4341  0.2202  0.4328
   7923SM  C15S10471   5.392   0.739  15.977  0.5419  0.4596 -0.7651
   7923SM  H15S10472   5.381   0.842  16.018 -3.7136 -0.8222  1.8796
   7923SM  H15T10473   5.286   0.707  15.981  0.9178 -0.7087  2.0870
   7923SM  C16S10474   5.450   0.728  15.838 -0.4555  0.5212 -0.0865
   7923SM  H16S10475   5.455   0.622  15.803  1.4774 -0.3624  2.5734
   7923SM  H16T10476   5.552   0.771  15.838 -0.7522  1.2358  0.1387
   7923SM  C17S10477   5.369   0.807  15.738 -0.0708  1.1863 -0.0279
   7923SM  H17S10478   5.444   0.834  15.661  0.2794 -1.0239 -0.5300
   7923SM  H17T10479   5.318   0.893  15.787 -1.7757  1.1077 -1.5529
   7923SM  C18S10480   5.262   0.733  15.655  0.0327 -0.3259 -0.4990
   7923SM  H18S10481   5.186   0.797  15.605  0.7753  0.5795 -0.4795
   7923SM  H18T10482   5.203   0.665  15.720 -1.0035  1.4912  0.5527
   7923SM  H18U10483   5.294   0.657  15.580  0.9953 -0.2637 -0.1585
   7923SM   C1F10484   5.221   0.478  17.354 -0.6477  0.4510  0.0186
   7923SM    OF10485   5.125   0.542  17.379 -0.1353 -0.0427  0.4914
   7923SM   C2F10486   5.224   0.331  17.332 -0.4503 -0.1737 -0.2691
   7923SM   H2F10487   5.246   0.283  17.430 -2.8005  0.4133  0.6169
   7923SM   H2G10488   5.306   0.308  17.261  0.3343 -0.1141  0.6071
   7923SM   C3F10489   5.097   0.269  17.280  0.0813  0.1901  0.9123
   7923SM   H3F10490   5.015   0.300  17.348 -1.3060 -2.7920  0.7320
   7923SM   H3G10491   5.103   0.160  17.297 -1.3925 -0.0623  0.0473
   7923SM   C4F10492   5.067   0.307  17.135  0.6989 -0.3997 -0.6441
   7923SM   H4F10493   5.113   0.402  17.102 -0.2466 -0.0531 -0.9857
   7923SM   H4G10494   4.962   0.343  17.137  1.2809  1.3781  0.0608
   7923SM   C5F10495   5.060   0.186  17.040 -0.8477 -0.0077 -0.0656
   7923SM   H5F10496   5.002   0.105  17.089  0.9329 -0.8547  0.7323
   7923SM   H5G10497   5.162   0.145  17.022 -1.2987 -2.2939  2.0103
   7923SM   C6F10498   4.987   0.221  16.911 -0.9608 -0.2576 -0.6179
   7923SM   H6F10499   5.043   0.304  16.863  2.4582 -0.6872  2.1276
   7923SM   H6G10500   4.889   0.259  16.947 -0.4206  0.1466  0.4744
   7923SM   C7F10501   4.973   0.105  16.818 -0.0789 -0.3693 -0.2465
   7923SM   H7F10502   4.947   0.004  16.855  1.3104 -0.9061 -0.6711
   7923SM   H7G10503   5.071   0.090  16.767  0.2109 -0.3477  0.2971
   7923SM   C8F10504   4.876   0.129  16.708 -0.0912 -0.4594  0.3525
   7923SM   H8F10505   4.779   0.165  16.748 -0.1416  0.1426 -0.2811
   7923SM   H8G10506   4.860   0.031  16.658 -0.1921  0.0552 -0.6651
   7923SM   C9F10507   4.937   0.219  16.599 -0.2659 -0.0574 -0.0753
   7923SM   H9F10508   5.037   0.174  16.586  0.5060  1.2932  0.9626
   7923SM   H9G10509   4.954   0.321  16.640 -0.8261  0.0571 -0.1184
   7923SM  C10F10510   4.861   0.211  16.461 -0.3589 -1.1099 -0.4673
   7923SM  H10F10511   4.777   0.284  16.462 -1.2740 -2.1084 -0.8410
   7923SM  H10G10512   4.812   0.111  16.447  1.3973 -2.0255 -0.3285
   7923SM  C11F10513   4.951   0.258  16.340 -0.2523  0.0045  0.1970
   7923SM  H11F10514   5.009   0.170  16.306 -1.9625 -1.4198  0.8090
   7923SM  H11G10515   5.021   0.340  16.369  0.5118 -0.3166 -0.6974
   7923SM  C12F10516   4.871   0.319  16.227 -0.2883  0.6118  0.3828
   7923SM  H12F10517   4.819   0.414  16.253 -2.0163  0.8743 -3.3405
   7923SM  H12G10518   4.797   0.243  16.196  0.2211 -0.6921  2.2271
   7923SM  C13F10519   4.958   0.351  16.104 -0.4070  0.0118  0.7005
   7923SM  H13F10520   5.018   0.263  16.070 -1.3046 -0.6797  0.8804
   7923SM  H13G10521   5.018   0.439  16.136 -1.1450  1.0291 -0.5968
   7923SM  C14F10522   4.880   0.394  15.976  0.2840 -0.1795  0.0107
   7923SM  H14F10523   4.809   0.478  15.992  0.5003 -0.0090  0.0886
   7923SM  H14G10524   4.815   0.306  15.957  1.2127 -0.4861 -1.9412
   7923SM  C15F10525   4.975   0.407  15.854 -0.3664 -0.5125 -0.6216
   7923SM  H15F10526   5.005   0.304  15.825  0.1735 -0.3083 -0.7964
   7923SM  H15G10527   5.061   0.467  15.891 -3.0051  3.4400 -0.2652
   7923SM  C16F10528   4.919   0.484  15.740 -0.5621  0.1981 -0.0147
   7923SM  H16F10529   5.010   0.520  15.687 -0.3319 -2.3537 -1.5019
   7923SM  H16G10530   4.869   0.580  15.764 -0.7859  0.5873 -1.9131
   7923SM  C17F10531   4.830   0.395  15.645  0.1897  0.0868 -0.1984
   7923SM  H17F10532   4.738   0.363  15.698  1.5861 -0.4924  2.0108
   7923SM  H17G10533   4.890   0.309  15.610  0.2256 -0.7564  1.7773
   7923SM  C18F10534   4.789   0.475  15.520 -0.7911  0.4998 -0.2373
   7923SM  H18F10535   4.876   0.502  15.457 -0.5465  0.1457 -0.0543
   7923SM  H18G10536   4.738   0.569  15.552 -1.6288 -0.3163  0.9059
   7923SM  C19F10537   4.688   0.396  15.432  0.0084 -0.2381 -0.0141
   7923SM  H19F10538   4.616   0.351  15.504  1.2244  1.5591  2.4918
   7923SM  H19G10539   4.741   0.312  15.383  0.9170 -1.4873  2.8985
   7923SM  C20F10540   4.608   0.479  15.327 -0.1508  0.4265 -0.2422
   7923SM  H20F10541   4.541   0.548  15.383  1.0851  0.6460  1.0140
   7923SM  H20G10542   4.537   0.413  15.273 -0.8219 -0.1521  1.2798
   7923SM  C21F10543   4.700   0.548  15.229 -0.1467  0.0579 -0.3255
   7923SM  H21F10544   4.765   0.477  15.172  0.1163 -0.8823  1.0839
   7923SM  H21G10545   4.759   0.609  15.300  0.6010  0.5021 -1.3113
   7923SM  C22F10546   4.622   0.645  15.137  0.0457  0.4042  0.3401
   7923SM  H22F10547   4.567   0.711  15.208 -0.8235 -1.4748  1.5030
   7923SM  H22G10548   4.544   0.589  15.081  0.3784 -2.3300  2.4177
   7923SM  C23F10549   4.706   0.734  15.041  0.7571 -0.2219  0.0859
   7923SM  H23F10550   4.781   0.795  15.095  0.9510 -0.9033  0.6047
   7923SM  H23G10551   4.634   0.792  14.981  0.0164 -2.8960 -1.8054
   7923SM  H23H10552   4.756   0.662  14.973  0.9754  0.6189 -0.6664
   8023SM     N10553   0.927   1.672  17.758  0.5451  0.2814  1.0610
   8023SM   C1510554   0.786   1.621  17.775 -0.1789 -0.8815  0.4957
   8023SM  H15A10555   0.727   1.708  17.800  1.0021  0.5589 -1.4690
   8023SM  H15B10556   0.774   1.549  17.854 -1.0652  0.4700  1.6507
   8023SM  H15C10557   0.745   1.585  17.682 -1.3399  1.3642  0.0564
   8023SM   C1410558   0.968   1.731  17.885 -0.1328  1.1367 -0.2114
   8023SM  H14A10559   0.983   1.656  17.962 -0.0530 -0.1711 -1.4655
   8023SM  H14B10560   0.890   1.797  17.918 -0.4853  0.8818 -0.5353
   8023SM  H14C10561   1.055   1.796  17.881  1.3934 -0.4356  3.1938
   8023SM   C1310562   1.011   1.553  17.716  0.4738  0.5232  0.0936
   8023SM  H13A10563   1.115   1.583  17.724  0.1601  1.5555  0.4653
   8023SM  H13B10564   0.996   1.523  17.614 -0.4630 -1.6616  0.8080
   8023SM  H13C10565   0.982   1.465  17.771 -0.6864 -0.2398 -1.6792
   8023SM   C1210566   0.923   1.778  17.645 -0.6140  0.7989  0.4062
   8023SM  H12A10567   1.023   1.817  17.642 -0.5628  0.6141 -0.5110
   8023SM  H12B10568   0.854   1.856  17.673  1.4073  3.1677 -0.8242
   8023SM   C1110569   0.876   1.734  17.500 -0.4978  0.9052 -0.0873
   8023SM  H11A10570   0.937   1.643  17.481 -0.2407  1.1335 -0.3673
   8023SM  H11B10571   0.898   1.816  17.428  0.2085 -0.3944 -1.3929
   8023SM     P10572   0.624   1.815  17.520 -0.3207 -0.7799 -0.0568
   8023SM   O1310573   0.514   1.745  17.591  0.3120 -0.5892  0.5395
   8023SM   O1410574   0.691   1.930  17.587 -0.5473  0.3181  0.4524
   8023SM   O1110575   0.565   1.866  17.380  0.3351  0.9193  0.4161
   8023SM   O1210576   0.734   1.708  17.497 -0.0263 -0.0375 -0.0976
   8023SM   C1S10577   0.529   1.767  17.281  0.2370  0.3245  0.5571
   8023SM   H1S10578   0.422   1.747  17.303 -1.0393  2.7515 -2.7981
   8023SM   H1T10579   0.591   1.675  17.282  0.8872  0.7480 -0.4151
   8023SM    NF10580   0.482   1.718  17.042 -0.5984 -0.2682  0.3831
   8023SM   HNF10581   0.557   1.664  17.003  1.5282  1.7860  1.3666
   8023SM   C2S10582   0.541   1.815  17.134  0.5842  0.4420 -0.4018
   8023SM   H2S10583   0.490   1.913  17.130  1.4087  0.8819 -0.4938
   8023SM   C3S10584   0.690   1.844  17.104 -0.1545 -0.0463 -0.4538
   8023SM   H3S10585   0.758   1.764  17.139  0.6418  1.4962  1.8444
   8023SM    O310586   0.746   1.943  17.191 -0.2957 -0.1070 -0.0158
   8023SM   HO310587   0.677   1.946  17.258  0.0571  0.8185  0.3136
   8023SM   C4S10588   0.722   1.877  16.955 -0.3472  0.0316  0.2349
   8023SM   H4S10589   0.750   1.790  16.894  2.0445 -0.5778  2.0334
   8023SM   C5S10590   0.733   1.994  16.891 -0.1324 -0.0100 -0.7780
   8023SM   H5S10591   0.709   2.088  16.943 -1.5260  0.4960 -2.2657
   8023SM   C6S10592   0.771   2.009  16.748  0.4076 -0.3980 -0.3881
   8023SM   H6S10593   0.867   1.958  16.725 -0.2558 -1.4378 -0.9381
   8023SM   H6T10594   0.800   2.114  16.730  2.7984 -0.8510  0.4815
   8023SM   C7S10595   0.666   1.956  16.648  0.8398  0.5301 -0.5389
   8023SM   H7S10596   0.564   1.997  16.659  0.6965 -0.2017  1.2252
   8023SM   H7T10597   0.655   1.846  16.663  0.1005  0.8498  1.6952
   8023SM   C8S10598   0.720   1.984  16.504 -0.1394 -0.5504 -0.0784
   8023SM   H8S10599   0.817   1.933  16.488  0.4035 -0.1049  1.5697
   8023SM   H8T10600   0.738   2.093  16.495  0.6553 -0.5829  0.8831
   8023SM   C9S10601   0.617   1.936  16.403  0.0201  0.2420  0.0410
   8023SM   H9S10602   0.515   1.952  16.443  0.1021 -0.9557  0.7699
   8023SM   H9T10603   0.628   1.826  16.390 -0.2337  0.4804 -2.8770
   8023SM  C10S10604   0.635   1.992  16.258  0.7486  0.1578  0.1520
   8023SM  H10S10605   0.743   2.010  16.239  0.8092  1.6575  1.7383
   8023SM  H10T10606   0.594   2.095  16.264  0.4638  0.3025 -2.8058
   8023SM  C11S10607   0.566   1.907  16.156 -0.3914  0.1764 -0.3231
   8023SM  H11S10608   0.457   1.907  16.176 -0.1534  0.0189  1.0518
   8023SM  H11T10609   0.605   1.805  16.178 -0.4676  0.4499  1.1654
   8023SM  C12S10610   0.592   1.946  16.010  0.4961  0.1411  0.4570
   8023SM  H12S10611   0.571   2.054  15.994  2.5434  0.2245 -2.5277
   8023SM  H12T10612   0.521   1.886  15.949  0.0382 -0.7359  1.8119
   8023SM  C13S10613   0.736   1.916  15.963  0.4274  0.1387  0.1784
   8023SM  H13S10614   0.766   1.810  15.951  1.4163 -0.0358  3.2186
   8023SM  H13T10615   0.810   1.972  16.025 -0.4068  0.4797  0.8884
   8023SM  C14S10616   0.758   1.982  15.828  0.3389  0.7605 -0.4506
   8023SM  H14S10617   0.773   2.090  15.850  2.1225  0.2917  0.8930
   8023SM  H14T10618   0.672   1.971  15.758  0.6570  0.6542 -0.8244
   8023SM  C15S10619   0.883   1.927  15.757  0.6856  0.0167 -0.8473
   8023SM  H15S10620   0.855   1.828  15.715 -2.1822  0.1669  0.4802
   8023SM  H15T10621   0.962   1.909  15.833 -1.2516 -2.6485  0.6829
   8023SM  C16S10622   0.931   2.013  15.646 -0.0573 -0.5603 -0.6167
   8023SM  H16S10623   0.926   2.118  15.680  1.0457  0.0964 -2.3587
   8023SM  H16T10624   0.878   2.011  15.548  0.1944  2.6102 -0.9129
   8023SM  C17S10625   1.075   1.977  15.601 -0.4319  0.0752  0.1910
   8023SM  H17S10626   1.089   1.869  15.577 -0.0127  0.2690 -0.4514
   8023SM  H17T10627   1.141   1.980  15.691  1.3199 -2.8547 -0.8448
   8023SM  C18S10628   1.137   2.058  15.479 -0.0399 -0.0761 -0.2083
   8023SM  H18S10629   1.081   2.046  15.384 -0.8978  0.1347  0.2562
   8023SM  H18T10630   1.247   2.050  15.465  0.4282  2.4421  1.3120
   8023SM  H18U10631   1.122   2.165  15.505 -0.3058 -0.0338 -0.5265
   8023SM   C1F10632   0.357   1.693  17.008  0.0241  0.0192  0.3770
   8023SM    OF10633   0.263   1.753  17.059  0.4707 -0.0131 -0.3135
   8023SM   C2F10634   0.337   1.569  16.932  0.1516 -0.5472 -0.3986
   8023SM   H2F10635   0.291   1.499  17.005 -1.2064  0.3318 -0.3637
   8023SM   H2G10636   0.428   1.521  16.891  0.2302 -0.5055 -0.2726
   8023SM   C3F10637   0.252   1.599  16.807  0.0320 -0.9551  0.0270
   8023SM   H3F10638   0.176   1.678  16.823  0.1827 -0.5938 -0.9771
   8023SM   H3G10639   0.192   1.508  16.789 -0.7247 -0.2169 -1.2834
   8023SM   C4F10640   0.337   1.624  16.683  0.0812  0.6680 -0.1194
   8023SM   H4F10641   0.383   1.528  16.652 -3.0509 -0.5816 -1.2679
   8023SM   H4G10642   0.416   1.700  16.702 -0.2144  0.7578  0.8132
   8023SM   C5F10643   0.258   1.652  16.561  0.1291  0.7239 -0.3685
   8023SM   H5F10644   0.200   1.746  16.567  1.2956  1.3731  1.7088
   8023SM   H5G10645   0.171   1.583  16.564  0.5140  0.2480 -0.0589
   8023SM   C6F10646   0.316   1.634  16.424  0.4961 -0.6176 -0.1156
   8023SM   H6F10647   0.334   1.526  16.410  0.8004 -0.2958 -2.6865
   8023SM   H6G10648   0.416   1.683  16.437 -0.9279  2.5006  0.1201
   8023SM   C7F10649   0.228   1.694  16.320  0.2841  0.9635  0.2069
   8023SM   H7F10650   0.219   1.805  16.319  0.1278  0.9504 -0.0585
   8023SM   H7G10651   0.129   1.644  16.322  1.3948 -1.3691 -0.1803
   8023SM   C8F10652   0.286   1.675  16.182 -0.3306  0.5345 -0.2966
   8023SM   H8F10653   0.296   1.566  16.163 -3.0597  0.3913 -1.2443
   8023SM   H8G10654   0.393   1.703  16.167  0.1143 -1.5595 -1.3000
   8023SM   C9F10655   0.203   1.748  16.072 -0.3651 -0.4234 -0.3390
   8023SM   H9F10656   0.221   1.857  16.082  3.4505 -0.8761 -0.7308
   8023SM   H9G10657   0.095   1.728  16.091 -0.3026 -1.3296 -0.8861
   8023SM  C10F10658   0.238   1.700  15.931  0.1389  0.4965 -0.2610
   8023SM  H10F10659   0.216   1.592  15.922 -0.0359  0.5007  0.1212
   8023SM  H10G10660   0.348   1.709  15.911  0.0110  0.0324 -1.2615
   8023SM  C11F10661   0.157   1.771  15.823 -0.4547  0.4575  0.1577
   8023SM  H11F10662   0.175   1.880  15.827 -0.1628  0.4030  0.3655
   8023SM  H11G10663   0.047   1.766  15.835 -0.4029 -0.4951  0.2982
   8023SM  C12F10664   0.190   1.730  15.676  0.5453 -0.4045 -0.6098
   8023SM  H12F10665   0.121   1.785  15.608  1.0767  0.3465 -0.5544
   8023SM  H12G10666   0.171   1.622  15.657 -1.6533  0.2130 -2.3138
   8023SM  C13F10667   0.339   1.776  15.645  0.5946 -0.4648  0.3667
   8023SM  H13F10668   0.404   1.748  15.730 -2.0927 -0.3014  2.6012
   8023SM  H13G10669   0.335   1.887  15.653  0.3282 -0.4458 -0.0056
   8023SM  C14F10670   0.398   1.734  15.502 -0.0021 -0.2578  0.5142
   8023SM  H14F10671   0.327   1.765  15.422  0.5949  1.5402  0.6415
   8023SM  H14G10672   0.413   1.624  15.496  0.5819 -0.2144  1.1583
   8023SM  C15F10673   0.534   1.819  15.485  0.4835  0.4336 -0.7754
   8023SM  H15F10674   0.614   1.759  15.532 -0.6523 -0.8188 -0.3846
   8023SM  H15G10675   0.530   1.916  15.539  1.5075  0.9840 -1.6528
   8023SM  C16F10676   0.570   1.849  15.344 -0.1961 -0.6862  0.3668
   8023SM  H16F10677   0.492   1.917  15.304  0.7860  0.4800  0.3696
   8023SM  H16G10678   0.573   1.766  15.270  0.5352 -1.1143  0.8645
   8023SM  C17F10679   0.710   1.909  15.332  0.2957 -0.9314 -0.2577
   8023SM  H17F10680   0.779   1.823  15.349  2.5261  0.7428 -0.4648
   8023SM  H17G10681   0.717   1.987  15.411 -0.8557  0.1859 -1.2286
   8023SM  C18F10682   0.742   1.958  15.188  0.5727  0.1374  0.4073
   8023SM  H18F10683   0.664   2.026  15.150 -0.1764 -2.0592 -2.3160
   8023SM  H18G10684   0.746   1.866  15.126  0.2790  0.4485 -0.0739
   8023SM  C19F10685   0.879   2.029  15.173 -0.6544  0.5037  0.2481
   8023SM  H19F10686   0.895   2.045  15.064 -0.9407  3.3483  0.5300
   8023SM  H19G10687   0.962   1.971  15.217 -0.1558  1.6180  0.8126
   8023SM  C20F10688   0.891   2.158  15.247  0.0701 -0.2942 -0.2217
   8023SM  H20F10689   0.899   2.135  15.355 -1.4567 -0.8420 -0.1988
   8023SM  H20G10690   0.802   2.222  15.229  1.1507  1.4802  0.3776
   8023SM  C21F10691   1.010   2.245  15.205 -0.2233  0.1617 -0.1412
   8023SM  H21F10692   0.993   2.276  15.100 -2.0372  0.3092  0.1686
   8023SM  H21G10693   1.090   2.168  15.200 -0.7544 -0.3144 -1.7440
   8023SM  C22F10694   1.041   2.367  15.295  0.8613 -0.5079  0.1864
   8023SM  H22F10695   1.147   2.396  15.285  0.2607  1.8781  0.2010
   8023SM  H22G10696   1.040   2.350  15.405  0.0838  2.6231  0.7472
   8023SM  C23F10697   0.957   2.494  15.265 -0.5136  0.1339  0.2222
   8023SM  H23F10698   0.978   2.513  15.157  0.8924  1.9223  0.7624
   8023SM  H23G10699   1.011   2.577  15.316  1.4468 -0.2506 -1.1314
   8023SM  H23H10700   0.851   2.474  15.291 -0.1002 -1.9336  0.5053
   8123SM     N10701   2.276   4.577  12.229 -0.8591  0.2061 -0.0847
   8123SM   C1510702   2.419   4.595  12.200 -0.7032 -0.2093  0.0490
   8123SM  H15A10703   2.480   4.509  12.176  0.2591  0.7245 -0.9316
   8123SM  H15B10704   2.456   4.642  12.290  0.5656 -1.6314  0.2989
   8123SM  H15C10705   2.432   4.659  12.114 -4.3441  1.0097  0.2064
   8123SM   C1410706   2.215   4.708  12.254  0.5832 -0.2224 -0.4700
   8123SM  H14A10707   2.109   4.700  12.274  1.0273 -0.0923  2.4325
   8123SM  H14B10708   2.220   4.780  12.174  0.0395 -0.4362 -0.7005
   8123SM  H14C10709   2.258   4.749  12.345 -2.6271 -1.3758  1.7556
   8123SM   C1310710   2.211   4.503  12.116 -0.3741  0.7983 -0.6131
   8123SM  H13A10711   2.108   4.480  12.142  0.0023 -2.7886 -1.8005
   8123SM  H13B10712   2.254   4.405  12.104 -0.6718  0.6883 -0.8007
   8123SM  H13C10713   2.213   4.550  12.019 -1.0941 -1.4921 -1.7971
   8123SM   C1210714   2.266   4.488  12.352 -0.0494 -0.8187  0.8085
   8123SM  H12A10715   2.303   4.392  12.321  0.8509 -0.4443  0.6949
   8123SM  H12B10716   2.161   4.473  12.372  0.4970 -1.2130  3.9703
   8123SM   C1110717   2.345   4.521  12.484 -0.1617  0.3300  0.0099
   8123SM  H11A10718   2.453   4.525  12.457 -0.2883  0.2792 -0.5149
   8123SM  H11B10719   2.341   4.433  12.551  1.5008  1.4899  1.7378
   8123SM     P10720   2.166   4.669  12.617  0.0389 -0.5565 -0.2100
   8123SM   O1310721   2.132   4.815  12.602 -0.3246  0.0271  0.3761
   8123SM   O1410722   2.062   4.576  12.570  0.1670  0.5401 -0.0455
   8123SM   O1110723   2.198   4.645  12.765 -0.8963 -0.4267 -0.5890
   8123SM   O1210724   2.304   4.641  12.542  0.3565  0.6172  0.3690
   8123SM   C1S10725   2.254   4.524  12.815 -0.2922 -0.1721 -0.4569
   8123SM   H1S10726   2.364   4.518  12.802 -0.3565 -1.8594 -0.4091
   8123SM   H1T10727   2.225   4.440  12.749  1.1772 -0.8347 -0.3132
   8123SM    NF10728   2.309   4.391  13.016 -0.2607  0.0084  0.3083
   8123SM   HNF10729   2.275   4.299  13.031  0.8864 -0.4986 -0.1213
   8123SM   C2S10730   2.212   4.488  12.957  0.4747  0.7138  0.0236
   8123SM   H2S10731   2.223   4.584  13.012  0.0959  1.8011 -1.7497
   8123SM   C3S10732   2.061   4.451  12.971  0.2842  0.1417 -0.1548
   8123SM   H3S10733   2.041   4.356  12.918  1.2826  0.3406 -0.9248
   8123SM    O310734   1.980   4.554  12.917 -0.1732  0.2421  0.2943
   8123SM   HO310735   2.036   4.591  12.849 -0.9148  1.4931  0.3305
   8123SM   C4S10736   2.018   4.440  13.115  0.3839 -0.5650  0.2052
   8123SM   H4S10737   2.008   4.534  13.172 -0.8566 -0.0936 -0.7399
   8123SM   C5S10738   1.963   4.327  13.166 -1.1687 -1.1962  0.9942
   8123SM   H5S10739   1.964   4.232  13.111  0.9738 -0.7768  0.2106
   8123SM   C6S10740   1.909   4.311  13.300 -0.0582  0.6064  0.8641
   8123SM   H6S10741   1.939   4.207  13.328 -0.1147 -0.0355 -1.3161
   8123SM   H6T10742   1.799   4.318  13.287  0.0521  1.0039  0.1592
   8123SM   C7S10743   1.939   4.415  13.402  0.1556 -0.2820 -0.1347
   8123SM   H7S10744   1.887   4.511  13.378 -0.6156 -0.0625  2.1624
   8123SM   H7T10745   2.044   4.451  13.403 -0.4857  1.7620 -0.1192
   8123SM   C8S10746   1.927   4.366  13.542  0.0053 -0.4115  0.1634
   8123SM   H8S10747   1.986   4.272  13.553 -0.5115 -0.9290 -1.2517
   8123SM   H8T10748   1.819   4.341  13.553 -0.2123  0.7053  0.6976
   8123SM   C9S10749   1.958   4.464  13.658 -0.4680  0.5465 -0.0584
   8123SM   H9S10750   1.910   4.565  13.657  0.1918  0.8826  0.6583
   8123SM   H9T10751   2.069   4.477  13.656 -0.5517  2.8561  3.0266
   8123SM  C10S10752   1.937   4.394  13.788 -0.5003 -0.0514 -0.5858
   8123SM  H10S10753   2.030   4.341  13.816  0.6514  0.4179 -3.2546
   8123SM  H10T10754   1.858   4.316  13.781  0.7541 -1.3474 -0.6322
   8123SM  C11S10755   1.898   4.484  13.901  0.3442 -0.2292  0.4984
   8123SM  H11S10756   1.814   4.546  13.862  0.9582  0.5831  0.4520
   8123SM  H11T10757   1.980   4.558  13.910  0.0264  0.1852 -0.0365
   8123SM  C12S10758   1.864   4.416  14.035  0.4944 -0.2053 -1.0465
   8123SM  H12S10759   1.803   4.323  14.029  1.7866 -1.0310 -1.8634
   8123SM  H12T10760   1.791   4.485  14.083 -1.5306 -1.4040 -2.2496
   8123SM  C13S10761   1.979   4.389  14.129 -0.4538 -0.3217 -0.0209
   8123SM  H13S10762   2.030   4.487  14.142 -0.0653 -0.4870 -0.2870
   8123SM  H13T10763   2.059   4.325  14.086  0.9376  0.8334  0.7565
   8123SM  C14S10764   1.939   4.329  14.262 -0.2589  0.6473 -0.0333
   8123SM  H14S10765   1.901   4.226  14.247  0.3248  0.5467 -0.9285
   8123SM  H14T10766   1.862   4.382  14.321 -2.3527 -0.9372 -1.1823
   8123SM  C15S10767   2.061   4.323  14.360 -0.1055 -0.6098  0.5975
   8123SM  H15S10768   2.094   4.425  14.391 -0.9516 -0.2867  0.4562
   8123SM  H15T10769   2.141   4.268  14.307  0.5742  1.0754 -0.2239
   8123SM  C16S10770   2.022   4.244  14.490  0.0766  0.0649 -0.0690
   8123SM  H16S10771   2.114   4.248  14.552 -0.8452 -3.0297  1.7041
   8123SM  H16T10772   1.997   4.138  14.468  0.4682  0.2368 -1.4179
   8123SM  C17S10773   1.916   4.313  14.572 -0.0259  0.9622 -0.7825
   8123SM  H17S10774   1.822   4.299  14.515 -0.7135  2.7383 -0.1540
   8123SM  H17T10775   1.932   4.423  14.575  0.9289  0.8531  2.9736
   8123SM  C18S10776   1.907   4.287  14.719 -0.3050 -0.2852 -0.6226
   8123SM  H18S10777   2.003   4.303  14.772 -1.4236  1.6334  0.9169
   8123SM  H18T10778   1.873   4.183  14.738  0.1079 -0.2418  0.4140
   8123SM  H18U10779   1.829   4.355  14.758  0.0874 -0.1171 -0.1205
   8123SM   C1F10780   2.443   4.415  13.034  0.5419  0.2280  0.5475
   8123SM    OF10781   2.494   4.520  13.004  0.6556 -0.3488  0.0336
   8123SM   C2F10782   2.513   4.310  13.108  0.0907 -0.1613  0.1418
   8123SM   H2F10783   2.619   4.313  13.075  0.4948 -0.0984  1.4074
   8123SM   H2G10784   2.476   4.208  13.083  1.9590 -0.2288 -2.9402
   8123SM   C3F10785   2.514   4.342  13.261 -0.2626  0.3865 -0.2570
   8123SM   H3F10786   2.409   4.349  13.298 -0.4953  0.8651 -1.0003
   8123SM   H3G10787   2.567   4.435  13.290  0.8165 -0.3410  0.1907
   8123SM   C4F10788   2.589   4.231  13.345  0.1934  0.0730  0.3141
   8123SM   H4F10789   2.563   4.129  13.310  1.3787  0.2270 -1.1130
   8123SM   H4G10790   2.534   4.235  13.441 -1.9906  0.5975 -0.8890
   8123SM   C5F10791   2.737   4.246  13.382 -0.2431  0.0820 -0.9257
   8123SM   H5F10792   2.776   4.347  13.406  2.8409 -0.4182 -3.1317
   8123SM   H5G10793   2.794   4.223  13.289  2.1075  4.6490 -0.8921
   8123SM   C6F10794   2.795   4.145  13.485  0.1676  0.1756  0.2286
   8123SM   H6F10795   2.906   4.155  13.488  0.0360  2.2901 -0.2196
   8123SM   H6G10796   2.773   4.039  13.459 -0.4335  0.1952  0.6557
   8123SM   C7F10797   2.742   4.176  13.622  0.4415  0.8086  0.1099
   8123SM   H7F10798   2.630   4.175  13.624  0.4327  1.6447  0.2757
   8123SM   H7G10799   2.777   4.279  13.642 -0.4415  1.5895 -2.0224
   8123SM   C8F10800   2.796   4.078  13.721 -0.1497  0.2108 -0.2136
   8123SM   H8F10801   2.904   4.058  13.702 -0.3866 -1.7561  0.2912
   8123SM   H8G10802   2.752   3.978  13.703  1.8910 -1.1643  1.9007
   8123SM   C9F10803   2.787   4.123  13.867  0.7229  0.1217  0.7396
   8123SM   H9F10804   2.680   4.138  13.895  0.5958 -0.3074  0.4923
   8123SM   H9G10805   2.845   4.211  13.900  0.0750 -0.1936  2.8732
   8123SM  C10F10806   2.839   4.015  13.958  0.0323  0.6271 -0.1335
   8123SM  H10F10807   2.939   3.985  13.921  0.4705  0.1976  1.3004
   8123SM  H10G10808   2.771   3.932  13.930  1.9296 -0.3617 -2.0362
   8123SM  C11F10809   2.841   4.057  14.103  0.6576 -0.0709 -0.1036
   8123SM  H11F10810   2.736   4.082  14.129 -0.5024 -1.8871 -2.6354
   8123SM  H11G10811   2.904   4.148  14.109  0.0751  0.2475  1.8381
   8123SM  C12F10812   2.885   3.946  14.199  0.0980  0.9131  0.8784
   8123SM  H12F10813   2.981   3.897  14.173 -1.0705 -0.6782 -0.6479
   8123SM  H12G10814   2.807   3.870  14.219  0.3321  0.1773 -0.8008
   8123SM  C13F10815   2.900   4.000  14.340 -0.2056 -0.0241  0.0603
   8123SM  H13F10816   2.803   4.053  14.351 -0.7213 -0.5349 -1.6512
   8123SM  H13G10817   2.977   4.079  14.348 -0.6095  0.2948  0.9248
   8123SM  C14F10818   2.930   3.901  14.454 -0.4696 -0.2930  0.2125
   8123SM  H14F10819   3.027   3.850  14.439 -0.1432  0.2614  0.4304
   8123SM  H14G10820   2.844   3.830  14.450 -0.5108 -0.2127 -0.4825
   8123SM  C15F10821   2.927   3.974  14.594  0.3046  0.1169  0.8164
   8123SM  H15F10822   2.835   4.029  14.620 -0.5165 -0.6871 -0.2841
   8123SM  H15G10823   3.014   4.043  14.587 -1.0275  1.7830  0.0066
   8123SM  C16F10824   2.944   3.875  14.712  0.2440 -0.3793  0.2570
   8123SM  H16F10825   2.892   3.777  14.700 -1.3096  0.4628 -0.1701
   8123SM  H16G10826   2.890   3.923  14.796 -0.6106 -2.0518  0.7037
   8123SM  C17F10827   3.093   3.861  14.751 -0.2318  0.0686  0.2533
   8123SM  H17F10828   3.123   3.959  14.794 -2.8858  1.0280  0.1357
   8123SM  H17G10829   3.155   3.859  14.659  0.2954  3.4957  0.4177
   8123SM  C18F10830   3.120   3.743  14.849 -0.0329  0.4723  0.5543
   8123SM  H18F10831   3.088   3.645  14.807 -0.3901  0.2711  1.2843
   8123SM  H18G10832   3.063   3.760  14.943 -0.3559  0.5306  0.3475
   8123SM  C19F10833   3.274   3.738  14.884 -0.8463 -1.0385  0.5685
   8123SM  H19F10834   3.296   3.843  14.914 -2.4493 -0.7629  0.8734
   8123SM  H19G10835   3.330   3.726  14.789 -0.8798 -0.1939  0.4341
   8123SM  C20F10836   3.320   3.620  14.971  0.3911  0.2571 -0.9200
   8123SM  H20F10837   3.430   3.630  14.979  0.4500  1.7115 -2.8753
   8123SM  H20G10838   3.306   3.520  14.925  0.4548  1.5324 -3.9292
   8123SM  C21F10839   3.249   3.627  15.105  1.1968  0.1370 -0.4594
   8123SM  H21F10840   3.155   3.568  15.111  0.2684  1.7039  2.3972
   8123SM  H21G10841   3.221   3.733  15.124  3.5909  0.6222  0.7090
   8123SM  C22F10842   3.333   3.586  15.222 -0.2216 -0.1163 -0.6281
   8123SM  H22F10843   3.418   3.657  15.236  0.2234 -0.4448 -1.5855
   8123SM  H22G10844   3.378   3.485  15.216  0.1468 -0.0043  0.0889
   8123SM  C23F10845   3.270   3.586  15.365  0.2246  0.0044  0.1672
   8123SM  H23F10846   3.172   3.532  15.363  1.6488 -2.7118 -0.4361
   8123SM  H23G10847   3.241   3.692  15.387 -3.8394 -0.8231 -0.3390
   8123SM  H23H10848   3.335   3.543  15.444 -0.2654 -0.3903  0.3646
   8223SM     N10849   2.499   5.887  12.576 -0.1413  0.2788 -0.3169
   8223SM   C1510850   2.459   5.976  12.468 -0.1401  0.3652  0.8367
   8223SM  H15A10851   2.486   5.942  12.369 -1.3238  2.9395 -0.4586
   8223SM  H15B10852   2.508   6.072  12.468 -0.6974  0.6575  0.2731
   8223SM  H15C10853   2.357   6.003  12.490  0.0100 -0.0001  2.0655
   8223SM   C1410854   2.424   5.759  12.567  0.7890  0.6383  0.1609
   8223SM  H14A10855   2.477   5.690  12.632  1.6051  1.7819  0.7569
   8223SM  H14B10856   2.429   5.714  12.470 -0.1900 -1.5819  1.0705
   8223SM  H14C10857   2.323   5.776  12.602  0.2593 -1.3532 -0.2579
   8223SM   C1310858   2.646   5.854  12.566 -0.0243  0.3881 -0.6531
   8223SM  H13A10859   2.669   5.820  12.466  2.5553 -0.4283  0.1268
   8223SM  H13B10860   2.678   5.787  12.644 -1.7169  0.0433 -0.2185
   8223SM  H13C10861   2.706   5.944  12.566  1.9390 -0.8210  1.1155
   8223SM   C1210862   2.476   5.949  12.712  0.2085 -0.6176 -0.5180
   8223SM  H12A10863   2.534   6.039  12.726  0.8278 -1.0236 -0.4366
   8223SM  H12B10864   2.504   5.876  12.787  2.1085  0.1307 -0.4488
   8223SM   C1110865   2.324   6.000  12.741  0.1853  0.0857  0.1722
   8223SM  H11A10866   2.292   6.062  12.656 -0.1495  1.3814  1.2076
   8223SM  H11B10867   2.327   6.070  12.828 -0.7256 -0.1158  0.3766
   8223SM     P10868   2.252   5.804  12.894 -0.2926  0.1340 -0.7175
   8223SM   O1310869   2.120   5.805  12.966 -0.0240  0.0592 -0.1804
   8223SM   O1410870   2.299   5.670  12.845  0.2832  0.1886 -0.3254
   8223SM   O1110871   2.369   5.876  12.977 -0.3511 -0.0984  0.5314
   8223SM   O1210872   2.229   5.896  12.765 -0.0710  0.0503 -0.2317
   8223SM   C1S10873   2.431   5.805  13.086  0.2996  0.3806  0.9580
   8223SM   H1S10874   2.504   5.731  13.046 -1.0069 -0.0212 -0.7814
   8223SM   H1T10875   2.352   5.757  13.147 -2.0515 -0.4961 -2.5178
   8223SM    NF10876   2.592   5.839  13.279  0.0644  0.1563 -0.3502
   8223SM   HNF10877   2.555   5.844  13.371 -1.1329  0.6391 -0.8371
   8223SM   C2S10878   2.505   5.904  13.177  0.0164 -0.7815 -0.7897
   8223SM   H2S10879   2.578   5.966  13.120  2.9596 -0.5050  2.9119
   8223SM   C3S10880   2.402   6.008  13.230 -0.4211 -0.4274  0.1748
   8223SM   H3S10881   2.314   5.951  13.267  1.4422 -1.8649  2.6579
   8223SM    O310882   2.337   6.099  13.136 -0.2674 -0.1332  0.4985
   8223SM   HO310883   2.365   6.073  13.048  1.2038  1.9478  0.2926
   8223SM   C4S10884   2.461   6.080  13.347 -0.6010 -0.4712  0.0032
   8223SM   H4S10885   2.429   6.046  13.446 -0.9411  3.8828  1.5795
   8223SM   C5S10886   2.545   6.187  13.346  0.2463 -0.3541 -0.0014
   8223SM   H5S10887   2.575   6.239  13.254 -0.0661  0.7507  0.5057
   8223SM   C6S10888   2.603   6.254  13.466  0.1196  0.1642 -0.2482
   8223SM   H6S10889   2.581   6.362  13.452 -0.4287 -0.0276 -0.9257
   8223SM   H6T10890   2.714   6.240  13.470  0.2486  1.2392  2.8897
   8223SM   C7S10891   2.538   6.219  13.604  0.4896  0.3568  0.2944
   8223SM   H7S10892   2.549   6.111  13.626  3.1463  0.1058 -1.8099
   8223SM   H7T10893   2.427   6.221  13.601  0.3835 -1.6088  1.4103
   8223SM   C8S10894   2.592   6.302  13.712  0.4304 -0.1050 -0.4905
   8223SM   H8S10895   2.619   6.404  13.678  0.9411  1.6407  4.3141
   8223SM   H8T10896   2.694   6.272  13.744  0.4061  0.7295  0.4321
   8223SM   C9S10897   2.502   6.303  13.839 -0.0243 -0.4272 -0.3662
   8223SM   H9S10898   2.487   6.197  13.869  0.1064 -0.1137  0.8497
   8223SM   H9T10899   2.404   6.348  13.811 -0.2967 -0.5956  0.2874
   8223SM  C10S10900   2.569   6.377  13.965 -0.6873  0.1110  0.5151
   8223SM  H10S10901   2.578   6.484  13.938 -1.0825 -0.2116 -0.9820
   8223SM  H10T10902   2.671   6.332  13.962  0.6364  2.8364  1.4033
   8223SM  C11S10903   2.508   6.367  14.102 -0.1362 -0.3957 -0.7240
   8223SM  H11S10904   2.487   6.264  14.139  0.4690 -0.5997 -0.9399
   8223SM  H11T10905   2.419   6.428  14.128  2.0984  2.0480  1.8227
   8223SM  C12S10906   2.605   6.414  14.211  0.5497  0.5417  0.6337
   8223SM  H12S10907   2.609   6.525  14.206 -0.1728  0.5439  0.0233
   8223SM  H12T10908   2.706   6.369  14.197  1.1427  1.2440  2.2999
   8223SM  C13S10909   2.545   6.380  14.352 -0.4497 -0.0984  0.0040
   8223SM  H13S10910   2.533   6.270  14.360 -2.0377  0.0310 -0.2739
   8223SM  H13T10911   2.444   6.425  14.351 -0.8591 -0.9412 -2.1054
   8223SM  C14S10912   2.629   6.445  14.464 -0.4040 -0.2023 -0.0277
   8223SM  H14S10913   2.660   6.549  14.439  2.2777 -1.4450 -2.3025
   8223SM  H14T10914   2.725   6.395  14.484 -0.7153 -0.6539  0.3692
   8223SM  C15S10915   2.549   6.441  14.588 -0.3761 -0.3551  0.1236
   8223SM  H15S10916   2.515   6.339  14.618 -2.0991 -0.1636 -1.0279
   8223SM  H15T10917   2.455   6.495  14.563  0.9670  1.8199 -0.5081
   8223SM  C16S10918   2.610   6.517  14.709  0.0328 -0.1452  0.9689
   8223SM  H16S10919   2.535   6.523  14.791 -1.2510  1.7428 -0.2690
   8223SM  H16T10920   2.626   6.615  14.659  0.6247 -1.9104 -2.6560
   8223SM  C17S10921   2.738   6.456  14.757 -0.5159 -0.4517  0.4263
   8223SM  H17S10922   2.771   6.505  14.851 -0.5590 -2.2675  1.4501
   8223SM  H17T10923   2.813   6.477  14.678 -1.9295  0.2829 -0.7908
   8223SM  C18S10924   2.747   6.304  14.778  0.2460 -0.9254  0.0380
   8223SM  H18S10925   2.841   6.265  14.822 -0.6810 -1.5603  1.5315
   8223SM  H18T10926   2.740   6.250  14.681 -1.3943 -1.6515  0.5214
   8223SM  H18U10927   2.660   6.272  14.839  0.7895 -0.2922  1.1677
   8223SM   C1F10928   2.699   5.768  13.249 -0.0966 -0.8003  0.3910
   8223SM    OF10929   2.731   5.761  13.132 -0.1452 -0.4670 -0.1053
   8223SM   C2F10930   2.773   5.700  13.361  0.0744 -0.5019 -0.8931
   8223SM   H2F10931   2.689   5.655  13.418 -0.2862  2.5581  1.2275
   8223SM   H2G10932   2.818   5.775  13.428 -3.7434  1.8695 -0.6813
   8223SM   C3F10933   2.876   5.599  13.319 -0.2430 -0.5155 -0.3584
   8223SM   H3F10934   2.954   5.654  13.262 -1.2960  1.0441 -0.3469
   8223SM   H3G10935   2.827   5.521  13.256 -1.4518 -0.1288  0.0739
   8223SM   C4F10936   2.935   5.527  13.445 -0.1821  0.6004  0.3668
   8223SM   H4F10937   2.981   5.435  13.405 -1.2333  0.3372 -0.2889
   8223SM   H4G10938   2.868   5.500  13.529  1.1743  2.7324  2.2626
   8223SM   C5F10939   3.054   5.607  13.511  0.5170  0.5443  0.1448
   8223SM   H5F10940   3.022   5.705  13.551 -0.0179 -0.2234  1.6442
   8223SM   H5G10941   3.125   5.624  13.427 -0.3151  1.2738 -0.4196
   8223SM   C6F10942   3.129   5.516  13.615  0.2456 -0.1070  0.5988
   8223SM   H6F10943   3.237   5.528  13.591  0.0525 -1.8542 -1.3437
   8223SM   H6G10944   3.103   5.409  13.601 -3.5963  0.6116  1.0177
   8223SM   C7F10945   3.106   5.551  13.760 -0.1284 -0.8359 -0.7433
   8223SM   H7F10946   3.005   5.515  13.790 -0.8350  1.4898 -0.1248
   8223SM   H7G10947   3.112   5.661  13.773  0.9015 -0.7148 -2.1040
   8223SM   C8F10948   3.203   5.470  13.855  0.0463 -0.1311 -0.1858
   8223SM   H8F10949   3.307   5.494  13.826  1.2095 -0.2207  3.4422
   8223SM   H8G10950   3.189   5.366  13.820 -0.2674  0.0895 -0.7424
   8223SM   C9F10951   3.173   5.486  14.005  0.0484  0.3156  0.1900
   8223SM   H9F10952   3.071   5.449  14.027  0.0514  0.6177  0.7205
   8223SM   H9G10953   3.182   5.593  14.033  0.1298  0.4176 -0.2180
   8223SM  C10F10954   3.267   5.399  14.077  0.7188  0.1802  0.9005
   8223SM  H10F10955   3.366   5.444  14.055  0.9698 -0.4704  0.6559
   8223SM  H10G10956   3.257   5.293  14.045 -0.2744 -0.1127  2.0903
   8223SM  C11F10957   3.248   5.418  14.227 -0.6646  0.0952  0.4142
   8223SM  H11F10958   3.140   5.408  14.252 -0.9469  5.1158  2.2809
   8223SM  H11G10959   3.263   5.525  14.250 -1.8892  0.0168  1.7298
   8223SM  C12F10960   3.327   5.322  14.318 -0.2640  0.1269 -0.8819
   8223SM  H12F10961   3.432   5.351  14.299  0.0945  0.1334  0.9376
   8223SM  H12G10962   3.309   5.215  14.295  0.3036 -0.0228 -0.6277
   8223SM  C13F10963   3.294   5.347  14.464  0.3107  0.4233 -0.3681
   8223SM  H13F10964   3.189   5.315  14.477  0.2207  0.8546 -0.0213
   8223SM  H13G10965   3.301   5.453  14.496  2.4714  0.5818 -1.1987
   8223SM  C14F10966   3.390   5.263  14.548 -0.4125  0.0910  1.0074
   8223SM  H14F10967   3.491   5.307  14.541 -0.7299  0.9012  1.3796
   8223SM  H14G10968   3.388   5.160  14.508 -2.2785  0.3536  0.2818
   8223SM  C15F10969   3.356   5.265  14.701 -0.8979  0.5423 -0.3382
   8223SM  H15F10970   3.258   5.217  14.720 -0.2608 -0.2636  1.0689
   8223SM  H15G10971   3.356   5.372  14.731  0.3738  1.2401 -2.5303
   8223SM  C16F10972   3.453   5.185  14.795  0.6085 -0.1358  0.3805
   8223SM  H16F10973   3.554   5.230  14.787  0.9118 -0.5473  1.7516
   8223SM  H16G10974   3.450   5.078  14.767  0.3649 -1.3537  4.4027
   8223SM  C17F10975   3.417   5.170  14.938  0.2493 -0.5892  0.2251
   8223SM  H17F10976   3.307   5.159  14.945  0.0566  1.5714  1.4601
   8223SM  H17G10977   3.446   5.259  14.998  1.1092  0.9639 -2.3531
   8223SM  C18F10978   3.481   5.047  14.998  0.7969 -0.4136 -0.3943
   8223SM  H18F10979   3.433   4.970  14.933  0.5780  0.9746 -1.9412
   8223SM  H18G10980   3.444   5.036  15.102 -0.3986 -0.0852 -0.7754
   8223SM  C19F10981   3.633   5.036  14.979 -0.5746 -0.1189 -0.5130
   8223SM  H19F10982   3.679   5.135  14.997  0.1775 -0.1517 -2.1309
   8223SM  H19G10983   3.668   5.019  14.875 -1.9173  1.1663 -1.2097
   8223SM  C20F10984   3.694   4.938  15.088 -0.1306 -1.4400 -0.5657
   8223SM  H20F10985   3.775   4.880  15.039  2.9681  1.3507  0.8194
   8223SM  H20G10986   3.614   4.876  15.134 -2.4865  1.1341 -0.9079
   8223SM  C21F10987   3.755   5.001  15.211 -0.1470  0.3032  0.5231
   8223SM  H21F10988   3.665   5.041  15.263 -2.0812 -0.5036 -2.0201
   8223SM  H21G10989   3.813   5.092  15.183 -0.2808  0.9025  2.0635
   8223SM  C22F10990   3.849   4.910  15.298  0.8934  0.3973  0.2784
   8223SM  H22F10991   3.890   4.961  15.388  0.4697  1.4865 -0.1264
   8223SM  H22G10992   3.941   4.885  15.240  0.9657  0.7676  0.2327
   8223SM  C23F10993   3.785   4.777  15.323  0.1672 -0.2761  0.9233
   8223SM  H23F10994   3.791   4.713  15.233 -0.2549  1.6351 -0.5371
   8223SM  H23G10995   3.678   4.795  15.349  0.5725  2.4156  1.0640
   8223SM  H23H10996   3.839   4.726  15.405 -0.2544 -0.7835  0.8924
   8323SM     N10997   2.881   5.275  12.126 -0.5334  0.0987 -0.1957
   8323SM   C1510998   2.850   5.193  12.004  0.2356 -0.0228 -0.5757
   8323SM  H15A10999   2.765   5.235  11.952 -3.6595 -0.7312  4.4438
   8323SM  H15B11000   2.811   5.094  12.023 -1.2272  0.1414 -2.3756
   8323SM  H15C11001   2.928   5.187  11.930 -1.4937  0.2193 -2.5232
   8323SM   C1411002   2.894   5.421  12.085 -0.0573 -0.6750 -0.2073
   8323SM  H14A11003   2.801   5.455  12.041 -0.5883 -2.4230 -0.5012
   8323SM  H14B11004   2.966   5.435  12.007 -0.1956  1.0452 -0.0721
   8323SM  H14C11005   2.916   5.473  12.178 -0.7360 -0.0121 -0.4015
   8323SM   C1311006   2.768   5.262  12.226  0.0903 -0.3670 -0.1234
   8323SM  H13A11007   2.776   5.325  12.313 -2.0320  0.7551 -0.6657
   8323SM  H13B11008   2.755   5.162  12.265 -1.4194 -0.5202 -0.9424
   8323SM  H13C11009   2.673   5.289  12.181  0.9038  1.8252 -0.6118
   8323SM   C1211010   3.007   5.214  12.184  0.6835 -0.3077  0.2353
   8323SM  H12A11011   3.085   5.214  12.109 -0.0889  0.5058 -0.6055
   8323SM  H12B11012   2.985   5.111  12.204  1.3411 -0.6681 -0.7818
   8323SM   C1111013   3.072   5.267  12.312  0.1701  0.1235 -0.0433
   8323SM  H11A11014   3.178   5.233  12.315  0.3698  0.6431 -0.8940
   8323SM  H11B11015   3.018   5.224  12.399 -2.1014  0.1253 -1.3972
   8323SM     P11016   3.199   5.494  12.261 -0.0967  0.2808  0.2076
   8323SM   O1311017   3.263   5.432  12.143  0.4369  0.4094  0.0813
   8323SM   O1411018   3.152   5.637  12.254 -0.5520  0.2588 -0.0030
   8323SM   O1111019   3.298   5.485  12.383 -0.4936  0.4993 -0.3038
   8323SM   O1211020   3.077   5.410  12.313 -0.4648 -0.1500  0.3961
   8323SM   C1S11021   3.267   5.514  12.515  0.4035 -0.3390 -0.5215
   8323SM   H1S11022   3.167   5.559  12.529  1.0276  0.1570  3.6283
   8323SM   H1T11023   3.346   5.587  12.543  0.6362 -0.0524 -1.8464
   8323SM    NF11024   3.278   5.432  12.748  0.4962  0.9179 -0.2260
   8323SM   HNF11025   3.371   5.449  12.779  0.4547  0.8627 -0.0658
   8323SM   C2S11026   3.268   5.389  12.610 -0.4518 -0.3585 -0.6924
   8323SM   H2S11027   3.180   5.321  12.598  0.1009 -1.0913 -0.6597
   8323SM   C3S11028   3.391   5.289  12.578  0.1668  0.0104 -0.4572
   8323SM   H3S11029   3.485   5.348  12.581 -0.4825  1.1437 -1.6700
   8323SM    O311030   3.381   5.230  12.448 -0.2266 -0.0283 -0.1353
   8323SM   HO311031   3.330   5.295  12.399  0.4367  0.6233  0.0254
   8323SM   C4S11032   3.394   5.175  12.668 -0.3243 -0.0332 -1.2280
   8323SM   H4S11033   3.307   5.111  12.689  0.1358  0.1143  1.4678
   8323SM   C5S11034   3.501   5.149  12.748  0.7785 -0.5259 -0.1420
   8323SM   H5S11035   3.587   5.218  12.755 -0.1293  0.5465  1.1114
   8323SM   C6S11036   3.512   5.026  12.839  0.7647 -0.6870  0.1043
   8323SM   H6S11037   3.610   4.975  12.832  0.9165 -0.5729  1.2464
   8323SM   H6T11038   3.431   4.954  12.815  0.7521 -0.5985 -0.1227
   8323SM   C7S11039   3.505   5.059  12.990  0.4528 -0.4551 -0.1047
   8323SM   H7S11040   3.430   5.139  13.011 -0.5270 -1.8231  1.9830
   8323SM   H7T11041   3.605   5.093  13.024  0.8242  0.8569 -2.3111
   8323SM   C8S11042   3.457   4.931  13.062 -0.2256 -0.1957 -0.8522
   8323SM   H8S11043   3.529   4.846  13.051 -1.1368 -1.4867  2.1742
   8323SM   H8T11044   3.357   4.910  13.018 -0.1589 -0.8531 -0.7101
   8323SM   C9S11045   3.446   4.948  13.216  0.2024  0.3717  0.1673
   8323SM   H9S11046   3.351   4.995  13.248 -0.0836 -0.2631  0.2754
   8323SM   H9T11047   3.521   5.025  13.243 -2.3146  2.5500  1.3781
   8323SM  C10S11048   3.471   4.822  13.290 -0.3604  0.3562  0.2599
   8323SM  H10S11049   3.578   4.797  13.277 -0.1096 -1.3885  4.2138
   8323SM  H10T11050   3.410   4.735  13.257 -0.3001  0.1281  0.7399
   8323SM  C11S11051   3.464   4.836  13.443 -0.0510  0.0042 -0.5620
   8323SM  H11S11052   3.358   4.835  13.475 -0.0703  1.6299 -0.5160
   8323SM  H11T11053   3.527   4.923  13.474 -0.7183  0.4546 -0.4518
   8323SM  C12S11054   3.521   4.715  13.513 -0.4784  0.5236  0.6463
   8323SM  H12S11055   3.622   4.682  13.483 -0.1583  2.0723 -0.0949
   8323SM  H12T11056   3.462   4.626  13.482  3.0429 -1.0315 -2.3639
   8323SM  C13S11057   3.509   4.733  13.665  0.1032  0.2255  0.1082
   8323SM  H13S11058   3.405   4.773  13.673 -0.0857 -0.0258 -0.9185
   8323SM  H13T11059   3.579   4.808  13.707 -1.7925  0.7171  2.6712
   8323SM  C14S11060   3.520   4.597  13.746 -0.2242 -0.8801  0.7972
   8323SM  H14S11061   3.622   4.554  13.734 -0.1180 -0.8194  1.4377
   8323SM  H14T11062   3.460   4.526  13.686  0.7385 -0.9913 -0.0594
   8323SM  C15S11063   3.497   4.620  13.894  0.6409  0.8506 -0.3049
   8323SM  H15S11064   3.394   4.662  13.893  0.5657  0.6705 -1.4613
   8323SM  H15T11065   3.569   4.698  13.929  1.0149  1.0621 -1.5112
   8323SM  C16S11066   3.499   4.501  13.991  0.2586  0.2327  0.6960
   8323SM  H16S11067   3.594   4.444  13.978 -0.3614 -0.9696  1.2896
   8323SM  H16T11068   3.420   4.427  13.971  0.9708 -0.4585  0.3787
   8323SM  C17S11069   3.472   4.551  14.137  0.0332  0.6041 -0.0913
   8323SM  H17S11070   3.365   4.580  14.129  0.3553  1.9684  0.3811
   8323SM  H17T11071   3.539   4.635  14.163  1.0670 -0.3156  0.3063
   8323SM  C18S11072   3.480   4.444  14.248  0.2139  0.1941  0.0859
   8323SM  H18S11073   3.392   4.378  14.232 -0.3774  0.5276  1.7564
   8323SM  H18T11074   3.482   4.488  14.350 -0.3372 -0.9339  0.6037
   8323SM  H18U11075   3.574   4.385  14.247  0.5294  0.6864  0.4367
   8323SM   C1F11076   3.174   5.488  12.800  0.4799  0.1376  0.5933
   8323SM    OF11077   3.063   5.480  12.741  0.6248  0.0926  0.2021
   8323SM   C2F11078   3.194   5.572  12.920 -0.0952  0.1444 -0.5206
   8323SM   H2F11079   3.160   5.673  12.890  0.9517  0.8298  0.5429
   8323SM   H2G11080   3.299   5.579  12.956 -0.2669 -0.7438  0.1892
   8323SM   C3F11081   3.118   5.521  13.041 -0.2156 -0.0581  0.3578
   8323SM   H3F11082   3.010   5.506  13.022 -0.0396 -2.4393  0.8841
   8323SM   H3G11083   3.128   5.599  13.120 -1.0844  1.6015 -1.1087
   8323SM   C4F11084   3.169   5.388  13.086 -0.0671 -0.7719  0.3269
   8323SM   H4F11085   3.165   5.302  13.016  1.0494 -1.4751  1.1033
   8323SM   H4G11086   3.101   5.356  13.168  1.3052 -0.7904  1.5045
   8323SM   C5F11087   3.307   5.396  13.146  0.0404  0.8547  0.0240
   8323SM   H5F11088   3.329   5.491  13.200  1.6583  0.4698  0.0926
   8323SM   H5G11089   3.388   5.393  13.070  1.0289  2.3583  0.9585
   8323SM   C6F11090   3.335   5.279  13.236  0.0578 -0.1621 -0.2406
   8323SM   H6F11091   3.438   5.242  13.215  0.6855  1.6624 -0.5441
   8323SM   H6G11092   3.259   5.201  13.211 -1.0330  0.7757  0.0736
   8323SM   C7F11093   3.338   5.316  13.386 -0.0449  0.0948  0.1208
   8323SM   H7F11094   3.240   5.348  13.427 -0.0371 -1.1039  1.1255
   8323SM   H7G11095   3.397   5.411  13.390  1.6563 -0.8301 -1.3837
   8323SM   C8F11096   3.393   5.203  13.472  0.8275  0.2178  0.2393
   8323SM   H8F11097   3.501   5.195  13.445  0.4820 -0.6715 -0.9344
   8323SM   H8G11098   3.345   5.105  13.453  0.8267  0.4913 -1.2672
   8323SM   C9F11099   3.389   5.234  13.623 -0.5705  0.4138 -0.7619
   8323SM   H9F11100   3.281   5.257  13.637 -0.5750  0.0593 -0.1887
   8323SM   H9G11101   3.456   5.320  13.641  0.1541 -0.0036 -1.3731
   8323SM  C10F11102   3.439   5.114  13.705  0.3118 -0.4336 -0.6471
   8323SM  H10F11103   3.542   5.098  13.665 -0.6106 -1.0547 -2.9102
   8323SM  H10G11104   3.386   5.022  13.672  0.7621  0.1633 -3.1943
   8323SM  C11F11105   3.428   5.141  13.855 -0.4582 -0.1660 -0.2626
   8323SM  H11F11106   3.328   5.179  13.883 -0.4112 -0.5170  0.4196
   8323SM  H11G11107   3.499   5.222  13.882  0.3485 -0.7354 -0.6231
   8323SM  C12F11108   3.473   5.020  13.939 -0.6051 -0.0223  0.5873
   8323SM  H12F11109   3.583   5.009  13.928 -0.8751 -1.3867 -1.1993
   8323SM  H12G11110   3.421   4.927  13.906  0.7904 -0.8687  0.7140
   8323SM  C13F11111   3.460   5.035  14.088 -0.1306 -0.4965  0.0334
   8323SM  H13F11112   3.354   5.023  14.119 -0.5766 -0.0459 -1.2319
   8323SM  H13G11113   3.483   5.141  14.113 -0.7216 -0.4232  0.2911
   8323SM  C14F11114   3.544   4.945  14.173 -0.3459 -0.8120  0.3552
   8323SM  H14F11115   3.643   4.961  14.125 -0.8383 -1.1288 -0.7812
   8323SM  H14G11116   3.508   4.845  14.140 -1.1468 -0.4568  0.1317
   8323SM  C15F11117   3.533   4.959  14.329 -0.2480 -0.2135  0.6520
   8323SM  H15F11118   3.430   4.927  14.356  0.4272 -1.4417  1.9101
   8323SM  H15G11119   3.550   5.064  14.363  0.0723  0.0203 -0.2106
   8323SM  C16F11120   3.640   4.872  14.395 -0.0166  0.5048  0.1426
   8323SM  H16F11121   3.735   4.919  14.364 -1.0963  2.2197 -0.7234
   8323SM  H16G11122   3.628   4.772  14.349  0.3927  1.0168 -1.1229
   8323SM  C17F11123   3.627   4.871  14.541  0.0456  0.4502 -0.3811
   8323SM  H17F11124   3.605   4.970  14.585  2.3980 -0.0930  2.3244
   8323SM  H17G11125   3.728   4.850  14.582  0.2297  1.3774 -0.3522
   8323SM  C18F11126   3.533   4.766  14.595 -0.1967 -0.0325  0.2787
   8323SM  H18F11127   3.545   4.678  14.529 -1.8229  1.0011 -1.4834
   8323SM  H18G11128   3.429   4.793  14.565  0.3905  0.0750 -1.8145
   8323SM  C19F11129   3.543   4.741  14.741  0.2505 -0.1745  0.4530
   8323SM  H19F11130   3.512   4.828  14.803 -0.4707 -1.2595  1.6575
   8323SM  H19G11131   3.650   4.729  14.770  0.9151  2.7666 -0.3684
   8323SM  C20F11132   3.471   4.621  14.807  0.4431 -0.3147  0.1603
   8323SM  H20F11133   3.514   4.522  14.779  0.6607 -0.6624  1.6415
   8323SM  H20G11134   3.372   4.610  14.757  0.7865  1.1835 -0.9115
   8323SM  C21F11135   3.460   4.632  14.961  0.6532  1.0646 -0.3769
   8323SM  H21F11136   3.404   4.719  15.004  1.4862  1.2519  0.3624
   8323SM  H21G11137   3.563   4.643  15.001  0.5609 -0.2309  0.2813
   8323SM  C22F11138   3.398   4.497  15.019  0.8097 -0.5232  0.2058
   8323SM  H22F11139   3.422   4.493  15.127 -1.6590 -0.1298  0.8148
   8323SM  H22G11140   3.446   4.410  14.969  0.7074 -0.6144  0.2664
   8323SM  C23F11141   3.248   4.478  14.996  0.4034  0.0632 -0.3330
   8323SM  H23F11142   3.177   4.550  15.042 -0.9725 -1.1570 -0.4834
   8323SM  H23G11143   3.202   4.386  15.035 -0.6481  2.6749  5.6900
   8323SM  H23H11144   3.227   4.477  14.887  0.1581  0.6126 -0.2962
   8423SM     N11145   2.913   2.883  12.060  0.1989 -0.5443  0.1427
   8423SM   C1511146   2.952   2.769  11.972 -0.1982  0.0245  0.1440
   8423SM  H15A11147   3.060   2.764  11.966 -0.3003 -1.4138 -1.1563
   8423SM  H15B11148   2.906   2.781  11.875 -1.7520 -1.8786  0.5826
   8423SM  H15C11149   2.931   2.673  12.017  2.7104 -1.6863 -1.7813
   8423SM   C1411150   2.981   3.016  12.033  0.3042  0.1841 -0.4183
   8423SM  H14A11151   2.984   3.068  12.128  2.0864  1.4122 -1.0964
   8423SM  H14B11152   2.918   3.082  11.976 -0.1696  0.4069  0.3397
   8423SM  H14C11153   3.081   3.004  11.993 -0.3447  1.5731 -2.6021
   8423SM   C1311154   2.764   2.902  12.067 -0.0454 -0.6003 -0.1827
   8423SM  H13A11155   2.724   2.959  12.149 -0.2523 -0.9230 -0.0563
   8423SM  H13B11156   2.713   2.807  12.074 -0.1775 -0.4789  0.6164
   8423SM  H13C11157   2.721   2.943  11.977 -3.9821 -0.0566  1.7223
   8423SM   C1211158   2.951   2.849  12.203  0.3544 -0.2531  0.1660
   8423SM  H12A11159   2.900   2.756  12.224  0.6230 -0.6052 -0.6698
   8423SM  H12B11160   2.914   2.921  12.274  2.2500  0.4292  0.5055
   8423SM   C1111161   3.101   2.825  12.236  0.8636  0.0183  0.4246
   8423SM  H11A11162   3.145   2.742  12.177  1.0977 -0.3986  1.1665
   8423SM  H11B11163   3.093   2.803  12.345 -2.2240  0.9728  0.4844
   8423SM     P11164   3.207   3.063  12.297  0.6765  0.6880  0.1034
   8423SM   O1311165   3.255   3.158  12.201  0.2814  0.4926 -0.3938
   8423SM   O1411166   3.083   3.107  12.375  0.4044 -0.4602  0.2331
   8423SM   O1111167   3.320   3.013  12.396 -0.2243  0.6292  0.5731
   8423SM   O1211168   3.185   2.937  12.210  0.0135  0.4329 -0.1855
   8423SM   C1S11169   3.420   2.926  12.335 -0.1329 -0.2190 -0.6509
   8423SM   H1S11170   3.476   2.965  12.247 -1.4883  0.4594 -1.2484
   8423SM   H1T11171   3.377   2.825  12.317 -0.0681 -0.2067 -0.8757
   8423SM    NF11172   3.645   2.846  12.383 -0.4800  0.3663 -0.6042
   8423SM   HNF11173   3.671   2.750  12.389 -1.4482  0.2004  2.1848
   8423SM   C2S11174   3.524   2.891  12.448  0.2050 -0.2864  0.4480
   8423SM   H2S11175   3.547   2.992  12.485  0.4837  0.1036 -0.7234
   8423SM   C3S11176   3.456   2.801  12.544  0.3856  0.5654 -1.1516
   8423SM   H3S11177   3.446   2.704  12.490  0.3111  0.6660 -1.3180
   8423SM    O311178   3.322   2.839  12.583 -1.1730  0.1341 -0.4427
   8423SM   HO311179   3.314   2.922  12.535  1.8887 -0.2122 -1.7657
   8423SM   C4S11180   3.531   2.788  12.674  0.1216  0.2289 -0.0789
   8423SM   H4S11181   3.494   2.871  12.737  0.2847  0.3900 -0.1938
   8423SM   C5S11182   3.592   2.674  12.726  0.6861 -0.0465  0.2429
   8423SM   H5S11183   3.585   2.578  12.675  1.1463  0.4364 -0.7575
   8423SM   C6S11184   3.648   2.677  12.862 -0.3145  0.3455 -0.0259
   8423SM   H6S11185   3.648   2.776  12.913  0.5759  0.4560 -0.2266
   8423SM   H6T11186   3.751   2.636  12.853 -1.0002 -1.3766 -0.3377
   8423SM   C7S11187   3.573   2.583  12.958 -0.1820 -0.6450 -0.1868
   8423SM   H7S11188   3.596   2.476  12.939  1.4177 -0.3860  0.1136
   8423SM   H7T11189   3.462   2.586  12.954 -0.2896 -2.0512  0.6918
   8423SM   C8S11190   3.615   2.614  13.095 -0.5697  0.7028  0.2321
   8423SM   H8S11191   3.611   2.723  13.116 -1.5145  0.7020  0.1038
   8423SM   H8T11192   3.717   2.576  13.115 -0.7837 -0.4674 -0.7544
   8423SM   C9S11193   3.532   2.549  13.201  0.0726 -0.1985 -0.7707
   8423SM   H9S11194   3.538   2.438  13.203 -0.3025 -0.2501  1.9231
   8423SM   H9T11195   3.423   2.571  13.203 -0.1607 -1.1847  2.2596
   8423SM  C10S11196   3.585   2.584  13.348  0.2006  0.2140 -0.1605
   8423SM  H10S11197   3.545   2.685  13.370  1.6555  0.7731  0.0219
   8423SM  H10T11198   3.695   2.581  13.337  0.2195  0.6505 -0.1139
   8423SM  C11S11199   3.544   2.482  13.452 -0.4592 -0.8964 -0.5699
   8423SM  H11S11200   3.605   2.391  13.436  0.1840 -0.7846  1.0544
   8423SM  H11T11201   3.435   2.459  13.444 -1.0182  1.3591 -0.1218
   8423SM  C12S11202   3.576   2.539  13.594 -0.1846 -0.8164  0.1121
   8423SM  H12S11203   3.510   2.628  13.608 -0.7137 -1.2375  0.3184
   8423SM  H12T11204   3.684   2.563  13.602  0.0175 -1.6747  0.0098
   8423SM  C13S11205   3.545   2.439  13.705 -0.0330  0.4847 -0.5444
   8423SM  H13S11206   3.624   2.361  13.701 -1.4295 -0.9682 -0.5998
   8423SM  H13T11207   3.444   2.396  13.690  0.1094  0.2282 -0.7794
   8423SM  C14S11208   3.564   2.514  13.840  0.0310  0.0312  0.1969
   8423SM  H14S11209   3.492   2.596  13.820  0.4860  0.1970 -0.8403
   8423SM  H14T11210   3.668   2.552  13.855  0.5016  0.2451 -2.8250
   8423SM  C15S11211   3.508   2.439  13.955 -0.2680  0.1988  1.0152
   8423SM  H15S11212   3.568   2.346  13.961  1.9510  1.4916  0.3517
   8423SM  H15T11213   3.404   2.404  13.944 -0.0055 -0.4320  0.4318
   8423SM  C16S11214   3.538   2.508  14.093 -0.2860 -0.0958  0.5181
   8423SM  H16S11215   3.477   2.601  14.088 -0.9941 -0.6318 -1.9716
   8423SM  H16T11216   3.643   2.546  14.097 -0.2958 -0.1071  0.9864
   8423SM  C17S11217   3.483   2.418  14.204  0.0858 -0.3579 -0.2197
   8423SM  H17S11218   3.556   2.341  14.235  1.3259  1.1360  0.7454
   8423SM  H17T11219   3.401   2.369  14.147 -0.9086  1.2393 -0.2329
   8423SM  C18S11220   3.433   2.496  14.330 -0.3444  0.5122 -0.2841
   8423SM  H18S11221   3.369   2.434  14.397  0.9213  0.1741  0.6567
   8423SM  H18T11222   3.381   2.589  14.300 -2.1304 -0.2970  0.1390
   8423SM  H18U11223   3.518   2.530  14.393 -0.8577  0.6167  0.3621
   8423SM   C1F11224   3.727   2.929  12.321 -0.7208 -0.8182 -0.5758
   8423SM    OF11225   3.691   3.047  12.298  0.0758 -0.1512 -0.6302
   8423SM   C2F11226   3.870   2.883  12.284 -0.0418  0.6908 -0.0660
   8423SM   H2F11227   3.930   2.972  12.256  0.9760  0.1561  0.4086
   8423SM   H2G11228   3.860   2.821  12.192 -0.5584 -2.0836  1.7402
   8423SM   C3F11229   3.938   2.797  12.387 -0.0509 -0.5911  0.1561
   8423SM   H3F11230   4.047   2.793  12.364 -0.2215  1.2519 -1.1461
   8423SM   H3G11231   3.899   2.693  12.390 -2.3935  0.2521  0.9525
   8423SM   C4F11232   3.942   2.858  12.527 -0.1065 -0.1340  0.2782
   8423SM   H4F11233   3.835   2.857  12.558 -0.5242 -0.8691 -1.1207
   8423SM   H4G11234   3.978   2.962  12.511 -2.5131  0.5311 -1.5179
   8423SM   C5F11235   4.028   2.786  12.635  0.1695 -0.1136 -0.0633
   8423SM   H5F11236   4.135   2.787  12.602 -0.1216  0.6148 -1.0363
   8423SM   H5G11237   3.997   2.680  12.636  0.6830 -0.2672  0.1350
   8423SM   C6F11238   4.009   2.864  12.766 -0.5169  0.0312 -0.4805
   8423SM   H6F11239   3.905   2.843  12.799 -1.6616  1.6886 -2.7461
   8423SM   H6G11240   4.031   2.972  12.749  0.9189  0.3161  2.6300
   8423SM   C7F11241   4.113   2.797  12.868  0.8658  0.0188 -0.0003
   8423SM   H7F11242   4.218   2.819  12.838  0.6185  2.3707  0.6719
   8423SM   H7G11243   4.098   2.687  12.865  1.0086 -0.0137  0.3929
   8423SM   C8F11244   4.104   2.865  13.008 -0.4218 -0.1658 -0.0521
   8423SM   H8F11245   4.042   2.958  13.008 -2.8580 -1.6830  1.0425
   8423SM   H8G11246   4.203   2.892  13.048 -0.3942  1.0589 -0.8902
   8423SM   C9F11247   4.038   2.766  13.107 -0.3315 -0.2269 -0.4780
   8423SM   H9F11248   4.107   2.680  13.119  0.2660 -0.1311 -2.7457
   8423SM   H9G11249   3.940   2.726  13.075 -1.4783  2.0903 -0.0805
   8423SM  C10F11250   4.008   2.846  13.236  0.1115 -0.5374  0.6828
   8423SM  H10F11251   3.926   2.918  13.213  0.9985  1.2548  2.7327
   8423SM  H10G11252   4.091   2.914  13.265 -0.7579 -0.0767  2.1801
   8423SM  C11F11253   3.981   2.745  13.352 -1.0527  0.3755  0.8667
   8423SM  H11F11254   4.065   2.673  13.354 -0.3545  1.1711  0.6403
   8423SM  H11G11255   3.886   2.690  13.332  0.3721 -1.9223  0.0898
   8423SM  C12F11256   3.972   2.817  13.494 -0.4914 -0.6758 -0.6844
   8423SM  H12F11257   3.871   2.861  13.508 -0.2095  0.2706 -1.4892
   8423SM  H12G11258   4.058   2.888  13.502 -1.0268 -0.1625  0.8593
   8423SM  C13F11259   3.988   2.721  13.612  0.3571 -0.0987 -0.4227
   8423SM  H13F11260   4.081   2.661  13.603  0.7082  0.6509 -2.4453
   8423SM  H13G11261   3.900   2.653  13.609 -0.6783  1.1640  0.2121
   8423SM  C14F11262   3.992   2.791  13.747  0.0491  0.7966  0.5547
   8423SM  H14F11263   3.899   2.849  13.763 -3.2754 -2.9945 -2.6679
   8423SM  H14G11264   4.075   2.864  13.753  1.4559 -0.7585  0.8182
   8423SM  C15F11265   4.019   2.697  13.869  0.1398  0.6027  0.4855
   8423SM  H15F11266   4.123   2.662  13.856 -0.6027 -1.3045 -0.6667
   8423SM  H15G11267   3.948   2.612  13.867  0.0378  0.6473  1.4954
   8423SM  C16F11268   3.999   2.758  14.006 -0.0964  0.0590 -0.6463
   8423SM  H16F11269   4.046   2.858  14.014  2.2408 -0.6637 -3.5568
   8423SM  H16G11270   4.061   2.701  14.079  1.7768  2.0162 -0.6050
   8423SM  C17F11271   3.849   2.768  14.045 -0.0875  0.7496 -0.1427
   8423SM  H17F11272   3.807   2.667  14.030 -0.4773  0.5486  2.0076
   8423SM  H17G11273   3.795   2.836  13.976 -1.6586  0.2467  0.5460
   8423SM  C18F11274   3.841   2.812  14.196  0.4653  0.6084 -0.7807
   8423SM  H18F11275   3.735   2.826  14.226  0.6113  2.0399 -0.8515
   8423SM  H18G11276   3.896   2.908  14.203  0.0575  0.8262 -0.5003
   8423SM  C19F11277   3.911   2.727  14.302  0.6313 -0.7325 -0.2581
   8423SM  H19F11278   4.021   2.745  14.296  0.3500  2.1708  1.5582
   8423SM  H19G11279   3.891   2.619  14.286  0.0495 -0.5593 -0.7264
   8423SM  C20F11280   3.865   2.743  14.448  0.1054  0.0757  0.3319
   8423SM  H20F11281   3.923   2.667  14.505 -0.5435  0.4602  1.5430
   8423SM  H20G11282   3.755   2.728  14.452  0.2531 -1.9979 -1.4581
   8423SM  C21F11283   3.913   2.881  14.511  0.2746  0.8759 -0.0078
   8423SM  H21F11284   3.859   2.960  14.454 -0.9039 -0.9275 -1.5358
   8423SM  H21G11285   4.023   2.893  14.495  0.4247 -0.6430 -0.2956
   8423SM  C22F11286   3.870   2.889  14.656  0.0902 -0.6385  0.2369
   8423SM  H22F11287   3.896   2.990  14.696  1.5573 -1.4575  1.4174
   8423SM  H22G11288   3.924   2.815  14.718 -0.7894  0.2806  2.2048
   8423SM  C23F11289   3.716   2.866  14.670 -0.6992  0.3502  0.5095
   8423SM  H23F11290   3.655   2.934  14.607  0.1616  1.5936  0.9596
   8423SM  H23G11291   3.675   2.887  14.771 -0.2629  1.6684  0.4360
   8423SM  H23H11292   3.684   2.765  14.637 -1.8949  1.2946 -1.3685
   8523SM     N11293   4.391   4.772  12.288  0.2225  0.4078 -0.0106
   8523SM   C1511294   4.355   4.854  12.413  0.7779  0.2209  0.0465
   8523SM  H15A11295   4.440   4.887  12.470 -1.2958  0.3021  3.3315
   8523SM  H15B11296   4.285   4.799  12.475  2.3731 -2.0791 -0.0666
   8523SM  H15C11297   4.303   4.945  12.387 -1.4052 -0.6447  1.0977
   8523SM   C1411298   4.445   4.874  12.197 -0.1792  0.4273  0.2444
   8523SM  H14A11299   4.510   4.833  12.121  0.0146  3.9977 -1.7625
   8523SM  H14B11300   4.513   4.943  12.244  1.9582 -0.8632 -0.7937
   8523SM  H14C11301   4.372   4.927  12.137 -2.1905 -2.3657  0.0143
   8523SM   C1311302   4.491   4.671  12.322 -0.6770 -0.4602 -0.0901
   8523SM  H13A11303   4.452   4.603  12.396  0.2937  1.3666  2.2230
   8523SM  H13B11304   4.583   4.702  12.370 -0.1033 -0.7031 -1.0059
   8523SM  H13C11305   4.518   4.614  12.234  1.7224  2.2262 -1.2573
   8523SM   C1211306   4.266   4.705  12.236  0.2867 -0.2144 -0.0734
   8523SM  H12A11307   4.271   4.649  12.143 -1.1342 -0.3421 -0.0961
   8523SM  H12B11308   4.196   4.781  12.205 -0.8656 -1.0117  0.4921
   8523SM   C1111309   4.196   4.604  12.330 -0.1162 -0.2618  0.2615
   8523SM  H11A11310   4.094   4.583  12.292 -1.2726  2.4834  1.5566
   8523SM  H11B11311   4.171   4.652  12.427 -2.1103  2.0422 -1.2755
   8523SM     P11312   4.285   4.355  12.274 -0.2095  0.6163  0.1600
   8523SM   O1311313   4.212   4.379  12.144 -0.8958 -0.1492 -0.0058
   8523SM   O1411314   4.427   4.314  12.250  0.3359  0.4304 -0.5116
   8523SM   O1111315   4.217   4.248  12.366  0.0660  0.4821 -0.1356
   8523SM   O1211316   4.275   4.489  12.362  1.1315  0.1865  0.0589
   8523SM   C1S11317   4.280   4.166  12.462 -0.0833  0.0935 -0.2232
   8523SM   H1S11318   4.308   4.232  12.547 -1.7496  0.3063  0.1977
   8523SM   H1T11319   4.379   4.131  12.425  0.2965 -0.3327  1.1338
   8523SM    NF11320   4.222   3.989  12.629 -0.2048 -0.5074  0.1232
   8523SM   HNF11321   4.249   3.894  12.618 -2.9230 -1.2204 -1.2479
   8523SM   C2S11322   4.182   4.052  12.508 -0.1611 -0.7546  0.3320
   8523SM   H2S11323   4.088   4.108  12.528  0.0081 -0.9587  1.7454
   8523SM   C3S11324   4.153   3.957  12.391  0.4716  0.1505  0.4501
   8523SM   H3S11325   4.252   3.913  12.367  0.2001  1.1016 -2.9250
   8523SM    O311326   4.098   4.026  12.276  0.5394  0.1507 -0.5582
   8523SM   HO311327   4.095   4.116  12.309  0.3224 -0.9803  2.8171
   8523SM   C4S11328   4.061   3.842  12.432 -0.1667  0.2584  0.5280
   8523SM   H4S11329   4.122   3.750  12.440  1.0704  0.8878 -1.0293
   8523SM   C5S11330   3.927   3.837  12.431 -0.3579  0.2517 -0.1673
   8523SM   H5S11331   3.875   3.922  12.383 -0.1698  0.0228 -0.7861
   8523SM   C6S11332   3.853   3.713  12.462  0.9494 -0.4452 -0.2282
   8523SM   H6S11333   3.923   3.627  12.453  3.5268  1.4415  0.4464
   8523SM   H6T11334   3.767   3.711  12.392  0.6511 -0.5477  0.1350
   8523SM   C7S11335   3.804   3.725  12.612 -0.3023  0.2394 -0.4161
   8523SM   H7S11336   3.738   3.638  12.634  1.4278 -1.1523 -0.5020
   8523SM   H7T11337   3.735   3.812  12.621  0.2481  0.8087 -1.4906
   8523SM   C8S11338   3.911   3.734  12.715 -0.2850  0.2256 -0.2940
   8523SM   H8S11339   3.970   3.827  12.703 -0.0441  0.3186  1.4016
   8523SM   H8T11340   3.983   3.649  12.705  1.2498  1.4639 -0.1272
   8523SM   C9S11341   3.843   3.762  12.855  0.5680  0.1297  0.0904
   8523SM   H9S11342   3.788   3.668  12.878  0.1939  0.2827 -0.1735
   8523SM   H9T11343   3.776   3.849  12.839  2.3682  1.3547 -1.1988
   8523SM  C10S11344   3.950   3.786  12.958 -1.0484 -0.3956 -0.1710
   8523SM  H10S11345   3.986   3.891  12.946  1.9219 -1.4679 -1.4378
   8523SM  H10T11346   4.041   3.722  12.954 -0.6359  0.2517 -1.7172
   8523SM  C11S11347   3.897   3.770  13.101  0.5192  0.0641 -0.0813
   8523SM  H11S11348   3.846   3.673  13.118 -0.5654  0.1901 -2.2263
   8523SM  H11T11349   3.828   3.855  13.121  0.8439  0.3720 -0.2438
   8523SM  C12S11350   4.002   3.777  13.215  0.3108 -0.6960 -0.1350
   8523SM  H12S11351   4.068   3.865  13.196  0.4013 -0.9850 -1.2738
   8523SM  H12T11352   4.056   3.682  13.199 -2.0699 -1.8158 -2.3693
   8523SM  C13S11353   3.947   3.779  13.352 -0.0990 -0.0404 -0.1371
   8523SM  H13S11354   3.864   3.707  13.371  0.6164 -0.4269  1.6574
   8523SM  H13T11355   3.896   3.876  13.367  0.2452  0.1733 -0.3244
   8523SM  C14S11356   4.057   3.761  13.455  0.3055  0.4509  0.9540
   8523SM  H14S11357   4.092   3.864  13.476 -1.4161  0.9472  1.5748
   8523SM  H14T11358   4.136   3.688  13.424  0.1966  1.2923 -1.4898
   8523SM  C15S11359   3.991   3.727  13.594  0.1467  0.0399 -0.8035
   8523SM  H15S11360   3.936   3.631  13.581 -1.9034  0.8562  1.1501
   8523SM  H15T11361   3.922   3.811  13.616  1.4944  0.7286  0.9776
   8523SM  C16S11362   4.092   3.719  13.708 -0.2675  0.5602 -0.0966
   8523SM  H16S11363   4.156   3.808  13.691 -0.1375  0.2739 -1.1827
   8523SM  H16T11364   4.139   3.619  13.698 -1.7660 -0.4918  2.3589
   8523SM  C17S11365   4.032   3.720  13.843 -0.3268  0.2538 -0.1601
   8523SM  H17S11366   4.099   3.673  13.918  0.3104  0.7668 -0.3934
   8523SM  H17T11367   3.939   3.661  13.834 -0.7901  1.1544 -1.5877
   8523SM  C18S11368   3.981   3.854  13.894 -0.0095 -0.3731  0.3686
   8523SM  H18S11369   3.933   3.923  13.820  0.7094  0.3653  0.5781
   8523SM  H18T11370   4.062   3.919  13.933 -2.6424  3.6377 -0.1746
   8523SM  H18U11371   3.900   3.837  13.968 -1.7032  0.6428 -1.1635
   8523SM   C1F11372   4.213   4.051  12.743 -0.4500  0.5666  0.4509
   8523SM    OF11373   4.163   4.162  12.745  0.1657  0.1713  0.2005
   8523SM   C2F11374   4.267   3.976  12.858  0.0695 -0.3126 -0.2459
   8523SM   H2F11375   4.376   3.960  12.849  0.1291 -0.1170  0.1068
   8523SM   H2G11376   4.231   3.871  12.851  0.5709 -0.4185 -1.4060
   8523SM   C3F11377   4.238   4.051  12.990 -0.4429 -0.1972 -0.9872
   8523SM   H3F11378   4.128   4.055  13.007 -0.6247  0.1545 -2.1440
   8523SM   H3G11379   4.275   4.155  12.994 -0.9355 -0.0142  3.0440
   8523SM   C4F11380   4.307   3.979  13.107  0.3081 -0.4309  0.1703
   8523SM   H4F11381   4.412   3.972  13.072  0.1613  0.3723 -0.4350
   8523SM   H4G11382   4.259   3.879  13.120  1.1676 -1.0769 -1.3940
   8523SM   C5F11383   4.306   4.050  13.241 -0.5821  0.2491 -0.0253
   8523SM   H5F11384   4.202   4.076  13.269 -0.3256  1.2749  0.0155
   8523SM   H5G11385   4.369   4.141  13.240 -1.4777  0.9003  0.6353
   8523SM   C6F11386   4.370   3.974  13.359 -0.9797 -0.2611 -0.3104
   8523SM   H6F11387   4.477   3.994  13.337 -1.7894  4.2823 -1.1206
   8523SM   H6G11388   4.339   3.868  13.349 -1.4897  0.0587 -2.6541
   8523SM   C7F11389   4.337   4.038  13.494 -0.4030 -0.1144 -0.1935
   8523SM   H7F11390   4.232   4.037  13.532  0.1961 -0.5340  1.5549
   8523SM   H7G11391   4.360   4.146  13.505  1.6977 -0.2957 -2.2217
   8523SM   C8F11392   4.418   3.980  13.613  0.4148 -0.1239 -0.0354
   8523SM   H8F11393   4.527   3.964  13.604  0.5089 -0.5539  1.4711
   8523SM   H8G11394   4.389   3.875  13.635 -0.6241  0.0305 -0.6030
   8523SM   C9F11395   4.385   4.042  13.743 -0.0779 -0.2109  0.1375
   8523SM   H9F11396   4.281   4.032  13.781 -0.8708 -2.8634 -2.3339
   8523SM   H9G11397   4.396   4.152  13.739  1.7453 -0.2380  2.3668
   8523SM  C10F11398   4.486   3.996  13.850  0.0278 -0.4532  0.3662
   8523SM  H10F11399   4.589   4.022  13.818  0.6907 -1.0968  1.8885
   8523SM  H10G11400   4.474   3.888  13.870 -0.6087 -0.4050  0.2756
   8523SM  C11F11401   4.457   4.075  13.979  0.3263  0.2187  0.0884
   8523SM  H11F11402   4.463   4.182  13.952  2.4107  0.1090 -0.0386
   8523SM  H11G11403   4.538   4.049  14.050  1.1571 -0.1874 -0.9976
   8523SM  C12F11404   4.322   4.032  14.044 -0.5939  0.2589  0.9587
   8523SM  H12F11405   4.292   3.927  14.024  1.1652 -0.1798  0.4368
   8523SM  H12G11406   4.241   4.097  14.005  0.7754  1.4295 -0.0797
   8523SM  C13F11407   4.335   4.046  14.201 -0.0673 -0.8068  0.5979
   8523SM  H13F11408   4.351   4.154  14.219 -1.0202 -0.3317 -1.2420
   8523SM  H13G11409   4.430   3.991  14.223  1.3666  1.3552  0.1347
   8523SM  C14F11410   4.212   4.000  14.277  0.1205  0.0084  0.5751
   8523SM  H14F11411   4.217   3.890  14.293  2.4308 -0.3486 -1.9548
   8523SM  H14G11412   4.125   4.038  14.220  0.1169 -0.7307  0.0718
   8523SM  C15F11413   4.206   4.058  14.419  0.3101 -0.0507 -0.0725
   8523SM  H15F11414   4.152   4.155  14.412 -1.5635 -1.1169 -1.2507
   8523SM  H15G11415   4.311   4.075  14.449  0.4344 -1.8699  0.6687
   8523SM  C16F11416   4.141   3.959  14.520 -0.7671 -0.5993  0.2098
   8523SM  H16F11417   4.183   3.859  14.496 -0.7938 -0.3239 -1.0645
   8523SM  H16G11418   4.031   3.946  14.507 -0.6210 -1.0527 -0.6419
   8523SM  C17F11419   4.166   3.997  14.670  0.1027 -0.6087  0.3845
   8523SM  H17F11420   4.149   4.106  14.678  0.0043 -0.5401 -0.5926
   8523SM  H17G11421   4.269   3.971  14.703 -0.0156 -0.7049  0.6775
   8523SM  C18F11422   4.083   3.914  14.772 -0.5257 -0.1150 -0.6811
   8523SM  H18F11423   3.975   3.937  14.757 -0.2547  1.4954 -0.3627
   8523SM  H18G11424   4.107   3.951  14.874  1.9212 -1.4832 -0.6849
   8523SM  C19F11425   4.116   3.762  14.753  0.6786 -0.0980 -0.1011
   8523SM  H19F11426   4.223   3.733  14.748  1.5084  2.4914  0.6953
   8523SM  H19G11427   4.069   3.734  14.657 -0.0451 -1.6639  0.6679
   8523SM  C20F11428   4.056   3.671  14.867 -0.0532  0.7567 -0.2054
   8523SM  H20F11429   4.111   3.700  14.959  0.7332  1.4340 -0.8706
   8523SM  H20G11430   4.077   3.563  14.850 -1.6104  0.4640 -0.4616
   8523SM  C21F11431   3.898   3.686  14.884 -0.6306  0.3125 -0.0778
   8523SM  H21F11432   3.852   3.625  14.804 -0.3715  0.1720 -0.1190
   8523SM  H21G11433   3.875   3.795  14.875  2.7932  1.1768  0.1172
   8523SM  C22F11434   3.849   3.636  15.016  0.0251  0.4695  0.4593
   8523SM  H22F11435   3.893   3.685  15.105  2.5818 -2.6564  1.0820
   8523SM  H22G11436   3.879   3.530  15.023  0.0921  0.5096  0.7883
   8523SM  C23F11437   3.702   3.660  15.025 -0.9384 -0.2002  0.2948
   8523SM  H23F11438   3.672   3.667  15.132 -0.5703 -0.5279  0.4224
   8523SM  H23G11439   3.639   3.585  14.973 -1.0136 -0.8883  1.3503
   8523SM  H23H11440   3.668   3.755  14.978  0.3170  0.3908  0.5429
   8623SM     N11441   2.651   2.182  11.835  0.0007  0.0557  0.5299
   8623SM   C1511442   2.708   2.194  11.698 -0.2914  0.1033 -0.3174
   8623SM  H15A11443   2.786   2.267  11.685  1.1891 -1.4154 -0.2353
   8623SM  H15B11444   2.630   2.198  11.623  1.9633  1.3269 -2.7786
   8623SM  H15C11445   2.753   2.101  11.669 -2.1792 -0.8980 -0.1504
   8623SM   C1411446   2.583   2.313  11.869  0.4781  0.3636 -0.6227
   8623SM  H14A11447   2.651   2.397  11.865  1.7544 -0.6670 -1.1534
   8623SM  H14B11448   2.534   2.302  11.964  2.7936 -0.7238  0.5196
   8623SM  H14C11449   2.507   2.333  11.795  0.7383 -0.1627 -1.0335
   8623SM   C1311450   2.555   2.069  11.836 -0.5317 -0.5979  0.8198
   8623SM  H13A11451   2.508   2.086  11.931  0.2275 -1.0119  1.2804
   8623SM  H13B11452   2.597   1.972  11.858 -2.4558 -1.2567  1.8067
   8623SM  H13C11453   2.479   2.061  11.760 -1.8036  0.9753  1.8644
   8623SM   C1211454   2.756   2.143  11.930  0.1135  0.3633  0.1127
   8623SM  H12A11455   2.831   2.219  11.915  0.2903  0.3287  0.7860
   8623SM  H12B11456   2.793   2.046  11.900 -0.5797  0.0501  0.2555
   8623SM   C1111457   2.724   2.146  12.079  0.1853 -0.6254 -0.5190
   8623SM  H11A11458   2.680   2.245  12.102  0.8962  0.0403 -1.9379
   8623SM  H11B11459   2.820   2.131  12.133  0.2530  0.3674 -0.3503
   8623SM     P11460   2.509   2.052  12.202  0.2904 -0.3050  0.0972
   8623SM   O1311461   2.424   2.154  12.139  0.0700 -0.1702  0.0923
   8623SM   O1411462   2.454   1.921  12.245 -0.2149  0.7317  0.6525
   8623SM   O1111463   2.590   2.126  12.322  0.8365 -0.4287 -0.2407
   8623SM   O1211464   2.638   2.031  12.105  0.0538 -0.5748 -0.1062
   8623SM   C1S11465   2.499   2.156  12.432  0.2091  0.6570  0.3382
   8623SM   H1S11466   2.457   2.068  12.484  0.5412  0.6136  0.5361
   8623SM   H1T11467   2.413   2.215  12.394 -0.8436 -2.3207 -2.2364
   8623SM    NF11468   2.500   2.247  12.669 -0.1758 -0.5939  0.8742
   8623SM   HNF11469   2.444   2.329  12.670  2.5344  1.5243 -1.8716
   8623SM   C2S11470   2.573   2.242  12.540 -0.3762  0.4527  0.0160
   8623SM   H2S11471   2.664   2.184  12.568  0.3156  1.6619  0.3439
   8623SM   C3S11472   2.622   2.381  12.478  0.2916 -0.2838 -0.0864
   8623SM   H3S11473   2.524   2.429  12.456  0.2682  0.1553  0.9292
   8623SM    O311474   2.696   2.379  12.358  0.0835  0.1739  0.1313
   8623SM   HO311475   2.702   2.286  12.335 -0.5619  0.6310 -2.0978
   8623SM   C4S11476   2.691   2.466  12.588 -0.5794 -0.1897  0.3299
   8623SM   H4S11477   2.620   2.532  12.640 -0.5998  1.5392 -1.7543
   8623SM   C5S11478   2.824   2.463  12.625  0.8280 -0.1206 -0.6555
   8623SM   H5S11479   2.895   2.401  12.569  0.3819  0.6362 -2.1287
   8623SM   C6S11480   2.889   2.529  12.753  0.5818 -0.2728  0.6592
   8623SM   H6S11481   2.964   2.603  12.720 -1.0224  1.8435  1.4946
   8623SM   H6T11482   2.944   2.453  12.813 -0.8151 -2.7464 -1.0047
   8623SM   C7S11483   2.792   2.617  12.846  0.2551  0.6934  0.4230
   8623SM   H7S11484   2.715   2.551  12.892  1.4424 -0.6107  0.6469
   8623SM   H7T11485   2.737   2.697  12.794  0.5314  0.5590 -0.0789
   8623SM   C8S11486   2.863   2.667  12.973 -0.7132 -0.2090  0.3931
   8623SM   H8S11487   2.910   2.581  13.026 -0.3074  0.0960  0.5345
   8623SM   H8T11488   2.791   2.718  13.039  1.0508  2.4804  0.3842
   8623SM   C9S11489   2.980   2.767  12.950  0.0580 -0.3291  0.2677
   8623SM   H9S11490   2.937   2.854  12.896  2.5690  0.8427 -0.0092
   8623SM   H9T11491   3.060   2.726  12.884  0.2269  1.2977 -0.6064
   8623SM  C10S11492   3.041   2.820  13.083 -0.4436 -0.1957 -0.1916
   8623SM  H10S11493   2.956   2.834  13.153 -0.5206 -0.6786 -0.1852
   8623SM  H10T11494   3.098   2.914  13.066  3.0378 -2.0545  0.1327
   8623SM  C11S11495   3.136   2.721  13.149  0.0940  0.1593 -0.1038
   8623SM  H11S11496   3.233   2.709  13.097  0.9435  1.2838  1.1532
   8623SM  H11T11497   3.089   2.620  13.159  2.0204 -0.8287 -0.4882
   8623SM  C12S11498   3.182   2.762  13.291  0.1255  0.0999 -0.0931
   8623SM  H12S11499   3.130   2.858  13.313  1.1382  1.4523 -3.1632
   8623SM  H12T11500   3.293   2.763  13.297  0.0859 -0.6740  1.0657
   8623SM  C13S11501   3.133   2.668  13.406  0.2615 -0.9700 -0.1492
   8623SM  H13S11502   3.147   2.560  13.386  2.0444 -1.2280  2.1439
   8623SM  H13T11503   3.023   2.683  13.419  0.5812  0.2898  1.4560
   8623SM  C14S11504   3.189   2.691  13.548  0.2916  0.3766  0.6382
   8623SM  H14S11505   3.161   2.792  13.584  0.9911  0.7792  0.0702
   8623SM  H14T11506   3.296   2.666  13.563  0.2298 -0.9783 -0.8256
   8623SM  C15S11507   3.120   2.599  13.649  0.0361  0.1904  0.1939
   8623SM  H15S11508   3.149   2.495  13.622 -0.0578 -0.3806  2.1378
   8623SM  H15T11509   3.010   2.611  13.647 -0.3648 -2.7207  0.6062
   8623SM  C16S11510   3.175   2.626  13.796  0.7677  0.5768 -0.4706
   8623SM  H16S11511   3.156   2.735  13.810 -2.1002  0.0267  0.7654
   8623SM  H16T11512   3.282   2.598  13.804 -0.0012 -2.4382  0.7246
   8623SM  C17S11513   3.100   2.540  13.901 -0.1785  0.2231 -0.0486
   8623SM  H17S11514   3.124   2.436  13.873  0.0865  0.2313  0.1410
   8623SM  H17T11515   2.990   2.553  13.894 -0.4749 -1.4257  1.0483
   8623SM  C18S11516   3.146   2.571  14.046  0.6609  0.2920  0.1874
   8623SM  H18S11517   3.223   2.651  14.045  0.9271  0.0655  1.0981
   8623SM  H18T11518   3.191   2.482  14.097 -0.1241 -0.2416 -0.0280
   8623SM  H18U11519   3.051   2.605  14.093 -0.5447 -1.7617 -0.6555
   8623SM   C1F11520   2.478   2.140  12.747  0.0196  0.8617 -0.0089
   8623SM    OF11521   2.547   2.040  12.736  0.3299 -0.2831  0.0896
   8623SM   C2F11522   2.358   2.135  12.837  0.0118  0.1444 -0.0566
   8623SM   H2F11523   2.285   2.056  12.808 -3.5974  2.1418  2.6578
   8623SM   H2G11524   2.307   2.234  12.842 -0.6626 -0.2366  0.9789
   8623SM   C3F11525   2.409   2.091  12.975  0.3279 -0.1310 -0.6012
   8623SM   H3F11526   2.477   2.166  13.022 -0.9048 -0.2116  1.4215
   8623SM   H3G11527   2.457   1.992  12.986  1.9402  0.8210  1.8665
   8623SM   C4F11528   2.287   2.091  13.079 -0.6271  0.0905  0.4261
   8623SM   H4F11529   2.206   2.028  13.037 -0.9079  1.2974 -0.9319
   8623SM   H4G11530   2.245   2.193  13.089  0.7147  0.9279 -1.7027
   8623SM   C5F11531   2.338   2.035  13.213  0.2054 -0.1696  0.0927
   8623SM   H5F11532   2.404   2.113  13.254  0.5001  0.6724 -1.8678
   8623SM   H5G11533   2.404   1.949  13.188 -0.1538 -0.3942 -0.0966
   8623SM   C6F11534   2.227   1.997  13.305  0.4673 -0.0186  0.6118
   8623SM   H6F11535   2.158   1.930  13.251 -1.1441  0.6411  1.7566
   8623SM   H6G11536   2.165   2.086  13.329  0.3347  0.0693 -0.0645
   8623SM   C7F11537   2.287   1.962  13.440  0.3046  0.0116 -0.7487
   8623SM   H7F11538   2.352   2.047  13.469  0.5816 -0.5835  0.4441
   8623SM   H7G11539   2.343   1.867  13.450  2.3095  1.3462  1.8880
   8623SM   C8F11540   2.173   1.957  13.547 -0.6441  0.1776 -0.0994
   8623SM   H8F11541   2.101   1.876  13.522  1.9113 -2.7538  1.3675
   8623SM   H8G11542   2.124   2.057  13.543 -0.5445  0.2302 -0.0137
   8623SM   C9F11543   2.227   1.926  13.688  0.0726  0.2446  0.1989
   8623SM   H9F11544   2.295   1.839  13.681 -0.2968 -0.2236  1.9874
   8623SM   H9G11545   2.136   1.900  13.747 -0.3950  0.0409 -0.6068
   8623SM  C10F11546   2.312   2.039  13.745 -0.3874 -0.0477 -0.3564
   8623SM  H10F11547   2.240   2.124  13.750  0.0206  0.3108 -0.4788
   8623SM  H10G11548   2.385   2.067  13.666 -2.3116  1.0290 -1.8086
   8623SM  C11F11549   2.388   2.012  13.875  0.3626  0.1608 -0.5031
   8623SM  H11F11550   2.430   2.107  13.914  3.0431 -0.4262 -1.7896
   8623SM  H11G11551   2.479   1.957  13.846  0.1151 -1.1718  1.1020
   8623SM  C12F11552   2.308   1.936  13.984  0.2582 -0.0038  0.7541
   8623SM  H12F11553   2.282   1.836  13.945  3.4254 -1.6529  2.4420
   8623SM  H12G11554   2.214   1.995  13.996  0.7777  1.2394 -0.8165
   8623SM  C13F11555   2.385   1.925  14.116 -0.0230  0.5753  0.3845
   8623SM  H13F11556   2.398   2.031  14.146 -1.0278  1.0277 -0.6597
   8623SM  H13G11557   2.477   1.865  14.100 -0.8666 -0.2831 -1.5853
   8623SM  C14F11558   2.293   1.874  14.231 -0.4867  0.0020 -0.6521
   8623SM  H14F11559   2.301   1.763  14.225 -0.3601  0.0401 -1.2330
   8623SM  H14G11560   2.187   1.908  14.233 -0.9489 -1.3395  2.2533
   8623SM  C15F11561   2.350   1.920  14.369 -0.0759 -0.2173 -0.3040
   8623SM  H15F11562   2.368   2.029  14.372  0.0898 -0.2345 -0.5911
   8623SM  H15G11563   2.446   1.865  14.382  0.2104 -0.5618 -3.1420
   8623SM  C16F11564   2.254   1.877  14.482  0.4914  0.3126 -0.0121
   8623SM  H16F11565   2.259   1.766  14.488  2.2221  0.4015  0.6148
   8623SM  H16G11566   2.154   1.909  14.446  0.9075  0.0712 -1.4283
   8623SM  C17F11567   2.277   1.942  14.615  0.3041 -0.0299  0.7365
   8623SM  H17F11568   2.181   1.940  14.671 -0.6343 -1.3815 -0.8015
   8623SM  H17G11569   2.307   2.048  14.606  0.3009  0.0249  1.3301
   8623SM  C18F11570   2.386   1.868  14.709 -0.1293 -0.0299  0.2259
   8623SM  H18F11571   2.483   1.872  14.655 -0.0438  1.0691  0.4446
   8623SM  H18G11572   2.359   1.761  14.706 -2.6680  0.5372 -2.8388
   8623SM  C19F11573   2.408   1.938  14.843  0.1026  0.6722 -0.1419
   8623SM  H19F11574   2.308   1.931  14.890  0.0488  0.5407 -0.2732
   8623SM  H19G11575   2.436   2.045  14.831  0.9249  0.5698  0.7265
   8623SM  C20F11576   2.511   1.869  14.933  0.1599 -0.4700  0.4649
   8623SM  H20F11577   2.615   1.899  14.907  0.2029 -1.8793 -1.1877
   8623SM  H20G11578   2.504   1.759  14.926 -1.2188 -0.5464  2.1754
   8623SM  C21F11579   2.486   1.894  15.088 -0.3917 -0.1392 -0.2839
   8623SM  H21F11580   2.376   1.908  15.099 -0.6300 -1.0483 -1.2866
   8623SM  H21G11581   2.530   1.989  15.123 -0.9479 -0.2212  0.6875
   8623SM  C22F11582   2.544   1.770  15.169  0.6569 -0.3102  0.0304
   8623SM  H22F11583   2.644   1.750  15.125 -0.5981 -3.3521 -1.7444
   8623SM  H22G11584   2.479   1.685  15.138 -1.0200  1.2735 -1.0091
   8623SM  C23F11585   2.533   1.791  15.318  0.7948  0.4935 -0.7882
   8623SM  H23F11586   2.431   1.831  15.341  1.2879  1.1428  0.3481
   8623SM  H23G11587   2.605   1.865  15.358  0.9703 -0.6090  1.0477
   8623SM  H23H11588   2.560   1.707  15.385 -3.0304 -0.0320  0.3590
   8723SM     N11589   3.681   2.785  11.746  0.1740 -0.0343 -0.1378
   8723SM   C1511590   3.689   2.895  11.646 -0.1806 -0.3711 -0.1658
   8723SM  H15A11591   3.592   2.918  11.605  0.7073  0.6269 -1.8266
   8723SM  H15B11592   3.740   2.856  11.559  0.6509 -1.1894  0.6679
   8723SM  H15C11593   3.726   2.987  11.688  0.2998 -0.4761 -0.3427
   8723SM   C1411594   3.607   2.668  11.687 -0.1934 -0.0819  1.3990
   8723SM  H14A11595   3.572   2.605  11.768  0.5975 -1.3272  0.8002
   8723SM  H14B11596   3.671   2.610  11.623  0.0799  0.5743  1.0665
   8723SM  H14C11597   3.520   2.703  11.632  0.9475  0.8345  0.0975
   8723SM   C1311598   3.822   2.739  11.782  0.4458  0.4422  0.0978
   8723SM  H13A11599   3.819   2.653  11.848  0.6598  0.4793  0.1563
   8723SM  H13B11600   3.876   2.820  11.827  0.5794  0.2255  0.3325
   8723SM  H13C11601   3.883   2.699  11.702 -0.6510 -0.5039 -0.2971
   8723SM   C1211602   3.605   2.832  11.871 -0.6696  0.5208 -0.5249
   8723SM  H12A11603   3.510   2.879  11.853  0.0712  2.0180 -0.6649
   8723SM  H12B11604   3.665   2.909  11.917  0.8773  0.1982 -1.8782
   8723SM   C1111605   3.582   2.718  11.979  0.3071 -0.4128 -0.6278
   8723SM  H11A11606   3.540   2.771  12.067 -1.1454 -4.7665  1.6035
   8723SM  H11B11607   3.683   2.681  12.009  0.8460  0.6086 -1.1396
   8723SM     P11608   3.351   2.572  11.974 -0.3450  0.0178 -0.0183
   8723SM   O1311609   3.262   2.689  11.940  0.0764  0.0681 -0.1048
   8723SM   O1411610   3.322   2.439  11.914  0.1903 -0.3702 -0.0857
   8723SM   O1111611   3.351   2.556  12.131  0.3645  0.2763 -0.2096
   8723SM   O1211612   3.497   2.611  11.934 -0.2309  0.1738  0.1858
   8723SM   C1S11613   3.444   2.460  12.184 -0.5986 -0.3337  0.0002
   8723SM   H1S11614   3.549   2.491  12.163 -0.1919  0.3324  2.6128
   8723SM   H1T11615   3.425   2.357  12.150  0.0403 -0.3118 -0.4374
   8723SM    NF11616   3.542   2.382  12.400 -0.3813 -0.3075  0.2789
   8723SM   HNF11617   3.529   2.285  12.419 -1.1091 -0.1305  0.7041
   8723SM   C2S11618   3.434   2.455  12.342 -0.4199 -0.5384 -0.0552
   8723SM   H2S11619   3.443   2.564  12.360 -1.6689 -0.2302 -1.1484
   8723SM   C3S11620   3.301   2.393  12.371  0.8143 -0.2755  0.4301
   8723SM   H3S11621   3.297   2.297  12.317  1.6215 -0.0109 -0.1127
   8723SM    O311622   3.193   2.469  12.314 -0.0047  0.0543 -0.2334
   8723SM   HO311623   3.243   2.518  12.249  1.2495  0.3319  0.8964
   8723SM   C4S11624   3.284   2.371  12.524  0.0217 -0.2738 -0.6141
   8723SM   H4S11625   3.318   2.273  12.559 -1.3998  0.1201  2.1372
   8723SM   C5S11626   3.259   2.478  12.607  0.3380 -0.6366  0.3520
   8723SM   H5S11627   3.266   2.577  12.558  0.6342 -1.2589 -0.9082
   8723SM   C6S11628   3.257   2.477  12.760  0.1786 -0.0863  0.3401
   8723SM   H6S11629   3.181   2.550  12.795  0.5700  1.5786 -2.0604
   8723SM   H6T11630   3.356   2.509  12.800 -0.3900 -0.3345  2.0266
   8723SM   C7S11631   3.230   2.348  12.834  0.4291 -0.0030  0.0233
   8723SM   H7S11632   3.326   2.296  12.851  1.8009  1.9092 -1.4631
   8723SM   H7T11633   3.161   2.281  12.779  1.0450  0.3061 -1.1433
   8723SM   C8S11634   3.197   2.386  12.979 -0.1312  0.7472 -1.0380
   8723SM   H8S11635   3.099   2.436  12.991 -0.5006 -0.3562  0.9772
   8723SM   H8T11636   3.281   2.450  13.014 -1.2326  0.7572  1.9089
   8723SM   C9S11637   3.210   2.268  13.076  0.8484  0.8307  0.6630
   8723SM   H9S11638   3.299   2.203  13.066 -0.7805 -1.2489 -1.3508
   8723SM   H9T11639   3.119   2.206  13.059  0.8533  1.2562 -1.1918
   8723SM  C10S11640   3.222   2.329  13.214 -0.3287 -0.3092  0.2008
   8723SM  H10S11641   3.141   2.399  13.243  0.5559  0.3128  1.2761
   8723SM  H10T11642   3.319   2.384  13.216 -0.5461  0.1009 -0.4685
   8723SM  C11S11643   3.223   2.226  13.326 -0.0637  0.2943  1.0965
   8723SM  H11S11644   3.229   2.278  13.424  0.0322 -0.0507  1.2774
   8723SM  H11T11645   3.320   2.171  13.323 -0.8286 -1.0862  0.6981
   8723SM  C12S11646   3.097   2.122  13.317 -0.0620  0.5760  0.7647
   8723SM  H12S11647   3.119   2.051  13.236  1.8343  0.2177  1.5383
   8723SM  H12T11648   3.025   2.200  13.285  1.5620  1.2368 -1.4861
   8723SM  C13S11649   3.060   2.046  13.443 -0.2909  0.2701 -0.3797
   8723SM  H13S11650   2.962   2.000  13.420 -1.3886  2.6676 -0.8049
   8723SM  H13T11651   3.043   2.121  13.523  0.2198 -0.7151  0.6884
   8723SM  C14S11652   3.173   1.946  13.480  0.2941 -0.3326 -0.2599
   8723SM  H14S11653   3.271   1.994  13.502 -1.6161  3.2873  1.2262
   8723SM  H14T11654   3.184   1.867  13.403  1.8418 -0.9412  0.5356
   8723SM  C15S11655   3.140   1.862  13.615 -0.2458  0.3635 -0.1228
   8723SM  H15S11656   3.226   1.793  13.627 -1.5309 -1.5618 -1.3520
   8723SM  H15T11657   3.047   1.804  13.599 -0.5021  1.6181 -4.3474
   8723SM  C16S11658   3.134   1.959  13.737  0.4133 -0.0859  0.3545
   8723SM  H16S11659   3.036   2.010  13.745  0.3877 -0.0636 -0.0489
   8723SM  H16T11660   3.217   2.032  13.731 -0.7080  1.1052 -2.2255
   8723SM  C17S11661   3.160   1.897  13.878 -0.3714  1.0256  0.3602
   8723SM  H17S11662   3.268   1.870  13.883 -0.5324  0.0601 -0.9050
   8723SM  H17T11663   3.091   1.813  13.898  1.7436 -0.8448  0.1827
   8723SM  C18S11664   3.159   1.998  13.997  0.1807  0.4656  0.2683
   8723SM  H18S11665   3.052   2.027  14.007  0.0895 -0.1952  1.4124
   8723SM  H18T11666   3.225   2.085  13.978  3.1049 -1.7505 -0.3879
   8723SM  H18U11667   3.185   1.935  14.085  0.2952  0.2416  0.0739
   8723SM   C1F11668   3.667   2.437  12.412 -0.0924  0.9236 -0.3136
   8723SM    OF11669   3.687   2.552  12.387  0.6157  0.7506  0.0783
   8723SM   C2F11670   3.782   2.349  12.445  0.2112 -0.4406  0.2192
   8723SM   H2F11671   3.858   2.366  12.366  0.0119  1.0754  0.3253
   8723SM   H2G11672   3.761   2.240  12.446 -0.3478 -0.3604  2.0823
   8723SM   C3F11673   3.846   2.392  12.581 -0.3311  0.3602 -1.1748
   8723SM   H3F11674   3.776   2.384  12.667  0.3598  1.9238 -0.4406
   8723SM   H3G11675   3.880   2.498  12.583 -1.4058  0.7118 -0.7715
   8723SM   C4F11676   3.976   2.316  12.612  0.3283  0.1977 -0.0395
   8723SM   H4F11677   4.058   2.331  12.539  0.3365  0.1396 -0.0431
   8723SM   H4G11678   3.952   2.209  12.595  0.9749  0.1841 -0.9408
   8723SM   C5F11679   4.033   2.345  12.755 -0.1076 -0.1481 -1.0124
   8723SM   H5F11680   4.064   2.452  12.751  0.2118 -0.2462 -1.1948
   8723SM   H5G11681   4.126   2.285  12.753 -0.8003 -1.3598  0.6934
   8723SM   C6F11682   3.953   2.306  12.881 -0.2656  0.1186 -0.2004
   8723SM   H6F11683   3.941   2.195  12.875  0.1621  0.1468 -2.1979
   8723SM   H6G11684   3.855   2.355  12.895  0.1241  0.9568 -0.3846
   8723SM   C7F11685   4.037   2.336  13.008 -0.4640 -0.4216 -0.3572
   8723SM   H7F11686   4.074   2.441  13.002  1.2348 -0.8803  1.2244
   8723SM   H7G11687   4.125   2.268  13.006  0.3493  0.4990  1.4189
   8723SM   C8F11688   3.957   2.327  13.136 -0.0449 -0.2286  0.8577
   8723SM   H8F11689   3.901   2.231  13.138  2.9895 -2.1536  1.4775
   8723SM   H8G11690   3.883   2.410  13.138  0.6419  0.5356 -1.8599
   8723SM   C9F11691   4.039   2.317  13.267  0.0770 -0.3211 -0.2342
   8723SM   H9F11692   4.100   2.410  13.278 -0.1560 -0.2725  0.7732
   8723SM   H9G11693   4.120   2.242  13.261  0.9988  0.7459 -3.4412
   8723SM  C10F11694   3.941   2.308  13.386 -0.0231  0.4499 -0.5882
   8723SM  H10F11695   3.887   2.211  13.383  1.0063 -0.1368 -0.4818
   8723SM  H10G11696   3.865   2.389  13.385 -1.8930 -1.2309 -0.3697
   8723SM  C11F11697   4.020   2.323  13.517  0.0193 -0.1252 -0.0563
   8723SM  H11F11698   4.061   2.424  13.533  0.0523  0.1991 -1.8993
   8723SM  H11G11699   4.105   2.252  13.504  1.4636  1.6250 -0.6023
   8723SM  C12F11700   3.921   2.298  13.644  0.0617  0.1824  0.3405
   8723SM  H12F11701   3.875   2.197  13.638 -1.2860  0.5973  2.6246
   8723SM  H12G11702   3.833   2.364  13.629  0.4208  0.2451 -1.8033
   8723SM  C13F11703   3.986   2.310  13.783 -0.6100 -0.3530 -0.8590
   8723SM  H13F11704   4.030   2.411  13.797  2.5676 -1.4656 -1.8997
   8723SM  H13G11705   4.075   2.244  13.794 -1.3150 -1.0420  1.0682
   8723SM  C14F11706   3.885   2.278  13.892 -0.2948  0.1092  0.2072
   8723SM  H14F11707   3.846   2.175  13.877 -1.0384  0.5404 -1.0029
   8723SM  H14G11708   3.796   2.344  13.879 -0.0400 -0.0856 -3.8301
   8723SM  C15F11709   3.939   2.288  14.031 -0.1435  0.0837 -0.5124
   8723SM  H15F11710   4.008   2.373  14.047  2.0130 -1.3330 -1.7112
   8723SM  H15G11711   4.008   2.203  14.055  0.9766  1.0497 -0.2245
   8723SM  C16F11712   3.834   2.288  14.146  0.2987  0.1512 -0.4077
   8723SM  H16F11713   3.746   2.224  14.127 -0.0134  1.0032 -1.9570
   8723SM  H16G11714   3.794   2.392  14.151  1.3233  0.5173  0.6005
   8723SM  C17F11715   3.903   2.260  14.284  0.5148  0.0884  1.0142
   8723SM  H17F11716   3.998   2.318  14.291 -0.0423  1.0026  1.1038
   8723SM  H17G11717   3.936   2.153  14.290  0.4107  0.0149  0.3970
   8723SM  C18F11718   3.811   2.317  14.396  0.1511  1.0120  0.0718
   8723SM  H18F11719   3.709   2.274  14.392  0.8577 -0.9761  1.4066
   8723SM  H18G11720   3.786   2.424  14.386  1.5439  1.4690  1.1376
   8723SM  C19F11721   3.872   2.281  14.536  0.1247 -0.7351 -0.8223
   8723SM  H19F11722   3.982   2.295  14.527  0.2771 -1.2450  0.1358
   8723SM  H19G11723   3.884   2.171  14.537  2.8346 -0.5225 -1.6757
   8723SM  C20F11724   3.811   2.333  14.659 -0.1078 -0.0148  0.0838
   8723SM  H20F11725   3.835   2.442  14.666  0.4593 -0.0775 -0.7835
   8723SM  H20G11726   3.863   2.286  14.745  1.3955 -1.7120 -1.6821
   8723SM  C21F11727   3.659   2.305  14.681  0.2100  0.4987  0.1049
   8723SM  H21F11728   3.646   2.195  14.688 -2.6558  0.8444  2.4009
   8723SM  H21G11729   3.605   2.339  14.590 -0.7841  3.3357  1.6395
   8723SM  C22F11730   3.592   2.363  14.799  0.8888 -0.5225 -0.0607
   8723SM  H22F11731   3.629   2.320  14.895 -0.0084 -1.5560 -0.1605
   8723SM  H22G11732   3.483   2.347  14.787  0.7479  0.7038 -0.6039
   8723SM  C23F11733   3.606   2.516  14.806  0.0330 -0.2453 -0.0799
   8723SM  H23F11734   3.545   2.558  14.888 -1.4501 -0.2880 -1.1091
   8723SM  H23G11735   3.575   2.558  14.707 -0.7837  0.1772  0.3499
   8723SM  H23H11736   3.714   2.540  14.818  0.3314 -2.1252  1.4876
   8823SM     N11737   0.881   2.691  12.351  0.2390 -0.4052 -0.6761
   8823SM   C1511738   0.978   2.692  12.470  0.4702 -0.1574 -0.3077
   8823SM  H15A11739   0.934   2.623  12.540 -1.3267  0.0830 -1.1652
   8823SM  H15B11740   0.979   2.791  12.513 -1.5488 -0.6713  1.0388
   8823SM  H15C11741   1.075   2.652  12.442  0.5820 -0.2043  0.1419
   8823SM   C1411742   0.755   2.741  12.393  0.0751 -0.3025 -0.1443
   8823SM  H14A11743   0.715   2.673  12.467  2.6984 -0.6507  1.0699
   8823SM  H14B11744   0.680   2.748  12.315 -1.2327  0.7884  1.1635
   8823SM  H14C11745   0.769   2.833  12.446  1.2751 -0.6390  0.1564
   8823SM   C1311746   0.940   2.773  12.238  0.7003 -0.3008 -0.1203
   8823SM  H13A11747   0.949   2.878  12.261  0.1670  0.0521 -1.4590
   8823SM  H13B11748   0.877   2.767  12.151 -0.9028 -0.1534  0.9971
   8823SM  H13C11749   1.033   2.731  12.202  1.1324  2.8146 -3.1043
   8823SM   C1211750   0.868   2.548  12.308  0.3880  0.1756  0.8557
   8823SM  H12A11751   0.968   2.514  12.282  0.4807  0.0467  1.3683
   8823SM  H12B11752   0.816   2.554  12.214  2.3065  1.9147 -0.2010
   8823SM   C1111753   0.798   2.436  12.393  0.0984  0.1487  0.2918
   8823SM  H11A11754   0.809   2.341  12.338  0.5265  1.1465 -1.4214
   8823SM  H11B11755   0.696   2.476  12.411 -0.3000 -0.7797  0.1341
   8823SM     P11756   0.830   2.332  12.631 -0.2708  0.1232  0.0151
   8823SM   O1311757   0.886   2.204  12.592 -0.2341 -0.3183 -0.1447
   8823SM   O1411758   0.871   2.383  12.760 -0.3532  0.0473  0.5635
   8823SM   O1111759   0.676   2.327  12.621  0.1630 -0.5483 -0.7611
   8823SM   O1211760   0.860   2.436  12.519 -0.4220  1.3385 -0.0090
   8823SM   C1S11761   0.589   2.299  12.739 -0.2152 -0.1533  1.2205
   8823SM   H1S11762   0.641   2.227  12.807 -1.3898 -1.9879  0.2719
   8823SM   H1T11763   0.498   2.245  12.704  0.9605 -1.0853 -0.5688
   8823SM    NF11764   0.458   2.381  12.938  0.1033 -0.5175  0.4723
   8823SM   HNF11765   0.369   2.425  12.931  0.0323 -0.7638 -0.2688
   8823SM   C2S11766   0.551   2.429  12.825  0.5125 -0.0254 -0.2363
   8823SM   H2S11767   0.646   2.464  12.871  1.2945 -2.2761 -0.0064
   8823SM   C3S11768   0.494   2.541  12.736 -0.4864 -0.6563  0.1874
   8823SM   H3S11769   0.399   2.512  12.686 -1.2567  0.9429  0.6342
   8823SM    O311770   0.576   2.582  12.625  0.0803  0.5547 -0.0679
   8823SM   HO311771   0.642   2.513  12.615 -2.4443 -2.3596  1.5149
   8823SM   C4S11772   0.468   2.669  12.816 -0.7087 -0.0074  0.4945
   8823SM   H4S11773   0.561   2.725  12.832  1.3286 -2.2051 -2.5247
   8823SM   C5S11774   0.344   2.722  12.830 -0.4226 -0.1665 -1.0290
   8823SM   H5S11775   0.253   2.670  12.797 -0.4247 -0.4468 -0.5774
   8823SM   C6S11776   0.302   2.857  12.893  0.6426  0.0828  0.7080
   8823SM   H6S11777   0.232   2.891  12.813  0.5311  0.9334  1.1638
   8823SM   H6T11778   0.386   2.929  12.895  0.2652  0.5672 -0.3312
   8823SM   C7S11779   0.220   2.843  13.030  0.0576  0.0762 -0.0643
   8823SM   H7S11780   0.135   2.772  13.021  0.6699 -0.6341 -0.4645
   8823SM   H7T11781   0.171   2.940  13.052  2.4836  1.7848 -1.6354
   8823SM   C8S11782   0.312   2.815  13.146  0.4430 -0.5737  0.0780
   8823SM   H8S11783   0.370   2.910  13.143 -1.1751  0.4468 -0.8451
   8823SM   H8T11784   0.381   2.729  13.134  0.2571 -0.7804  0.4755
   8823SM   C9S11785   0.255   2.817  13.284  0.5398  0.2168  0.7526
   8823SM   H9S11786   0.183   2.734  13.299 -0.0858  0.6322  0.1044
   8823SM   H9T11787   0.198   2.911  13.304 -1.3042 -0.6936 -0.0571
   8823SM  C10S11788   0.368   2.815  13.388  0.0673  0.2059  0.3538
   8823SM  H10S11789   0.445   2.892  13.363  0.7167 -1.1014 -2.0137
   8823SM  H10T11790   0.409   2.712  13.373 -1.4816 -0.5206  0.9413
   8823SM  C11S11791   0.304   2.825  13.526  0.0558  0.2136  0.3563
   8823SM  H11S11792   0.252   2.728  13.544 -0.0478  0.3079  0.5675
   8823SM  H11T11793   0.241   2.914  13.548 -1.6447 -0.2616 -2.2431
   8823SM  C12S11794   0.415   2.834  13.636 -0.3295 -0.4575 -0.3761
   8823SM  H12S11795   0.474   2.926  13.617 -0.0988 -0.2454  1.2204
   8823SM  H12T11796   0.486   2.749  13.634  1.1671  0.7575 -0.3224
   8823SM  C13S11797   0.366   2.859  13.778  0.9033  0.0110  0.0257
   8823SM  H13S11798   0.274   2.802  13.800  1.6354 -1.2510 -0.1035
   8823SM  H13T11799   0.327   2.963  13.776  1.3623  0.1885  0.1465
   8823SM  C14S11800   0.464   2.842  13.893 -0.4010  0.2435 -0.1356
   8823SM  H14S11801   0.554   2.907  13.888  1.6266 -2.3855 -0.0183
   8823SM  H14T11802   0.491   2.734  13.893 -0.9842  0.0383 -2.8780
   8823SM  C15S11803   0.399   2.875  14.027  0.4946 -0.0328  0.5102
   8823SM  H15S11804   0.298   2.829  14.028  0.3741  0.2252  0.4454
   8823SM  H15T11805   0.405   2.986  14.033 -1.2114  0.0744  0.7405
   8823SM  C16S11806   0.476   2.827  14.149 -0.1935  0.3498  0.4290
   8823SM  H16S11807   0.584   2.854  14.146  0.0482 -0.5557 -1.9412
   8823SM  H16T11808   0.472   2.717  14.133  1.4944  0.4650 -1.0994
   8823SM  C17S11809   0.411   2.861  14.279 -0.2845  0.8482 -0.7342
   8823SM  H17S11810   0.365   2.961  14.266  0.1364  1.2090  0.4157
   8823SM  H17T11811   0.492   2.849  14.355  1.4571  3.0557 -2.1016
   8823SM  C18S11812   0.288   2.770  14.304  0.3123 -0.0178  0.1334
   8823SM  H18S11813   0.315   2.663  14.319 -1.8503 -0.9153 -1.7627
   8823SM  H18T11814   0.217   2.766  14.220 -0.5959 -1.2606  0.9320
   8823SM  H18U11815   0.238   2.801  14.398 -0.2752  0.1289 -0.2240
   8823SM   C1F11816   0.494   2.302  13.039  0.3613 -0.2412 -0.0610
   8823SM    OF11817   0.613   2.282  13.057 -0.1410  0.2439 -0.0968
   8823SM   C2F11818   0.391   2.236  13.125  0.0389  0.0698 -0.0363
   8823SM   H2F11819   0.375   2.131  13.091 -1.0994  0.7700 -1.8099
   8823SM   H2G11820   0.293   2.286  13.111 -0.2621 -0.6020 -0.3920
   8823SM   C3F11821   0.425   2.254  13.279  0.5924  0.3444  0.5250
   8823SM   H3F11822   0.517   2.202  13.311  0.9904  0.9343  0.3648
   8823SM   H3G11823   0.341   2.200  13.328  2.0998 -1.5270  1.1562
   8823SM   C4F11824   0.429   2.400  13.324  0.0407 -0.0599 -0.2410
   8823SM   H4F11825   0.351   2.472  13.291  0.0018 -0.5490 -1.2552
   8823SM   H4G11826   0.514   2.452  13.276 -1.8336  1.1681 -2.4407
   8823SM   C5F11827   0.458   2.414  13.474 -0.2721  0.4105  0.3984
   8823SM   H5F11828   0.477   2.522  13.491 -1.9993  0.9289 -0.6815
   8823SM   H5G11829   0.541   2.357  13.521 -0.5902  0.0516  0.5301
   8823SM   C6F11830   0.340   2.384  13.566  0.4745 -0.1068  0.8714
   8823SM   H6F11831   0.333   2.277  13.596 -0.7387  0.1298  1.5154
   8823SM   H6G11832   0.246   2.408  13.512  0.2450 -2.0170  0.3302
   8823SM   C7F11833   0.341   2.454  13.703  0.0375 -0.3627 -0.2296
   8823SM   H7F11834   0.306   2.559  13.693 -0.3037 -0.4428  0.0759
   8823SM   H7G11835   0.445   2.444  13.742  0.2536 -0.6782 -0.8712
   8823SM   C8F11836   0.246   2.392  13.808 -0.4183  0.1245 -0.5601
   8823SM   H8F11837   0.287   2.289  13.816  1.4759  0.8939 -0.0329
   8823SM   H8G11838   0.148   2.393  13.754 -2.3639 -0.9076  2.6694
   8823SM   C9F11839   0.243   2.459  13.952 -0.1666 -0.1004 -0.4015
   8823SM   H9F11840   0.189   2.553  13.930 -2.0341 -1.4143 -1.7903
   8823SM   H9G11841   0.350   2.474  13.980 -0.4241  0.1420  0.4773
   8823SM  C10F11842   0.161   2.373  14.054 -0.2188 -0.0124  0.1360
   8823SM  H10F11843   0.214   2.276  14.057 -0.1926 -0.0757 -1.4318
   8823SM  H10G11844   0.064   2.345  14.008  0.7595 -2.2870 -0.6409
   8823SM  C11F11845   0.147   2.442  14.186  0.1279 -0.2405 -0.0226
   8823SM  H11F11846   0.040   2.464  14.204 -0.0146  0.6965 -1.7722
   8823SM  H11G11847   0.201   2.539  14.177  0.7447 -0.4878  0.8092
   8823SM  C12F11848   0.195   2.360  14.312 -0.3125  0.2284  0.3772
   8823SM  H12F11849   0.207   2.427  14.399  3.1566  0.4599 -0.1553
   8823SM  H12G11850   0.299   2.330  14.286 -0.0431  1.5720 -0.1835
   8823SM  C13F11851   0.107   2.241  14.349  0.4999  0.0264 -0.4990
   8823SM  H13F11852   0.173   2.166  14.399  0.7750  1.2307  1.0517
   8823SM  H13G11853   0.065   2.192  14.259  1.9367  0.0084 -1.1985
   8823SM  C14F11854  -0.008   2.276  14.446  0.7526  0.8802 -0.1818
   8823SM  H14F11855  -0.079   2.342  14.392  0.5112  0.7616 -0.0108
   8823SM  H14G11856   0.033   2.328  14.534  0.7123  1.6527 -0.6086
   8823SM  C15F11857  -0.090   2.151  14.492  0.0814  0.6133  0.5168
   8823SM  H15F11858  -0.018   2.073  14.527  0.4390 -0.5195 -2.4437
   8823SM  H15G11859  -0.134   2.105  14.401  2.3690  0.3173 -0.5304
   8823SM  C16F11860  -0.195   2.191  14.593  0.5353 -0.2342  0.0960
   8823SM  H16F11861  -0.271   2.111  14.576  0.3689  0.1412 -1.0730
   8823SM  H16G11862  -0.239   2.281  14.544 -1.3685 -1.0445  0.2337
   8823SM  C17F11863  -0.151   2.216  14.741 -0.3989  0.4729  0.7916
   8823SM  H17F11864  -0.239   2.244  14.803 -0.6192  0.0166  0.6911
   8823SM  H17G11865  -0.084   2.304  14.736 -1.6912  1.4248 -0.3882
   8823SM  C18F11866  -0.096   2.085  14.808 -0.3659 -0.2615  0.7001
   8823SM  H18F11867  -0.003   2.054  14.757  0.8417  0.9917  2.0454
   8823SM  H18G11868  -0.172   2.004  14.801 -2.3796  1.5637  0.1858
   8823SM  C19F11869  -0.082   2.112  14.958 -0.1745  0.5836  0.0873
   8823SM  H19F11870  -0.071   2.014  15.010  2.5695 -0.0514 -1.5086
   8823SM  H19G11871  -0.177   2.162  14.988  0.7303  2.4932 -0.1065
   8823SM  C20F11872   0.039   2.205  14.986  0.5449  0.2088 -0.1702
   8823SM  H20F11873   0.036   2.297  14.923 -1.6420  0.7347  0.6246
   8823SM  H20G11874   0.131   2.155  14.949  2.1419  1.4088  1.9496
   8823SM  C21F11875   0.060   2.246  15.134 -0.1431 -0.2500 -0.0208
   8823SM  H21F11876  -0.031   2.287  15.181  0.0910 -0.0755  0.2869
   8823SM  H21G11877   0.136   2.327  15.139 -0.1995 -0.1427 -0.8616
   8823SM  C22F11878   0.106   2.125  15.226  0.1601  0.0981 -0.3729
   8823SM  H22F11879   0.200   2.085  15.182 -0.4548 -2.6754  0.6872
   8823SM  H22G11880   0.030   2.047  15.205  1.0442 -0.3956 -1.8788
   8823SM  C23F11881   0.096   2.155  15.380 -0.0178 -0.2074  1.3323
   8823SM  H23F11882   0.095   2.064  15.443 -1.1553 -0.7383  0.5915
   8823SM  H23G11883  -0.002   2.204  15.400 -0.5175 -0.7019  0.2036
   8823SM  H23H11884   0.175   2.229  15.404  2.0192 -1.8840  0.1550
   8923SM     N11885   4.504   2.105  12.263 -0.7063 -0.4226  0.1934
   8923SM   C1511886   4.482   1.976  12.331  0.2519  0.1020  0.2638
   8923SM  H15A11887   4.427   1.984  12.423 -0.9451  1.0385 -0.5026
   8923SM  H15B11888   4.573   1.928  12.365 -0.0353  0.6982  1.9362
   8923SM  H15C11889   4.439   1.901  12.266  0.7221 -0.7060  0.8707
   8923SM   C1411890   4.608   2.090  12.155 -0.0764  0.0554 -0.2797
   8923SM  H14A11891   4.706   2.072  12.196  0.6506  3.0476 -0.5019
   8923SM  H14B11892   4.609   2.182  12.097 -2.4439  0.0380 -0.4525
   8923SM  H14C11893   4.588   2.010  12.085  2.4305  0.0114 -1.0659
   8923SM   C1311894   4.372   2.147  12.206 -0.4530  0.1689  0.3401
   8923SM  H13A11895   4.287   2.145  12.273 -1.6060  0.6657 -1.0670
   8923SM  H13B11896   4.356   2.090  12.116  0.3223 -0.4910  0.6065
   8923SM  H13C11897   4.396   2.247  12.175  0.4640 -0.4794 -1.1420
   8923SM   C1211898   4.554   2.205  12.360 -0.4414 -0.0422  0.0991
   8923SM  H12A11899   4.623   2.153  12.423  1.5999  1.5155 -0.7359
   8923SM  H12B11900   4.478   2.251  12.422  0.7201  1.9567  0.1196
   8923SM   C1111901   4.638   2.324  12.308  0.1362  0.1631 -1.0314
   8923SM  H11A11902   4.727   2.272  12.266 -1.2261 -2.8946 -0.3970
   8923SM  H11B11903   4.676   2.382  12.395  0.0723  1.6405 -1.9547
   8923SM     P11904   4.475   2.534  12.259  0.1732 -0.0252  0.0641
   8923SM   O1311905   4.487   2.635  12.147 -0.5592 -0.4420  0.2629
   8923SM   O1411906   4.343   2.503  12.321  0.3760  0.3548 -0.0236
   8923SM   O1111907   4.556   2.585  12.382  0.3510 -0.3696  0.2048
   8923SM   O1211908   4.550   2.399  12.224 -0.2766 -0.1430 -0.5106
   8923SM   C1S11909   4.558   2.723  12.421 -0.9310  0.2604  0.6675
   8923SM   H1S11910   4.493   2.789  12.358 -0.8156 -1.0626 -0.8965
   8923SM   H1T11911   4.661   2.764  12.418 -0.5959 -0.6010 -0.7633
   8923SM    NF11912   4.515   2.868  12.605 -0.1243  0.2138 -0.5656
   8923SM   HNF11913   4.608   2.895  12.629  1.2857 -2.2140 -2.6332
   8923SM   C2S11914   4.511   2.733  12.567 -0.7684  0.0356 -0.1689
   8923SM   H2S11915   4.403   2.708  12.560 -1.1328  1.6018 -0.7190
   8923SM   C3S11916   4.592   2.649  12.675 -0.5048 -0.7154  0.3293
   8923SM   H3S11917   4.686   2.702  12.702 -1.0474  1.0179 -0.9530
   8923SM    O311918   4.642   2.526  12.631 -0.3137  0.3866  0.4875
   8923SM   HO311919   4.660   2.534  12.537  0.6497 -1.7355  0.4194
   8923SM   C4S11920   4.512   2.640  12.805  0.2900 -0.4933  0.0072
   8923SM   H4S11921   4.521   2.740  12.850  0.5120  0.4753 -2.0859
   8923SM   C5S11922   4.417   2.550  12.856 -0.4859  0.6403  0.1262
   8923SM   H5S11923   4.398   2.461  12.795  2.0532  0.7480 -0.9222
   8923SM   C6S11924   4.360   2.562  13.001  0.3418  0.0266  0.3029
   8923SM   H6S11925   4.312   2.463  13.021 -0.9583  0.6442  0.3614
   8923SM   H6T11926   4.275   2.634  12.996  0.2300 -0.1735 -2.8422
   8923SM   C7S11927   4.460   2.603  13.107  0.5277  0.1473 -0.2811
   8923SM   H7S11928   4.470   2.713  13.113  0.0550  0.1541  0.4246
   8923SM   H7T11929   4.559   2.566  13.073 -0.5789 -1.0112 -2.4520
   8923SM   C8S11930   4.421   2.536  13.242 -0.1542  0.1496 -0.8174
   8923SM   H8S11931   4.439   2.427  13.235 -0.8751 -0.0183 -0.2095
   8923SM   H8T11932   4.318   2.559  13.278 -0.1373 -1.1285  0.1027
   8923SM   C9S11933   4.509   2.585  13.360 -0.2747 -0.5399  0.0271
   8923SM   H9S11934   4.485   2.691  13.381  0.7473 -0.4230  0.6581
   8923SM   H9T11935   4.618   2.577  13.340 -0.0537 -1.9067  1.5738
   8923SM  C10S11936   4.502   2.488  13.480 -0.3160  0.3027 -0.1568
   8923SM  H10S11937   4.588   2.498  13.549 -1.4737 -2.9598  1.9934
   8923SM  H10T11938   4.517   2.385  13.443 -0.5712  0.3141 -0.2991
   8923SM  C11S11939   4.365   2.496  13.557 -0.0404  0.0083 -0.1430
   8923SM  H11S11940   4.292   2.458  13.481  1.7132 -0.8843 -1.4465
   8923SM  H11T11941   4.344   2.596  13.600 -0.3769  0.5304 -1.4797
   8923SM  C12S11942   4.355   2.400  13.683  0.3216 -0.6542  0.0400
   8923SM  H12S11943   4.339   2.297  13.645 -1.7680  0.0747 -1.2197
   8923SM  H12T11944   4.260   2.428  13.734 -0.1577 -1.1552 -0.5689
   8923SM  C13S11945   4.479   2.418  13.768  0.0769  0.2440 -0.6396
   8923SM  H13S11946   4.491   2.525  13.796  2.3946  0.4830 -2.3185
   8923SM  H13T11947   4.567   2.373  13.718  0.0555 -1.1099  0.4853
   8923SM  C14S11948   4.470   2.340  13.905 -0.3937 -0.3556  0.3519
   8923SM  H14S11949   4.571   2.339  13.951 -1.5236  0.2350  3.0507
   8923SM  H14T11950   4.434   2.236  13.885  0.3779 -0.5516 -0.0639
   8923SM  C15S11951   4.362   2.403  13.991 -0.1752 -0.4733  0.1883
   8923SM  H15S11952   4.260   2.364  13.975 -1.6221  0.8816  4.7164
   8923SM  H15T11953   4.357   2.512  13.971 -1.3868 -0.8565 -1.8603
   8923SM  C16S11954   4.388   2.368  14.141  0.2516 -0.2660  0.6233
   8923SM  H16S11955   4.489   2.401  14.170  0.2501  0.9198 -0.6259
   8923SM  H16T11956   4.378   2.257  14.144 -1.3940 -0.1964 -0.6285
   8923SM  C17S11957   4.298   2.437  14.232  0.0548 -0.1067  0.8929
   8923SM  H17S11958   4.192   2.432  14.202 -0.0648  3.2431  0.3100
   8923SM  H17T11959   4.323   2.545  14.241  1.6870 -0.4276  0.5378
   8923SM  C18S11960   4.312   2.377  14.370 -0.1874  0.5109  0.2462
   8923SM  H18S11961   4.420   2.378  14.395  0.4656 -1.9553 -1.9639
   8923SM  H18T11962   4.273   2.273  14.377  0.3891  0.3901  2.5115
   8923SM  H18U11963   4.255   2.439  14.442 -1.9996  0.4680 -1.0933
   8923SM   C1F11964   4.421   2.960  12.572 -0.4730 -0.2160 -0.0607
   8923SM    OF11965   4.312   2.932  12.516  0.2781 -0.5551  0.0255
   8923SM   C2F11966   4.459   3.103  12.601 -0.5258  0.0475  0.4488
   8923SM   H2F11967   4.461   3.163  12.508  1.0792  0.3754  0.6670
   8923SM   H2G11968   4.566   3.108  12.629 -0.7962 -1.5961  1.9587
   8923SM   C3F11969   4.363   3.170  12.713  0.5364  0.0354 -0.2839
   8923SM   H3F11970   4.261   3.181  12.672 -0.4713 -0.3251  1.9814
   8923SM   H3G11971   4.404   3.273  12.728  0.9065  0.1922 -2.1024
   8923SM   C4F11972   4.363   3.103  12.849 -0.1078  0.2997  0.4447
   8923SM   H4F11973   4.322   3.004  12.817 -0.5104  1.0972 -1.6799
   8923SM   H4G11974   4.295   3.161  12.915 -1.9671  0.4746 -1.4966
   8923SM   C5F11975   4.504   3.090  12.900 -0.0168  0.0984 -0.4027
   8923SM   H5F11976   4.542   3.194  12.899  1.5290 -0.4083 -2.1422
   8923SM   H5G11977   4.563   3.028  12.828 -0.4882 -3.7460  2.2265
   8923SM   C6F11978   4.508   3.007  13.031 -0.2422 -0.2673 -0.3868
   8923SM   H6F11979   4.608   2.987  13.076 -0.1641 -0.6419 -0.7230
   8923SM   H6G11980   4.453   2.915  13.002 -2.8601  1.6380 -1.8980
   8923SM   C7F11981   4.437   3.073  13.155 -0.0887 -1.2746 -0.1803
   8923SM   H7F11982   4.327   3.077  13.138 -0.1864  0.2561  0.6568
   8923SM   H7G11983   4.474   3.175  13.175 -1.7182 -0.3403 -1.7164
   8923SM   C8F11984   4.464   2.985  13.274  0.8391  0.1863  0.0162
   8923SM   H8F11985   4.573   2.974  13.291  1.4394 -0.1824 -3.3613
   8923SM   H8G11986   4.426   2.884  13.248 -0.1467  0.3688  0.6668
   8923SM   C9F11987   4.380   3.024  13.398  0.1017  0.0262 -0.9196
   8923SM   H9F11988   4.274   2.994  13.383 -0.5635  0.5306  2.0767
   8923SM   H9G11989   4.402   3.130  13.419  3.0700 -0.3844 -1.5809
   8923SM  C10F11990   4.425   2.940  13.515  0.6741 -0.2435 -0.9318
   8923SM  H10F11991   4.534   2.940  13.537  0.8215  1.2185 -1.5460
   8923SM  H10G11992   4.401   2.832  13.505  0.7377 -0.2127 -1.4621
   8923SM  C11F11993   4.350   2.988  13.642 -0.0073 -0.2791  0.3088
   8923SM  H11F11994   4.245   2.957  13.622 -1.3052  3.4892  0.4014
   8923SM  H11G11995   4.353   3.099  13.643 -0.8727 -0.2393 -0.4893
   8923SM  C12F11996   4.411   2.917  13.765 -0.0199 -0.3595 -0.1670
   8923SM  H12F11997   4.510   2.965  13.776 -0.2942  0.1201  0.2420
   8923SM  H12G11998   4.426   2.808  13.753  1.5511 -0.3443  1.2469
   8923SM  C13F11999   4.333   2.938  13.894 -0.2233  0.0966 -0.2073
   8923SM  H13F12000   4.234   2.888  13.900 -0.4468  0.6011  0.3703
   8923SM  H13G12001   4.314   3.047  13.899  0.2266  0.3487 -2.7647
   8923SM  C14F12002   4.405   2.900  14.025 -0.5475  0.6892  0.4534
   8923SM  H14F12003   4.498   2.959  14.018 -0.6249  0.7253 -0.4497
   8923SM  H14G12004   4.431   2.792  14.027  1.0697  1.0408 -0.4557
   8923SM  C15F12005   4.322   2.942  14.143  0.0106 -0.2604 -0.4753
   8923SM  H15F12006   4.228   2.882  14.136 -1.7195  2.0960  1.0067
   8923SM  H15G12007   4.300   3.051  14.137  0.3483 -0.1723 -0.0830
   8923SM  C16F12008   4.395   2.918  14.277  0.0164 -0.0784  0.1409
   8923SM  H16F12009   4.488   2.977  14.283  0.1636 -0.4227  1.6155
   8923SM  H16G12010   4.430   2.814  14.265  0.4243  0.2372 -1.6846
   8923SM  C17F12011   4.320   2.945  14.399  0.3359  0.1779 -0.9587
   8923SM  H17F12012   4.231   2.879  14.407 -0.3459  1.2493  1.0692
   8923SM  H17G12013   4.275   3.045  14.385  1.9574  1.2986  1.2205
   8923SM  C18F12014   4.403   2.937  14.531  0.7386  0.1489  0.4640
   8923SM  H18F12015   4.502   2.971  14.495  0.7333  0.2007  0.4972
   8923SM  H18G12016   4.406   2.830  14.560 -0.6215 -0.1760 -0.5023
   8923SM  C19F12017   4.360   3.028  14.645  1.3285  0.7519  0.6038
   8923SM  H19F12018   4.375   3.135  14.619  0.0502  1.1226  1.2940
   8923SM  H19G12019   4.419   3.002  14.736  0.0962 -0.4523  1.0833
   8923SM  C20F12020   4.216   3.010  14.687  0.3871 -0.5870  0.3090
   8923SM  H20F12021   4.193   2.906  14.719 -0.8334 -0.9399 -1.5250
   8923SM  H20G12022   4.156   3.044  14.599  1.5443  0.7807  0.0147
   8923SM  C21F12023   4.178   3.113  14.798 -0.7773 -0.5080  0.0315
   8923SM  H21F12024   4.070   3.104  14.821 -1.9925  1.6649 -3.8997
   8923SM  H21G12025   4.187   3.211  14.747 -2.8710 -1.8153 -3.1462
   8923SM  C22F12026   4.258   3.107  14.928  0.3990  0.5027 -0.0468
   8923SM  H22F12027   4.367   3.124  14.915  1.0775 -3.1721 -0.1236
   8923SM  H22G12028   4.260   3.002  14.965  1.3498 -0.1208 -1.7815
   8923SM  C23F12029   4.209   3.201  15.045  0.8238 -0.2180  1.0602
   8923SM  H23F12030   4.105   3.172  15.073  0.1682  1.0256  0.0363
   8923SM  H23G12031   4.213   3.308  15.016  0.6422 -0.7431 -1.0471
   8923SM  H23H12032   4.280   3.194  15.130  0.2004 -1.0640  1.5191
   9023SM     N12033   5.666   2.787  12.183  0.0558 -0.1668  0.3908
   9023SM   C1512034   5.596   2.725  12.063 -0.5570 -0.1237  0.2961
   9023SM  H15A12035   5.503   2.774  12.038 -0.5904 -0.6894 -0.7148
   9023SM  H15B12036   5.580   2.624  12.096  1.0522 -0.7017 -0.5995
   9023SM  H15C12037   5.656   2.726  11.973 -3.6072  1.2353 -1.9067
   9023SM   C1412038   5.787   2.705  12.205 -0.1632  0.0950  1.2287
   9023SM  H14A12039   5.761   2.600  12.212 -0.7819  0.0871 -0.5108
   9023SM  H14B12040   5.859   2.734  12.280  2.9347 -0.6481 -1.2131
   9023SM  H14C12041   5.846   2.710  12.114 -0.7448  0.5954  0.8774
   9023SM   C1312042   5.711   2.930  12.155 -0.5816 -0.0517  0.4448
   9023SM  H13A12043   5.775   2.929  12.068 -1.2590  3.2250 -0.2414
   9023SM  H13B12044   5.766   2.978  12.235 -0.8361 -0.1747  0.6931
   9023SM  H13C12045   5.624   2.981  12.117 -0.6323 -0.3120  0.2096
   9023SM   C1212046   5.577   2.783  12.313 -1.1352  0.2815  0.4646
   9023SM  H12A12047   5.489   2.843  12.299 -1.1367 -0.2714 -2.4836
   9023SM  H12B12048   5.632   2.817  12.400 -0.1353 -0.0512 -0.0123
   9023SM   C1112049   5.529   2.643  12.353 -1.3040  0.4174 -0.2854
   9023SM  H11A12050   5.493   2.581  12.268 -0.9226 -2.5467  1.5778
   9023SM  H11B12051   5.434   2.653  12.410 -1.2996 -1.0895  0.0211
   9023SM     P12052   5.672   2.614  12.562  0.3306 -0.0862  0.3388
   9023SM   O1312053   5.788   2.535  12.607 -0.0507  0.5500  0.6391
   9023SM   O1412054   5.689   2.759  12.562 -0.3080  0.2473 -0.6803
   9023SM   O1112055   5.566   2.584  12.661 -0.0978  0.2744  0.0187
   9023SM   O1212056   5.630   2.567  12.419  0.5537 -0.2514 -0.3311
   9023SM   C1S12057   5.520   2.457  12.694 -0.1153  0.1951  0.4456
   9023SM   H1S12058   5.593   2.374  12.701  0.2075  0.4142 -0.3208
   9023SM   H1T12059   5.439   2.427  12.624  0.5208  1.6718 -0.9892
   9023SM    NF12060   5.456   2.314  12.906  0.1701 -0.2875  0.0723
   9023SM   HNF12061   5.360   2.285  12.913  0.4625 -0.8046  3.5246
   9023SM   C2S12062   5.465   2.449  12.846 -0.0931  0.1522 -0.4158
   9023SM   H2S12063   5.537   2.504  12.909 -0.2540  0.7434 -0.7377
   9023SM   C3S12064   5.338   2.534  12.865  0.1535 -0.0279  0.0432
   9023SM   H3S12065   5.262   2.477  12.808  1.6938 -1.8373 -0.2739
   9023SM    O312066   5.336   2.661  12.799  0.1226 -0.2004 -0.3920
   9023SM   HO312067   5.400   2.662  12.728 -0.5849  0.8789 -1.0422
   9023SM   C4S12068   5.300   2.556  13.016 -0.1604 -0.7607  0.1487
   9023SM   H4S12069   5.363   2.633  13.064 -0.3755  0.5747 -1.6254
   9023SM   C5S12070   5.211   2.492  13.091  0.0564 -0.6533  0.0378
   9023SM   H5S12071   5.159   2.406  13.047  3.0269 -1.8925 -1.3576
   9023SM   C6S12072   5.178   2.528  13.227  0.6448  0.1641 -1.0058
   9023SM   H6S12073   5.069   2.512  13.242  0.8986  0.1830  1.1771
   9023SM   H6T12074   5.198   2.638  13.233 -1.0499  0.4391  0.7452
   9023SM   C7S12075   5.250   2.469  13.355 -0.2920 -0.0391 -0.4843
   9023SM   H7S12076   5.358   2.457  13.333  0.0650 -2.1573  1.9271
   9023SM   H7T12077   5.218   2.363  13.368  0.5538 -0.3296 -0.6925
   9023SM   C8S12078   5.221   2.539  13.494 -0.5465  0.1094  0.1289
   9023SM   H8S12079   5.118   2.579  13.497 -0.1921  1.0483  0.0617
   9023SM   H8T12080   5.279   2.631  13.514 -0.4590 -0.3053  2.0019
   9023SM   C9S12081   5.237   2.443  13.613  0.9716 -0.1208  0.5193
   9023SM   H9S12082   5.342   2.407  13.609  0.8235 -0.4771 -0.7034
   9023SM   H9T12083   5.173   2.354  13.591  2.4391 -1.4013  1.2384
   9023SM  C10S12084   5.195   2.489  13.749  0.9104 -0.6597  0.2944
   9023SM  H10S12085   5.084   2.495  13.749  0.8910 -0.6205 -0.8405
   9023SM  H10T12086   5.236   2.592  13.761  0.5459 -0.4332 -0.3130
   9023SM  C11S12087   5.252   2.398  13.858  0.4863  0.3804  0.5392
   9023SM  H11S12088   5.362   2.386  13.864  0.4915  0.4931  0.6751
   9023SM  H11T12089   5.203   2.299  13.843  0.7735  0.6220 -2.5563
   9023SM  C12S12090   5.213   2.464  13.991  0.0321  0.5420  0.0330
   9023SM  H12S12091   5.103   2.478  13.995  0.2033  1.9526  0.0785
   9023SM  H12T12092   5.245   2.570  13.994 -0.2669  0.6486 -0.4770
   9023SM  C13S12093   5.245   2.386  14.115 -0.0473 -0.8884  0.3556
   9023SM  H13S12094   5.353   2.398  14.140  0.4806  0.2099 -2.1233
   9023SM  H13T12095   5.233   2.276  14.101 -1.6679 -0.6987  0.0713
   9023SM  C14S12096   5.152   2.441  14.240 -0.6402 -0.4838 -0.1985
   9023SM  H14S12097   5.052   2.399  14.216 -0.9138  0.7224 -1.2986
   9023SM  H14T12098   5.156   2.552  14.236  0.8160 -0.5190 -0.5656
   9023SM  C15S12099   5.203   2.404  14.385 -0.6921  0.7352  0.6209
   9023SM  H15S12100   5.313   2.414  14.384 -0.6290  0.6824  2.6752
   9023SM  H15T12101   5.189   2.294  14.391 -1.9934  0.7158 -1.7404
   9023SM  C16S12102   5.135   2.498  14.487  0.2351  0.1021 -0.2432
   9023SM  H16S12103   5.029   2.467  14.504 -0.2865  0.1937 -2.8662
   9023SM  H16T12104   5.122   2.597  14.439 -3.5449 -0.3161 -0.4389
   9023SM  C17S12105   5.215   2.514  14.614 -0.1493 -0.3750 -0.1725
   9023SM  H17S12106   5.322   2.493  14.592 -0.3720 -0.2172 -1.5079
   9023SM  H17T12107   5.185   2.445  14.696  2.3698  0.1595  1.3090
   9023SM  C18S12108   5.206   2.662  14.670 -1.1820 -0.1786  0.0758
   9023SM  H18S12109   5.106   2.691  14.707 -2.9163 -2.1977 -2.6426
   9023SM  H18T12110   5.237   2.736  14.593 -1.1035 -0.4613 -0.1682
   9023SM  H18U12111   5.279   2.669  14.754 -0.6526  1.2002 -0.4580
   9023SM   C1F12112   5.559   2.241  12.922  0.0684 -0.4093 -0.5919
   9023SM    OF12113   5.668   2.287  12.896  0.4797  0.1457  0.4052
   9023SM   C2F12114   5.541   2.105  12.981  0.2623  0.9257 -0.1745
   9023SM   H2F12115   5.577   2.034  12.903 -2.3598  0.5149 -1.1260
   9023SM   H2G12116   5.432   2.087  12.991  0.4919 -0.2297  0.3861
   9023SM   C3F12117   5.620   2.076  13.114 -0.0174 -0.7019 -0.5232
   9023SM   H3F12118   5.728   2.100  13.097 -0.1512  0.3264  0.0209
   9023SM   H3G12119   5.603   1.970  13.142 -0.2893 -0.1428  1.5269
   9023SM   C4F12120   5.577   2.153  13.240 -0.7550 -0.6533 -0.3850
   9023SM   H4F12121   5.472   2.163  13.272 -0.2466  1.3867  0.8465
   9023SM   H4G12122   5.607   2.258  13.221  0.3382 -0.2755  2.7825
   9023SM   C5F12123   5.662   2.118  13.373 -0.4085  0.0384 -0.2956
   9023SM   H5F12124   5.769   2.142  13.356  0.0856 -1.4454  0.5309
   9023SM   H5G12125   5.653   2.007  13.375  1.0269 -0.0973  1.5696
   9023SM   C6F12126   5.605   2.199  13.491 -0.0454  0.1265 -0.3765
   9023SM   H6F12127   5.502   2.170  13.520  1.1241 -1.4348  2.6183
   9023SM   H6G12128   5.593   2.305  13.460  0.4782  2.2466  5.4642
   9023SM   C7F12129   5.695   2.195  13.609  0.0035 -0.4938 -0.5470
   9023SM   H7F12130   5.792   2.246  13.592  0.7299 -1.4715  0.4651
   9023SM   H7G12131   5.719   2.092  13.644  1.8646  0.4828  1.3520
   9023SM   C8F12132   5.616   2.252  13.734  0.2992  0.3993  0.2907
   9023SM   H8F12133   5.511   2.214  13.734  0.0005  1.1922  0.6592
   9023SM   H8G12134   5.615   2.363  13.737 -0.7655  0.4504 -0.7672
   9023SM   C9F12135   5.667   2.200  13.866 -0.6355  0.3274  0.5765
   9023SM   H9F12136   5.775   2.228  13.867 -1.1907  2.6390  1.9480
   9023SM   H9G12137   5.666   2.089  13.871  0.5084  0.1524 -1.7341
   9023SM  C10F12138   5.602   2.266  13.991 -0.1400  0.4092  0.5900
   9023SM  H10F12139   5.493   2.246  13.999 -0.5336  1.8672 -0.5535
   9023SM  H10G12140   5.619   2.375  13.977  1.3262  0.0542 -0.6784
   9023SM  C11F12141   5.666   2.208  14.117  0.2381 -0.9584 -0.3485
   9023SM  H11F12142   5.773   2.237  14.125 -0.3223  1.3968 -0.8365
   9023SM  H11G12143   5.674   2.097  14.113 -1.2139 -1.1146  0.3057
   9023SM  C12F12144   5.588   2.263  14.245 -0.1115  0.3802  0.5886
   9023SM  H12F12145   5.486   2.220  14.238  0.1758 -0.2205 -0.0220
   9023SM  H12G12146   5.579   2.373  14.232 -0.4273  0.1817 -1.1531
   9023SM  C13F12147   5.665   2.223  14.369 -0.0585 -0.4321  0.9104
   9023SM  H13F12148   5.770   2.259  14.380  0.5973 -1.5054 -1.3342
   9023SM  H13G12149   5.681   2.113  14.375  3.5889 -0.1931 -1.1345
   9023SM  C14F12150   5.585   2.272  14.487  0.1402  0.5830 -0.7528
   9023SM  H14F12151   5.489   2.216  14.489  0.8846 -0.8534 -2.4491
   9023SM  H14G12152   5.557   2.380  14.477 -2.7432  0.6659  4.4874
   9023SM  C15F12153   5.668   2.274  14.623  0.2051 -0.3913  0.6113
   9023SM  H15F12154   5.767   2.323  14.620  0.4057 -0.6459  2.0192
   9023SM  H15G12155   5.708   2.175  14.654 -0.3892 -0.5617  0.8556
   9023SM  C16F12156   5.595   2.358  14.727  0.5701  0.3097 -0.6037
   9023SM  H16F12157   5.560   2.458  14.694  0.1319  0.3020 -0.1779
   9023SM  H16G12158   5.676   2.364  14.802  1.3345 -2.1904 -1.1223
   9023SM  C17F12159   5.479   2.274  14.787 -0.7460 -0.3374  0.0790
   9023SM  H17F12160   5.512   2.170  14.810  0.0139 -0.4459 -1.4067
   9023SM  H17G12161   5.409   2.258  14.703 -1.5923  0.0544  0.6977
   9023SM  C18F12162   5.425   2.345  14.913  0.2260  0.1001 -0.8389
   9023SM  H18F12163   5.394   2.451  14.902 -1.1228  0.1377  2.3152
   9023SM  H18G12164   5.524   2.357  14.960  0.3674 -0.5304 -0.9580
   9023SM  C19F12165   5.325   2.267  15.002  0.1154 -0.3441  0.0399
   9023SM  H19F12166   5.362   2.163  15.017  2.2811  0.6362  2.2478
   9023SM  H19G12167   5.224   2.275  14.956 -0.8894  0.4985  2.2456
   9023SM  C20F12168   5.306   2.331  15.144 -0.2921  0.1651  0.1888
   9023SM  H20F12169   5.251   2.426  15.128 -0.2731  0.1846  0.2429
   9023SM  H20G12170   5.406   2.360  15.180 -1.0338  3.4301 -0.0820
   9023SM  C21F12171   5.219   2.258  15.241 -0.5029  0.2946 -0.6133
   9023SM  H21F12172   5.153   2.191  15.181 -0.7443 -1.2135  1.2471
   9023SM  H21G12173   5.145   2.321  15.295  0.3729 -0.0471  1.0401
   9023SM  C22F12174   5.305   2.184  15.347  0.4890 -0.2515  0.2033
   9023SM  H22F12175   5.351   2.255  15.419 -1.9968  1.1924  0.4792
   9023SM  H22G12176   5.378   2.126  15.286  0.0859 -0.5779  0.0276
   9023SM  C23F12177   5.225   2.086  15.437  0.2199  1.1928 -0.1972
   9023SM  H23F12178   5.151   2.025  15.380 -0.6405  0.0937  1.9953
   9023SM  H23G12179   5.160   2.133  15.513  0.6315  0.4997  0.5995
   9023SM  H23H12180   5.300   2.015  15.479 -1.9462 -2.0545 -1.4246
   9123SM     N12181   3.777   4.076  11.892 -0.3862 -0.3782 -0.5108
   9123SM   C1512182   3.745   4.207  11.835  0.1228  0.2308  0.1688
   9123SM  H15A12183   3.644   4.232  11.865  0.4055  1.8236 -0.1079
   9123SM  H15B12184   3.751   4.196  11.728  2.4285 -1.4643  0.4057
   9123SM  H15C12185   3.805   4.286  11.877  0.9807 -0.7891  0.8962
   9123SM   C1412186   3.675   3.977  11.844 -0.5257  0.0615  1.0068
   9123SM  H14A12187   3.575   4.004  11.876 -0.3776  3.2870 -0.7965
   9123SM  H14B12188   3.700   3.875  11.868 -2.0772 -1.1884 -2.0645
   9123SM  H14C12189   3.673   3.977  11.736  1.1619  2.4388  0.8843
   9123SM   C1312190   3.906   4.020  11.848  0.0849 -0.1225 -0.3421
   9123SM  H13A12191   3.978   4.087  11.892 -1.3332  0.1379  1.6693
   9123SM  H13B12192   3.911   4.012  11.740 -2.8910 -0.7872 -0.5066
   9123SM  H13C12193   3.920   3.923  11.893 -0.1363  0.1071  0.2221
   9123SM   C1212194   3.768   4.077  12.042  0.0016  1.2440  0.1108
   9123SM  H12A12195   3.779   3.975  12.077  3.2592  1.3028 -0.4258
   9123SM  H12B12196   3.664   4.098  12.064  0.0183  0.0031  1.5384
   9123SM   C1112197   3.863   4.171  12.124  0.3626 -0.1357  1.1067
   9123SM  H11A12198   3.968   4.144  12.100  0.8588 -1.3573  4.2047
   9123SM  H11B12199   3.857   4.149  12.232  0.9105 -2.2849  0.7505
   9123SM     P12200   3.708   4.364  12.192 -0.1095 -0.1716 -0.4340
   9123SM   O1312201   3.696   4.511  12.183  0.3335 -0.1315  0.0009
   9123SM   O1412202   3.580   4.289  12.168  0.1064  0.2635  0.0060
   9123SM   O1112203   3.758   4.342  12.346 -0.2612  0.4344  0.2739
   9123SM   O1212204   3.830   4.307  12.095 -0.0781  0.1137  0.0952
   9123SM   C1S12205   3.884   4.367  12.402 -0.4080 -0.5188  0.4359
   9123SM   H1S12206   3.880   4.478  12.401 -0.6485 -0.4934 -2.0968
   9123SM   H1T12207   3.973   4.323  12.351  0.0083  2.9754 -2.1987
   9123SM    NF12208   4.002   4.352  12.634 -0.6127  0.1650 -0.1635
   9123SM   HNF12209   4.048   4.278  12.681 -1.9668 -0.2732  0.5111
   9123SM   C2S12210   3.884   4.332  12.555  0.1245  0.5260  0.6433
   9123SM   H2S12211   3.801   4.390  12.601 -1.2322  1.9004 -3.1519
   9123SM   C3S12212   3.826   4.188  12.582  1.2493 -0.0573 -0.1189
   9123SM   H3S12213   3.889   4.116  12.525 -1.2245 -0.1495 -3.0140
   9123SM    O312214   3.702   4.157  12.519  0.3724  0.1855  0.9220
   9123SM   HO312215   3.689   4.229  12.457 -0.4061 -2.1112 -1.7471
   9123SM   C4S12216   3.811   4.144  12.725 -0.0446  0.2326 -0.2717
   9123SM   H4S12217   3.880   4.064  12.756  1.0917  1.1623 -0.3203
   9123SM   C5S12218   3.720   4.186  12.810  0.8325  0.5366 -0.9166
   9123SM   H5S12219   3.650   4.269  12.791 -0.2687  0.5642  2.5166
   9123SM   C6S12220   3.720   4.130  12.952 -0.0995  0.6972 -1.0004
   9123SM   H6S12221   3.758   4.026  12.950 -1.4117  0.1903 -0.9453
   9123SM   H6T12222   3.622   4.140  13.005  1.4160  1.4496  1.8859
   9123SM   C7S12223   3.817   4.201  13.050 -0.5100 -0.2958 -0.5026
   9123SM   H7S12224   3.786   4.308  13.052 -1.2511 -0.5027  1.4262
   9123SM   H7T12225   3.921   4.194  13.012  0.5774 -0.6931  2.3358
   9123SM   C8S12226   3.828   4.152  13.198  0.4502  0.0467 -0.5210
   9123SM   H8S12227   3.918   4.198  13.243  0.5658  0.3702 -1.0765
   9123SM   H8T12228   3.840   4.041  13.201 -2.3854 -0.3386 -0.8866
   9123SM   C9S12229   3.704   4.178  13.280 -0.4435  1.0455 -0.2579
   9123SM   H9S12230   3.623   4.116  13.236  0.6303 -1.9022  1.5922
   9123SM   H9T12231   3.660   4.279  13.265  1.7599  2.0859 -0.0838
   9123SM  C10S12232   3.707   4.148  13.428 -0.4778 -0.6423 -0.0290
   9123SM  H10S12233   3.724   4.039  13.437  1.4589 -0.2830  1.2404
   9123SM  H10T12234   3.602   4.169  13.458 -1.3870 -0.6042 -2.9481
   9123SM  C11S12235   3.803   4.209  13.530  0.8034  1.4253 -0.4767
   9123SM  H11S12236   3.795   4.320  13.532  1.2057  1.4495 -0.2082
   9123SM  H11T12237   3.905   4.181  13.498  0.9161  0.1339  0.9206
   9123SM  C12S12238   3.792   4.155  13.672  0.8524 -0.8515 -0.7054
   9123SM  H12S12239   3.874   4.201  13.732  0.8350 -0.5221 -0.9364
   9123SM  H12T12240   3.809   4.046  13.684  0.7755 -0.7310  0.6730
   9123SM  C13S12241   3.655   4.194  13.734  0.2065  0.2820 -0.5885
   9123SM  H13S12242   3.578   4.153  13.664  1.1949 -0.0658 -1.5027
   9123SM  H13T12243   3.636   4.303  13.745 -1.4235  0.1092 -1.4145
   9123SM  C14S12244   3.628   4.119  13.868 -0.0099 -0.7473 -0.0311
   9123SM  H14S12245   3.610   4.010  13.852 -1.4408 -0.3587 -1.2828
   9123SM  H14T12246   3.528   4.152  13.904  0.8998  0.2481  1.6758
   9123SM  C15S12247   3.736   4.142  13.977 -0.4224 -0.1385  0.4073
   9123SM  H15S12248   3.752   4.249  14.003  1.8635 -0.7653  1.9131
   9123SM  H15T12249   3.835   4.098  13.949  0.1205  0.9686  0.5371
   9123SM  C16S12250   3.702   4.075  14.114 -0.2805  0.2443  0.8798
   9123SM  H16S12251   3.669   3.970  14.097 -0.2203  0.3133  0.3089
   9123SM  H16T12252   3.617   4.137  14.149 -0.3446  0.9291 -0.4329
   9123SM  C17S12253   3.827   4.075  14.203  0.6015  0.3225 -0.4495
   9123SM  H17S12254   3.868   4.175  14.228 -1.0173  0.8776  0.1311
   9123SM  H17T12255   3.903   4.023  14.141 -1.0198 -1.6123 -0.9248
   9123SM  C18S12256   3.798   3.991  14.332 -0.0489  0.0964  0.4351
   9123SM  H18S12257   3.749   4.044  14.417  0.2079 -0.4212  0.9167
   9123SM  H18T12258   3.896   3.946  14.362 -0.3276 -1.5789 -0.9816
   9123SM  H18U12259   3.737   3.906  14.294 -1.9188  1.0664  1.1763
   9123SM   C1F12260   4.058   4.474  12.640  0.2173  0.2874 -0.6696
   9123SM    OF12261   3.992   4.578  12.616  0.0861 -0.3944 -0.1815
   9123SM   C2F12262   4.198   4.494  12.691  0.5910  0.2698  0.4270
   9123SM   H2F12263   4.237   4.571  12.621 -4.4231  3.0864  0.2190
   9123SM   H2G12264   4.254   4.400  12.672 -2.3608 -1.5297 -0.0946
   9123SM   C3F12265   4.211   4.542  12.843 -0.3475  0.0653 -0.5244
   9123SM   H3F12266   4.152   4.636  12.853  1.0143  0.7991  1.0225
   9123SM   H3G12267   4.319   4.562  12.854 -0.2547 -0.8086  0.2469
   9123SM   C4F12268   4.182   4.440  12.956  0.0026  0.2254  0.4849
   9123SM   H4F12269   4.249   4.353  12.942  1.4472  0.5046  4.4320
   9123SM   H4G12270   4.076   4.410  12.943  0.0006 -0.0117  1.0516
   9123SM   C5F12271   4.197   4.506  13.090  0.4309  0.2760 -0.4605
   9123SM   H5F12272   4.114   4.577  13.106  0.4612  0.5918 -1.5710
   9123SM   H5G12273   4.291   4.566  13.092  0.5304  0.2002  2.9351
   9123SM   C6F12274   4.194   4.397  13.204  0.7673 -0.9921 -0.4752
   9123SM   H6F12275   4.295   4.352  13.196  1.4709  0.0468  1.8013
   9123SM   H6G12276   4.116   4.322  13.182 -0.0258 -0.4475  0.4095
   9123SM   C7F12277   4.167   4.470  13.330  0.6153  0.3019  1.1701
   9123SM   H7F12278   4.063   4.508  13.322  0.1718 -1.1979 -1.1477
   9123SM   H7G12279   4.236   4.554  13.353  1.1751  0.2055 -0.0719
   9123SM   C8F12280   4.163   4.375  13.459 -0.7303 -1.4301  0.0419
   9123SM   H8F12281   4.268   4.345  13.479 -1.2013 -2.2581  1.3978
   9123SM   H8G12282   4.106   4.282  13.440 -0.9277 -1.0327 -1.4468
   9123SM   C9F12283   4.099   4.449  13.572  0.3525 -0.2313  0.0962
   9123SM   H9F12284   4.001   4.482  13.531  0.7466  1.6867  0.6038
   9123SM   H9G12285   4.148   4.546  13.594 -0.7354 -0.0571  1.9925
   9123SM  C10F12286   4.102   4.387  13.711 -0.1213  0.2512  1.1421
   9123SM  H10F12287   4.211   4.383  13.728  0.7049 -0.8427 -3.1404
   9123SM  H10G12288   4.062   4.283  13.715 -0.8554  0.3943 -1.0840
   9123SM  C11F12289   4.049   4.473  13.820  0.7311  0.2023 -0.4075
   9123SM  H11F12290   3.942   4.488  13.795  0.5408  0.9660  0.8220
   9123SM  H11G12291   4.090   4.576  13.820 -0.3368  0.6473  0.2336
   9123SM  C12F12292   4.067   4.414  13.961  0.2040  0.4529  0.0669
   9123SM  H12F12293   4.175   4.387  13.960  0.2886  0.6599  1.4933
   9123SM  H12G12294   4.008   4.321  13.973  0.7419 -0.3364 -2.5611
   9123SM  C13F12295   4.042   4.508  14.067  0.3071  0.1029 -0.0906
   9123SM  H13F12296   4.094   4.605  14.065  0.4681  0.0113 -0.4413
   9123SM  H13G12297   4.090   4.459  14.155  0.8891 -1.8900 -1.4428
   9123SM  C14F12298   3.897   4.517  14.112 -0.2622 -0.5864  0.8154
   9123SM  H14F12299   3.857   4.419  14.146  0.5295 -1.6057 -1.0125
   9123SM  H14G12300   3.829   4.538  14.027  0.5139 -0.0618  0.3165
   9123SM  C15F12301   3.865   4.622  14.220 -0.1716 -0.6351 -0.6720
   9123SM  H15F12302   3.755   4.630  14.233 -0.3666 -3.8670  0.7861
   9123SM  H15G12303   3.905   4.724  14.201  0.0941 -0.5668  0.2090
   9123SM  C16F12304   3.916   4.577  14.356 -0.2086  0.4549  0.1028
   9123SM  H16F12305   3.929   4.669  14.416  0.4549  1.0303 -0.8969
   9123SM  H16G12306   4.012   4.523  14.350 -1.2000 -1.5750  1.4203
   9123SM  C17F12307   3.816   4.477  14.426 -0.6363  0.2644 -0.3264
   9123SM  H17F12308   3.799   4.384  14.368 -2.9218 -0.7829  1.8112
   9123SM  H17G12309   3.724   4.538  14.437 -1.2671 -0.7875  0.4365
   9123SM  C18F12310   3.853   4.443  14.569 -0.1411  0.5444  0.4991
   9123SM  H18F12311   3.828   4.525  14.640 -2.1442  0.5571 -0.1625
   9123SM  H18G12312   3.964   4.442  14.573 -0.0964 -0.4883 -0.5362
   9123SM  C19F12313   3.797   4.307  14.625  1.0318 -0.2561  0.0379
   9123SM  H19F12314   3.838   4.223  14.564 -0.0622 -0.6440 -0.1908
   9123SM  H19G12315   3.687   4.293  14.615  1.2240 -1.0839 -1.2050
   9123SM  C20F12316   3.849   4.297  14.769  0.4220  0.2012  0.0374
   9123SM  H20F12317   3.957   4.318  14.783  0.3841  0.3949  0.0455
   9123SM  H20G12318   3.847   4.188  14.790  0.1643  0.1207 -0.3974
   9123SM  C21F12319   3.770   4.375  14.872  0.4349  0.0343  0.3157
   9123SM  H21F12320   3.662   4.346  14.874  0.0126  1.5252  0.8180
   9123SM  H21G12321   3.776   4.483  14.847 -2.3727  0.0331 -0.7913
   9123SM  C22F12322   3.818   4.357  15.016 -0.0875 -0.1683  1.1196
   9123SM  H22F12323   3.927   4.375  15.025  0.2210  0.0679 -1.9908
   9123SM  H22G12324   3.799   4.249  15.035  0.5505 -0.4970 -0.0076
   9123SM  C23F12325   3.744   4.428  15.129 -0.2650 -0.1603  0.9450
   9123SM  H23F12326   3.635   4.421  15.113 -0.3017 -0.1410  1.1815
   9123SM  H23G12327   3.769   4.537  15.133  1.2165 -0.5095  2.6417
   9123SM  H23H12328   3.760   4.377  15.226 -0.2271 -3.2320 -0.5522
   9223SM     N12329   4.880   2.762  11.948 -0.6345 -0.1496  0.1090
   9223SM   C1512330   4.988   2.676  11.889  0.7147  0.2656 -0.3463
   9223SM  H15A12331   4.979   2.654  11.784  1.2320  1.0095 -0.5495
   9223SM  H15B12332   4.990   2.579  11.937 -1.4093  0.8693  1.0893
   9223SM  H15C12333   5.086   2.716  11.906  1.0303 -1.0029  1.0629
   9223SM   C1412334   4.881   2.890  11.874 -0.4029  0.3700  0.7628
   9223SM  H14A12335   4.806   2.958  11.909 -0.1209  1.0345  0.0965
   9223SM  H14B12336   4.874   2.875  11.767 -0.6724  2.6659  0.4083
   9223SM  H14C12337   4.973   2.941  11.899  0.9626 -2.2264  1.4806
   9223SM   C1312338   4.751   2.694  11.918 -0.1960 -0.6692  0.1341
   9223SM  H13A12339   4.749   2.646  11.821  0.3047 -0.6419  0.1040
   9223SM  H13B12340   4.671   2.766  11.928 -0.5254 -1.0944  0.5914
   9223SM  H13C12341   4.732   2.617  11.991 -4.0226  0.4508  0.5436
   9223SM   C1212342   4.905   2.797  12.090  0.4745  0.3666 -0.5328
   9223SM  H12A12343   4.857   2.887  12.126  1.2479 -0.3439  2.6262
   9223SM  H12B12344   5.009   2.824  12.101  0.3211  1.0424 -0.7027
   9223SM   C1112345   4.877   2.676  12.187  0.3314  0.6112 -0.2200
   9223SM  H11A12346   4.773   2.637  12.189  1.2350 -1.9660  1.2512
   9223SM  H11B12347   4.877   2.724  12.287  0.4825  1.0800 -0.4389
   9223SM     P12348   5.124   2.591  12.227 -0.0874  0.1004 -0.6122
   9223SM   O1312349   5.202   2.485  12.168 -0.0700  0.1904 -0.1959
   9223SM   O1412350   5.160   2.729  12.189  0.3338  0.0329  0.1162
   9223SM   O1112351   5.131   2.574  12.376  0.2688 -0.2063  0.8844
   9223SM   O1212352   4.973   2.569  12.181 -0.3741 -0.5373  0.0635
   9223SM   C1S12353   5.024   2.498  12.442 -0.3407  0.1870  0.3037
   9223SM   H1S12354   5.047   2.389  12.435  0.6665  0.4513 -0.8967
   9223SM   H1T12355   4.921   2.522  12.407 -0.2754  0.4473  0.2890
   9223SM    NF12356   4.927   2.456  12.667  0.2093  0.2381  0.5296
   9223SM   HNF12357   4.842   2.496  12.702 -0.5394 -0.9474  0.1560
   9223SM   C2S12358   5.019   2.537  12.593 -0.5304 -0.3811  0.3212
   9223SM   H2S12359   5.122   2.520  12.631 -0.3803  2.8006  1.6745
   9223SM   C3S12360   5.002   2.690  12.609  0.2746  0.2968  0.1327
   9223SM   H3S12361   4.909   2.713  12.553  0.7197  1.5555 -0.1208
   9223SM    O312362   5.098   2.775  12.554  0.4279 -0.6702  0.2404
   9223SM   HO312363   5.149   2.715  12.499 -2.0029 -3.0681  0.3415
   9223SM   C4S12364   4.999   2.733  12.760  0.3976  0.5523  0.8679
   9223SM   H4S12365   5.077   2.686  12.822  0.6236 -1.2309 -0.6561
   9223SM   C5S12366   4.919   2.829  12.802  0.0133  0.1255  0.2860
   9223SM   H5S12367   4.847   2.869  12.729  0.4596 -0.5845 -0.5534
   9223SM   C6S12368   4.909   2.877  12.940  0.3154  0.2907 -0.2456
   9223SM   H6S12369   4.802   2.904  12.955  0.3390 -0.2645  1.0352
   9223SM   H6T12370   4.971   2.964  12.971  0.6407  0.0604 -0.2444
   9223SM   C7S12371   4.932   2.777  13.056  0.1859 -0.2186 -0.0472
   9223SM   H7S12372   5.038   2.748  13.072  0.5247  1.4344  0.9406
   9223SM   H7T12373   4.869   2.687  13.042  1.2407 -0.9075 -0.4844
   9223SM   C8S12374   4.875   2.839  13.189  0.0131  0.2451  0.2213
   9223SM   H8S12375   4.769   2.869  13.177 -0.4044 -1.1847  0.1773
   9223SM   H8T12376   4.937   2.931  13.196  0.4302 -0.0039 -0.0739
   9223SM   C9S12377   4.891   2.745  13.308  0.4534  0.2251 -0.2246
   9223SM   H9S12378   4.998   2.731  13.334 -0.2357 -1.3368  2.1808
   9223SM   H9T12379   4.833   2.652  13.290 -0.4022  0.3506  1.6114
   9223SM  C10S12380   4.826   2.790  13.439  0.1031 -0.3014  0.6989
   9223SM  H10S12381   4.716   2.793  13.427  0.1235  1.5709  0.7465
   9223SM  H10T12382   4.873   2.887  13.464 -0.0000 -0.3275  1.0099
   9223SM  C11S12383   4.848   2.691  13.559 -0.3459  0.2984  0.3022
   9223SM  H11S12384   4.958   2.675  13.565 -0.3679 -1.5920 -2.5911
   9223SM  H11T12385   4.800   2.594  13.536 -1.4099  1.3917 -2.5079
   9223SM  C12S12386   4.771   2.733  13.686 -0.0964  0.3048 -0.1435
   9223SM  H12S12387   4.661   2.746  13.675 -0.3795  0.1256  1.9263
   9223SM  H12T12388   4.799   2.834  13.722  1.0134  0.0227 -0.1987
   9223SM  C13S12389   4.806   2.641  13.801 -0.1773 -0.7212 -0.1815
   9223SM  H13S12390   4.914   2.645  13.827 -0.5053 -2.0733  1.6586
   9223SM  H13T12391   4.787   2.536  13.771 -0.0223 -1.7168  2.8034
   9223SM  C14S12392   4.724   2.672  13.925 -0.5772 -0.4094  0.3233
   9223SM  H14S12393   4.617   2.665  13.895 -0.7599 -0.2628  0.9186
   9223SM  H14T12394   4.746   2.779  13.946 -0.1717 -0.0297 -1.8583
   9223SM  C15S12395   4.744   2.589  14.049  0.1193 -0.5448 -0.2136
   9223SM  H15S12396   4.850   2.597  14.081 -0.2868 -0.2457  1.0936
   9223SM  H15T12397   4.719   2.483  14.027  1.5533 -0.7504 -0.9797
   9223SM  C16S12398   4.657   2.649  14.159 -0.5534 -0.3980  0.4179
   9223SM  H16S12399   4.551   2.631  14.131 -0.3629 -1.7369  0.4882
   9223SM  H16T12400   4.672   2.759  14.164  1.6480 -0.6339  0.0748
   9223SM  C17S12401   4.701   2.599  14.298  0.3750 -0.1799  0.2376
   9223SM  H17S12402   4.810   2.619  14.309  0.1714  0.9462  0.3750
   9223SM  H17T12403   4.686   2.490  14.305 -0.4708 -0.1573 -0.8484
   9223SM  C18S12404   4.626   2.677  14.412  0.1719  0.3538 -0.1766
   9223SM  H18S12405   4.592   2.775  14.371 -1.2634 -1.0683 -2.6158
   9223SM  H18T12406   4.692   2.692  14.500 -0.0316  0.3065 -0.0171
   9223SM  H18U12407   4.531   2.621  14.422 -0.1088  0.4033 -2.2057
   9223SM   C1F12408   4.936   2.325  12.679  0.3189  0.5471  0.1435
   9223SM    OF12409   5.034   2.266  12.640 -0.5913 -0.3534 -0.2012
   9223SM   C2F12410   4.811   2.254  12.723  0.2566  0.0232 -0.5572
   9223SM   H2F12411   4.779   2.187  12.640 -1.7994 -1.4653  1.3363
   9223SM   H2G12412   4.730   2.329  12.727  0.8256  0.7245 -1.6486
   9223SM   C3F12413   4.819   2.172  12.862  0.3633 -0.0540  0.3556
   9223SM   H3F12414   4.919   2.124  12.870  0.1495 -0.3906  1.1239
   9223SM   H3G12415   4.743   2.092  12.868 -1.2332  1.4721  1.2399
   9223SM   C4F12416   4.808   2.270  12.983  0.8889  0.2776  0.3367
   9223SM   H4F12417   4.715   2.326  12.960  1.7117  1.3182 -0.5503
   9223SM   H4G12418   4.893   2.342  12.983  3.6146 -2.5658 -2.7779
   9223SM   C5F12419   4.798   2.192  13.119  0.0707  0.2777  0.3115
   9223SM   H5F12420   4.895   2.138  13.111  0.9846  2.1402 -2.8586
   9223SM   H5G12421   4.713   2.121  13.120 -1.7982  2.3604  2.1983
   9223SM   C6F12422   4.807   2.278  13.244 -0.0227 -0.4157  0.5474
   9223SM   H6F12423   4.708   2.325  13.267  1.0088  3.4342 -1.8944
   9223SM   H6G12424   4.879   2.362  13.239 -2.0391  1.3517 -2.0258
   9223SM   C7F12425   4.871   2.199  13.360 -0.0234  0.0369  0.4936
   9223SM   H7F12426   4.976   2.168  13.344 -0.2716 -0.4394 -0.2569
   9223SM   H7G12427   4.806   2.109  13.362 -0.1682  0.1149  3.1627
   9223SM   C8F12428   4.852   2.273  13.498 -0.6799  0.3216 -0.1999
   9223SM   H8F12429   4.744   2.298  13.511 -1.1024 -2.1209  1.5899
   9223SM   H8G12430   4.912   2.366  13.489 -1.6738  0.9711 -0.3239
   9223SM   C9F12431   4.908   2.188  13.619 -0.3125  0.5534  0.0827
   9223SM   H9F12432   5.018   2.181  13.603 -0.6167 -0.9863 -1.7813
   9223SM   H9G12433   4.876   2.082  13.612 -0.0477  0.1770  3.2495
   9223SM  C10F12434   4.858   2.235  13.756  0.4445 -0.1423  0.5250
   9223SM  H10F12435   4.747   2.232  13.760  0.2818  3.0030  2.0173
   9223SM  H10G12436   4.879   2.344  13.762  0.0088  0.3184 -3.5083
   9223SM  C11F12437   4.921   2.160  13.879 -0.2931  0.7091  0.0694
   9223SM  H11F12438   5.031   2.173  13.878 -0.4293  2.0630 -1.3606
   9223SM  H11G12439   4.898   2.051  13.874  0.2431  0.4870  1.8376
   9223SM  C12F12440   4.870   2.211  14.013  0.5362 -0.6577 -0.6966
   9223SM  H12F12441   4.759   2.218  14.005  0.6805  0.4448 -2.0157
   9223SM  H12G12442   4.906   2.316  14.023 -0.5761 -0.0971 -2.2076
   9223SM  C13F12443   4.898   2.118  14.131 -0.6026 -0.2720  0.4045
   9223SM  H13F12444   5.007   2.127  14.151 -0.3582 -0.3645 -0.8277
   9223SM  H13G12445   4.871   2.014  14.102 -2.9369  0.6429 -0.9485
   9223SM  C14F12446   4.815   2.157  14.255 -0.1788 -0.7549  0.1477
   9223SM  H14F12447   4.709   2.138  14.228 -0.8911 -0.3962  2.4806
   9223SM  H14G12448   4.822   2.265  14.280 -0.8903 -0.2878 -1.5887
   9223SM  C15F12449   4.851   2.076  14.384  0.7342 -0.6538  0.8696
   9223SM  H15F12450   4.948   2.112  14.424  0.4756  1.6624 -0.4608
   9223SM  H15G12451   4.856   1.967  14.363 -1.3283 -1.1382  2.4794
   9223SM  C16F12452   4.743   2.096  14.496 -0.5615 -0.2830  0.1119
   9223SM  H16F12453   4.681   2.004  14.501  0.2629 -0.7968  3.0286
   9223SM  H16G12454   4.680   2.186  14.479  0.6623  0.2426 -2.0440
   9223SM  C17F12455   4.814   2.115  14.631 -0.2637  1.1624  0.3191
   9223SM  H17F12456   4.894   2.192  14.623  0.4993  0.2303 -1.6526
   9223SM  H17G12457   4.874   2.025  14.655 -1.1088  0.8423  1.2611
   9223SM  C18F12458   4.716   2.156  14.739 -0.0748  0.5987  0.1156
   9223SM  H18F12459   4.622   2.097  14.733 -0.5673  1.5273 -2.3076
   9223SM  H18G12460   4.690   2.263  14.724  2.4307  1.2086 -0.2409
   9223SM  C19F12461   4.772   2.147  14.880  0.0773  1.0282  0.2880
   9223SM  H19F12462   4.826   2.051  14.890 -1.0168  0.2649 -0.9346
   9223SM  H19G12463   4.685   2.139  14.948 -0.0068  1.3472  0.2211
   9223SM  C20F12464   4.869   2.262  14.920 -0.2484 -0.6707 -0.0401
   9223SM  H20F12465   4.941   2.280  14.837 -0.9858  1.7096 -0.2542
   9223SM  H20G12466   4.930   2.228  15.006  0.9802  1.3288 -0.0506
   9223SM  C21F12467   4.801   2.406  14.941 -0.1156  0.5861  0.1897
   9223SM  H21F12468   4.729   2.387  15.023 -1.2138  0.5248 -0.7716
   9223SM  H21G12469   4.741   2.418  14.848  2.2545  0.4082 -1.4606
   9223SM  C22F12470   4.892   2.522  14.954 -0.2409  0.3269  0.2638
   9223SM  H22F12471   4.844   2.619  14.928 -1.3675 -0.0572  0.8677
   9223SM  H22G12472   4.988   2.512  14.900 -1.0262 -0.3509 -1.0387
   9223SM  C23F12473   4.942   2.538  15.104  0.3313 -0.0815  0.3121
   9223SM  H23F12474   5.010   2.454  15.129  0.7455  0.3030  0.4755
   9223SM  H23G12475   4.855   2.544  15.173 -1.2398  0.7448 -1.6219
   9223SM  H23H12476   5.004   2.630  15.104  1.4622 -0.7095 -2.7109
   9323SM     N12477   5.300   4.373  12.049 -0.1420 -0.2690 -0.2854
   9323SM   C1512478   5.289   4.265  12.144  0.6509 -0.4023  0.1723
   9323SM  H15A12479   5.383   4.217  12.168  0.3255 -0.8259  0.6464
   9323SM  H15B12480   5.219   4.187  12.116 -1.4287  1.4945 -0.1981
   9323SM  H15C12481   5.247   4.304  12.236  0.0268 -0.4988 -0.0623
   9323SM   C1412482   5.367   4.312  11.927  0.4595 -0.9320 -0.1858
   9323SM  H14A12483   5.298   4.240  11.887  0.5106 -1.1429  0.1023
   9323SM  H14B12484   5.469   4.280  11.943  0.5452 -1.1806 -1.2150
   9323SM  H14C12485   5.363   4.390  11.852  0.2645  0.0375  0.7986
   9323SM   C1312486   5.159   4.414  12.009 -0.1726 -0.1595 -0.1867
   9323SM  H13A12487   5.095   4.330  11.987 -1.1024  0.9681 -1.9903
   9323SM  H13B12488   5.165   4.474  11.920 -0.3756  1.4039  0.8087
   9323SM  H13C12489   5.116   4.479  12.084 -1.2769  0.1782 -1.0919
   9323SM   C1212490   5.379   4.494  12.106 -0.3752 -0.4129 -0.6588
   9323SM  H12A12491   5.361   4.582  12.046 -2.7984  0.3203  0.9765
   9323SM  H12B12492   5.483   4.469  12.098 -0.8953 -2.2100 -2.5534
   9323SM   C1112493   5.339   4.554  12.249  0.4110  0.4235  0.6308
   9323SM  H11A12494   5.419   4.619  12.290  1.7146  0.0213 -1.1231
   9323SM  H11B12495   5.332   4.461  12.310  1.2143 -0.6407 -0.8316
   9323SM     P12496   5.183   4.752  12.188  0.1114  0.4645 -0.0431
   9323SM   O1312497   5.280   4.780  12.080 -0.1697 -0.3912 -0.3277
   9323SM   O1412498   5.035   4.773  12.171  0.2154 -0.2680  0.1303
   9323SM   O1112499   5.234   4.831  12.310  0.4527  0.1514  0.7100
   9323SM   O1212500   5.207   4.605  12.239  0.1316 -0.6078  0.3140
   9323SM   C1S12501   5.192   4.823  12.447  0.3244  0.4126 -0.1227
   9323SM   H1S12502   5.115   4.745  12.467  2.5593 -2.7690 -2.8784
   9323SM   H1T12503   5.158   4.924  12.477  0.5745  1.7026 -3.8022
   9323SM    NF12504   5.238   4.787  12.681  0.0339  0.3931  0.0085
   9323SM   HNF12505   5.262   4.866  12.737 -0.3169  0.0072  0.7314
   9323SM   C2S12506   5.301   4.779  12.547 -0.1362 -0.1521 -0.2731
   9323SM   H2S12507   5.325   4.675  12.519  2.0300 -0.2868  1.7850
   9323SM   C3S12508   5.422   4.870  12.533 -0.3040  0.0120  0.1793
   9323SM   H3S12509   5.377   4.970  12.552 -1.8035 -0.6539  0.2586
   9323SM    O312510   5.483   4.872  12.403 -0.2903 -0.0319  0.3235
   9323SM   HO312511   5.409   4.847  12.348  0.3437  0.4496 -0.7803
   9323SM   C4S12512   5.521   4.837  12.642 -0.0065  0.4490 -0.3869
   9323SM   H4S12513   5.545   4.730  12.640  0.9612  0.6635 -1.5081
   9323SM   C5S12514   5.587   4.915  12.725  0.6685  0.1561 -0.4898
   9323SM   H5S12515   5.572   5.023  12.715  3.0899  0.4443 -1.6885
   9323SM   C6S12516   5.674   4.872  12.839 -0.1245  0.0387  0.0361
   9323SM   H6S12517   5.661   4.929  12.934 -0.5615 -0.0524  0.0360
   9323SM   H6T12518   5.775   4.898  12.803 -0.3695 -0.6465 -1.2049
   9323SM   C7S12519   5.662   4.730  12.897 -0.2546 -0.2056 -0.2393
   9323SM   H7S12520   5.692   4.660  12.816 -1.8276  0.3975 -1.3867
   9323SM   H7T12521   5.553   4.708  12.906 -0.1432 -1.5033 -1.6839
   9323SM   C8S12522   5.751   4.705  13.017  0.6492 -0.4763  0.0927
   9323SM   H8S12523   5.852   4.736  12.981  0.7604  0.7852  1.3931
   9323SM   H8T12524   5.757   4.597  13.042 -0.3690 -0.7777 -0.8718
   9323SM   C9S12525   5.705   4.774  13.149 -0.0381 -0.5297  0.1474
   9323SM   H9S12526   5.594   4.775  13.157 -0.2030 -1.0983 -1.6200
   9323SM   H9T12527   5.728   4.881  13.126  2.6020 -0.5594  2.1100
   9323SM  C10S12528   5.777   4.719  13.269  0.1345 -0.0633 -0.5372
   9323SM  H10S12529   5.887   4.733  13.263  0.0767 -0.1960 -3.0155
   9323SM  H10T12530   5.749   4.612  13.268  1.3336 -0.4073  0.6176
   9323SM  C11S12531   5.718   4.784  13.390 -0.4998 -0.3188  0.1232
   9323SM  H11S12532   5.608   4.790  13.379 -0.3110  0.5037 -1.9226
   9323SM  H11T12533   5.758   4.888  13.386 -0.0542 -0.5179 -2.2328
   9323SM  C12S12534   5.757   4.719  13.522 -0.2943  0.7327  0.0054
   9323SM  H12S12535   5.867   4.719  13.538 -0.3133 -1.1996  0.3397
   9323SM  H12T12536   5.713   4.617  13.521 -1.8756  1.3787 -0.0911
   9323SM  C13S12537   5.684   4.791  13.638  0.0869  0.6874 -0.3712
   9323SM  H13S12538   5.681   4.726  13.728  0.0662  2.1448  0.7262
   9323SM  H13T12539   5.577   4.817  13.622 -0.2899 -0.9698 -0.7524
   9323SM  C14S12540   5.760   4.923  13.679 -0.0492  0.2532  0.2555
   9323SM  H14S12541   5.796   4.987  13.595  0.7913  0.4582  0.7605
   9323SM  H14T12542   5.854   4.898  13.733 -0.3935  0.5485  1.0034
   9323SM  C15S12543   5.682   5.011  13.770  0.7577  1.0576  0.1099
   9323SM  H15S12544   5.745   5.102  13.782  0.1480  1.4043  0.7963
   9323SM  H15T12545   5.597   5.031  13.702  2.4645  0.8791 -2.1940
   9323SM  C16S12546   5.646   4.962  13.903  0.1452  0.1336 -0.3124
   9323SM  H16S12547   5.620   4.854  13.894  2.1357 -0.3323 -0.9278
   9323SM  H16T12548   5.558   5.009  13.953  1.4042  0.1887  2.0012
   9323SM  C17S12549   5.758   4.984  14.006 -0.1597  0.1908 -0.1340
   9323SM  H17S12550   5.775   5.093  14.009  0.4287  0.1239 -0.8660
   9323SM  H17T12551   5.855   4.934  13.987  0.6182  1.7051 -0.3012
   9323SM  C18S12552   5.700   4.933  14.142  0.2527 -0.2216  0.1974
   9323SM  H18S12553   5.667   4.827  14.142 -0.6811  0.0355  1.4965
   9323SM  H18T12554   5.618   4.998  14.180 -0.8502 -1.4964  0.0864
   9323SM  H18U12555   5.779   4.938  14.220 -1.4506 -0.4144  2.0085
   9323SM   C1F12556   5.137   4.708  12.724 -1.1156  0.6582  0.5246
   9323SM    OF12557   5.108   4.612  12.655  0.9450  0.6421 -0.6416
   9323SM   C2F12558   5.066   4.740  12.854 -0.8960 -0.2592 -0.3211
   9323SM   H2F12559   5.097   4.843  12.883  0.8670 -0.3076 -1.8252
   9323SM   H2G12560   5.104   4.667  12.929 -3.9552 -0.6080  1.0272
   9323SM   C3F12561   4.918   4.728  12.834 -0.0557 -0.5448  0.5050
   9323SM   H3F12562   4.893   4.620  12.839  0.5409 -0.8132 -1.4059
   9323SM   H3G12563   4.885   4.763  12.734 -0.3803  1.1780  1.1816
   9323SM   C4F12564   4.831   4.800  12.936 -0.4396  0.2318 -1.1654
   9323SM   H4F12565   4.725   4.801  12.903 -0.0710 -0.0507 -2.4058
   9323SM   H4G12566   4.867   4.905  12.931  1.1395 -0.2472 -0.5812
   9323SM   C5F12567   4.844   4.744  13.078  0.8409  0.5455  0.0596
   9323SM   H5F12568   4.859   4.634  13.072 -1.3684  0.1659  0.5355
   9323SM   H5G12569   4.753   4.763  13.138  1.7632  0.2008  1.6331
   9323SM   C6F12570   4.966   4.804  13.156  0.5517  0.5285 -0.1626
   9323SM   H6F12571   5.019   4.871  13.084  2.4291  0.6355  1.2244
   9323SM   H6G12572   5.040   4.729  13.191  0.7247  1.0634  0.6298
   9323SM   C7F12573   4.912   4.878  13.279  0.2360  0.4117  0.6517
   9323SM   H7F12574   4.829   4.940  13.240 -0.2712 -0.0194  1.0439
   9323SM   H7G12575   4.996   4.938  13.321  1.3934 -0.4960 -0.2975
   9323SM   C8F12576   4.862   4.786  13.393 -0.1162  0.2009 -0.0809
   9323SM   H8F12577   4.936   4.703  13.400  0.7379  0.9747  0.2848
   9323SM   H8G12578   4.765   4.747  13.355 -0.0253  0.6338 -0.7758
   9323SM   C9F12579   4.845   4.867  13.520 -0.1199 -0.0090 -0.2277
   9323SM   H9F12580   4.752   4.928  13.523  0.0825  0.2990 -0.1843
   9323SM   H9G12581   4.936   4.926  13.542 -1.7676  2.1371  1.3424
   9323SM  C10F12582   4.832   4.775  13.637 -0.0749  0.1914 -0.1944
   9323SM  H10F12583   4.919   4.706  13.640 -0.8496 -0.9705  4.6081
   9323SM  H10G12584   4.740   4.711  13.638 -0.7553  1.1155 -1.3987
   9323SM  C11F12585   4.855   4.851  13.756  0.2190 -0.3112 -0.0215
   9323SM  H11F12586   4.762   4.911  13.757  0.2321 -0.2905  1.6217
   9323SM  H11G12587   4.947   4.914  13.749  0.3079 -0.4395 -0.0246
   9323SM  C12F12588   4.861   4.759  13.876  0.0329 -0.4258 -0.4202
   9323SM  H12F12589   4.945   4.687  13.861 -1.5639 -2.0839 -2.0997
   9323SM  H12G12590   4.775   4.689  13.876  0.0691 -0.5574 -2.7132
   9323SM  C13F12591   4.872   4.829  14.008  0.6025 -0.0066  0.1525
   9323SM  H13F12592   4.782   4.889  14.034 -0.0604 -1.0110  0.2644
   9323SM  H13G12593   4.955   4.902  14.014  0.8990 -0.1888 -1.3657
   9323SM  C14F12594   4.890   4.727  14.123 -0.1684  0.2809 -0.4787
   9323SM  H14F12595   4.995   4.690  14.119 -0.3772 -0.4355  0.3859
   9323SM  H14G12596   4.828   4.636  14.113  1.2268 -0.5549 -1.9666
   9323SM  C15F12597   4.862   4.781  14.265  0.4895 -0.0602  0.8350
   9323SM  H15F12598   4.755   4.810  14.275  0.5924 -0.2183  2.9574
   9323SM  H15G12599   4.922   4.873  14.281  1.2985 -0.6595  1.3534
   9323SM  C16F12600   4.883   4.671  14.369 -0.2186  0.2174  0.5700
   9323SM  H16F12601   4.992   4.651  14.366 -0.1262  0.7440  0.2924
   9323SM  H16G12602   4.823   4.586  14.330  0.6407 -0.6825  1.1466
   9323SM  C17F12603   4.858   4.713  14.513 -0.4606 -0.5970  0.4030
   9323SM  H17F12604   4.898   4.816  14.527 -1.0850  0.0057 -1.7488
   9323SM  H17G12605   4.914   4.651  14.586  1.4582  1.8815  1.1771
   9323SM  C18F12606   4.710   4.715  14.541 -0.7613  0.3616 -0.1937
   9323SM  H18F12607   4.682   4.607  14.537 -0.8541  0.3359  0.9208
   9323SM  H18G12608   4.659   4.786  14.473 -1.4389 -0.9667 -1.1163
   9323SM  C19F12609   4.674   4.767  14.684  0.0128 -0.8055  0.0602
   9323SM  H19F12610   4.704   4.873  14.696 -1.7896  0.0084 -2.0224
   9323SM  H19G12611   4.724   4.707  14.764 -2.1451 -1.6424  0.8510
   9323SM  C20F12612   4.525   4.757  14.720  0.5704  0.7343 -0.1535
   9323SM  H20F12613   4.505   4.648  14.709  2.7215  0.1223  1.2891
   9323SM  H20G12614   4.459   4.811  14.649 -2.2764 -0.7337  1.2476
   9323SM  C21F12615   4.496   4.795  14.860  0.2323  0.2884  0.7125
   9323SM  H21F12616   4.547   4.726  14.930 -0.5349 -1.2215 -0.1836
   9323SM  H21G12617   4.391   4.787  14.896 -0.2383  2.7854  0.0936
   9323SM  C22F12618   4.546   4.935  14.905 -0.0752  0.1621 -0.5151
   9323SM  H22F12619   4.502   5.003  14.829  3.0869  2.5836 -0.3556
   9323SM  H22G12620   4.653   4.934  14.875 -0.4905 -1.2380 -2.0980
   9323SM  C23F12621   4.509   4.973  15.043 -0.2513  0.0322 -0.4124
   9323SM  H23F12622   4.535   4.897  15.119 -1.8443 -1.1217 -0.9653
   9323SM  H23G12623   4.398   4.982  15.051 -0.2472  0.9796 -1.2113
   9323SM  H23H12624   4.544   5.076  15.066 -1.6859  0.0743  1.9310
   9423SM     N12625   3.520   0.111  12.464 -0.3900  0.3916 -0.4703
   9423SM   C1512626   3.386   0.165  12.487 -0.4147  0.3309 -0.1942
   9423SM  H15A12627   3.393   0.243  12.562  2.5936  0.5595 -0.5957
   9423SM  H15B12628   3.316   0.092  12.524 -0.5568  0.4809 -0.1637
   9423SM  H15C12629   3.347   0.206  12.394  2.1520  0.0271 -1.4918
   9423SM   C1412630   3.527   0.015  12.344  0.1022 -0.3971 -0.3015
   9423SM  H14A12631   3.518   0.074  12.254  1.6678  1.3434  0.6177
   9423SM  H14B12632   3.450  -0.060  12.354 -0.7398  0.6839  2.3347
   9423SM  H14C12633   3.629  -0.021  12.343 -0.2006 -1.2738 -0.5414
   9423SM   C1312634   3.610   0.223  12.431  0.6190 -0.2874  0.3727
   9423SM  H13A12635   3.575   0.285  12.350  1.4983  2.3585  1.9157
   9423SM  H13B12636   3.710   0.188  12.411  0.2824 -0.4079 -1.2460
   9423SM  H13C12637   3.624   0.293  12.512  0.4311 -1.9519  1.9149
   9423SM   C1212638   3.565   0.035  12.593 -0.2544 -0.2338 -0.1468
   9423SM  H12A12639   3.515  -0.061  12.596 -1.2539  0.2740 -0.1033
   9423SM  H12B12640   3.524   0.097  12.671 -1.7374 -0.5535 -0.6510
   9423SM   C1112641   3.711   0.016  12.622  0.1269  0.2652 -0.4376
   9423SM  H11A12642   3.736  -0.028  12.721  0.6869 -2.2283 -1.5979
   9423SM  H11B12643   3.754   0.119  12.623  0.5844  0.0781  0.1756
   9423SM     P12644   3.799  -0.216  12.540  0.0912  0.0697 -0.6191
   9423SM   O1312645   3.673  -0.289  12.546  0.6021  0.1187  0.5021
   9423SM   O1412646   3.892  -0.263  12.440  0.6011 -0.0520  0.0096
   9423SM   O1112647   3.865  -0.225  12.685 -0.4716 -0.5406 -0.3247
   9423SM   O1212648   3.776  -0.062  12.517 -0.4611 -0.2736  0.3022
   9423SM   C1S12649   3.914  -0.353  12.731  0.0875  0.2010  0.1210
   9423SM   H1S12650   4.024  -0.352  12.721  0.0521 -0.1572 -0.2972
   9423SM   H1T12651   3.869  -0.441  12.681 -0.6702 -0.4422  1.8524
   9423SM    NF12652   3.964  -0.505  12.928  0.3323  0.3085  0.3566
   9423SM   HNF12653   3.905  -0.586  12.927  0.6547 -0.0700  3.1576
   9423SM   C2S12654   3.892  -0.381  12.894 -0.4945  0.0747  1.0487
   9423SM   H2S12655   3.938  -0.301  12.954  0.9057  0.7333 -0.8037
   9423SM   C3S12656   3.743  -0.388  12.925  0.1697 -0.1049  0.5010
   9423SM   H3S12657   3.714  -0.483  12.875 -0.4019  0.2229  0.1857
   9423SM    O312658   3.659  -0.290  12.864  0.6880 -0.1687  0.4465
   9423SM   HO312659   3.719  -0.243  12.806 -0.3987  2.6670  1.4458
   9423SM   C4S12660   3.713  -0.391  13.069 -0.6049  0.3290  0.3249
   9423SM   H4S12661   3.689  -0.491  13.108  0.7658  0.4799  1.6639
   9423SM   C5S12662   3.717  -0.283  13.153 -0.2356  1.0208 -0.6769
   9423SM   H5S12663   3.761  -0.187  13.122  1.1958  0.6261  0.0572
   9423SM   C6S12664   3.691  -0.263  13.295 -0.2896  0.4079 -0.2247
   9423SM   H6S12665   3.665  -0.155  13.306  0.1215  0.2380  3.5325
   9423SM   H6T12666   3.784  -0.290  13.348 -1.3453 -0.6876  1.1521
   9423SM   C7S12667   3.571  -0.340  13.371 -0.7516  0.0829 -0.1467
   9423SM   H7S12668   3.588  -0.447  13.347 -2.2749 -0.9516  2.8502
   9423SM   H7T12669   3.465  -0.312  13.350 -0.6358  1.0734  0.5148
   9423SM   C8S12670   3.591  -0.345  13.525  0.2454  0.0832 -0.1322
   9423SM   H8S12671   3.640  -0.254  13.565 -0.7487  0.1238  1.0471
   9423SM   H8T12672   3.657  -0.429  13.553  1.1476  1.6153  2.7306
   9423SM   C9S12673   3.464  -0.350  13.604 -0.0580  0.4312 -0.4708
   9423SM   H9S12674   3.394  -0.425  13.560  0.5463 -1.6987  1.9643
   9423SM   H9T12675   3.415  -0.251  13.592  1.8835  1.6896  1.4072
   9423SM  C10S12676   3.489  -0.388  13.748  0.3090 -0.1647  0.1039
   9423SM  H10S12677   3.556  -0.477  13.744  1.1446  0.4629 -0.0079
   9423SM  H10T12678   3.399  -0.417  13.806  1.5892 -0.0278  2.3008
   9423SM  C11S12679   3.557  -0.277  13.829 -0.5679  0.1858  0.0860
   9423SM  H11S12680   3.490  -0.189  13.823  0.4652  1.2324  2.3838
   9423SM  H11T12681   3.659  -0.265  13.786 -1.0698  0.6776 -1.0021
   9423SM  C12S12682   3.564  -0.312  13.978 -0.0088  0.1115 -0.3888
   9423SM  H12S12683   3.465  -0.316  14.030  0.7719  1.8773  1.3816
   9423SM  H12T12684   3.602  -0.224  14.033 -0.4864  0.4717 -0.6309
   9423SM  C13S12685   3.651  -0.432  14.011 -0.6873 -0.3184  0.4584
   9423SM  H13S12686   3.742  -0.412  13.950  0.3458 -2.0180  1.3637
   9423SM  H13T12687   3.614  -0.524  13.963 -0.5166  0.4379 -1.2064
   9423SM  C14S12688   3.710  -0.443  14.153  0.4423  0.2677 -0.1583
   9423SM  H14S12689   3.746  -0.343  14.187  0.3328 -0.0054  0.7857
   9423SM  H14T12690   3.797  -0.511  14.146  0.3870  0.2512 -0.7771
   9423SM  C15S12691   3.604  -0.507  14.246  0.0097 -0.3656  0.1499
   9423SM  H15S12692   3.575  -0.609  14.211 -0.6963 -0.9661  2.3114
   9423SM  H15T12693   3.511  -0.448  14.231  0.3052  0.0107 -0.1911
   9423SM  C16S12694   3.640  -0.491  14.391  0.0273 -0.2999  0.4010
   9423SM  H16S12695   3.558  -0.529  14.456 -2.9078  1.3904 -2.0039
   9423SM  H16T12696   3.656  -0.384  14.418  0.2328  0.1062 -1.2365
   9423SM  C17S12697   3.769  -0.578  14.428  0.0441  0.0788  0.9308
   9423SM  H17S12698   3.857  -0.527  14.383 -0.0615 -0.2578  0.3401
   9423SM  H17T12699   3.758  -0.676  14.378  2.5469  0.0833  0.2692
   9423SM  C18S12700   3.798  -0.595  14.584 -0.8020  0.1994  0.1287
   9423SM  H18S12701   3.717  -0.653  14.634 -0.1582 -0.8937 -0.0592
   9423SM  H18T12702   3.830  -0.497  14.624  1.5658  0.0748 -1.2646
   9423SM  H18U12703   3.888  -0.659  14.595 -0.6310  0.2973 -0.6405
   9423SM   C1F12704   4.098  -0.530  12.920  0.2751  0.0486 -0.2567
   9423SM    OF12705   4.174  -0.435  12.905  0.0370 -0.2958 -0.2125
   9423SM   C2F12706   4.147  -0.673  12.909 -0.0447 -0.3302  0.1021
   9423SM   H2F12707   4.221  -0.683  12.826  1.4426  1.4415  1.1366
   9423SM   H2G12708   4.065  -0.745  12.889  0.2520 -0.0263 -2.5542
   9423SM   C3F12709   4.226  -0.721  13.034  0.4450 -1.1147  0.1350
   9423SM   H3F12710   4.149  -0.732  13.114  1.6107 -0.6790  1.3337
   9423SM   H3G12711   4.290  -0.638  13.067 -2.7746  1.4139  0.5030
   9423SM   C4F12712   4.293  -0.864  13.022  0.4819 -0.1703  0.2952
   9423SM   H4F12713   4.362  -0.861  12.935 -1.1296 -0.2695 -1.0402
   9423SM   H4G12714   4.209  -0.931  12.992 -0.8923  0.8206  1.7364
   9423SM   C5F12715   4.359  -0.917  13.150 -0.9062  0.6037  0.1833
   9423SM   H5F12716   4.437  -0.842  13.176  1.0445 -1.6985  1.3646
   9423SM   H5G12717   4.415  -1.009  13.124 -2.0191  0.1102 -0.5151
   9423SM   C6F12718   4.268  -0.935  13.271 -0.4996  0.3142 -0.0469
   9423SM   H6F12719   4.180  -0.997  13.241 -0.6538 -1.0480  2.8549
   9423SM   H6G12720   4.229  -0.832  13.287 -1.1016  0.0378  0.3120
   9423SM   C7F12721   4.355  -0.990  13.377  0.3869 -0.6939 -0.0522
   9423SM   H7F12722   4.446  -0.929  13.393 -0.1998  0.5773 -1.3181
   9423SM   H7G12723   4.395  -1.084  13.333 -0.1117 -0.4671 -1.0161
   9423SM   C8F12724   4.291  -1.022  13.507  0.5487 -0.5782  0.3292
   9423SM   H8F12725   4.214  -1.101  13.497  0.1467  0.0998 -2.9256
   9423SM   H8G12726   4.229  -0.939  13.548  0.1635 -0.9728  0.5545
   9423SM   C9F12727   4.386  -1.053  13.625  0.0927 -0.2417  0.5907
   9423SM   H9F12728   4.472  -0.984  13.637  0.6012 -0.5869 -0.8353
   9423SM   H9G12729   4.441  -1.146  13.597 -0.1767 -0.4401  0.7151
   9423SM  C10F12730   4.311  -1.062  13.756 -0.6238 -0.1847  0.4765
   9423SM  H10F12731   4.213  -1.112  13.735  0.3205 -2.2919  0.8311
   9423SM  H10G12732   4.278  -0.961  13.790 -0.4059 -0.4098  1.3985
   9423SM  C11F12733   4.384  -1.145  13.864  0.0602 -0.4345 -0.1743
   9423SM  H11F12734   4.482  -1.100  13.892  0.3663  0.1941 -2.1189
   9423SM  H11G12735   4.400  -1.250  13.831 -1.2969 -0.4176 -0.9500
   9423SM  C12F12736   4.303  -1.161  13.989 -0.1579 -0.0246 -0.1930
   9423SM  H12F12737   4.208  -1.211  13.961 -1.8976  2.9043 -0.0442
   9423SM  H12G12738   4.280  -1.057  14.021 -0.3990  0.0445 -0.5875
   9423SM  C13F12739   4.368  -1.245  14.103  0.0836 -0.3598 -0.2218
   9423SM  H13F12740   4.467  -1.200  14.128 -0.3494  0.1377  0.6926
   9423SM  H13G12741   4.388  -1.349  14.072  0.9795 -0.1760 -0.2747
   9423SM  C14F12742   4.279  -1.245  14.226 -0.4028 -0.1150 -0.4813
   9423SM  H14F12743   4.178  -1.282  14.200 -0.8310  0.2776  0.5631
   9423SM  H14G12744   4.273  -1.139  14.260 -2.0891  0.4980 -2.4601
   9423SM  C15F12745   4.323  -1.338  14.341  0.1378  0.8448 -0.0570
   9423SM  H15F12746   4.422  -1.298  14.374  0.7129 -0.5867  0.0054
   9423SM  H15G12747   4.343  -1.441  14.307 -0.7344  0.7859 -0.4064
   9423SM  C16F12748   4.216  -1.335  14.456 -0.2676 -0.6165 -0.2278
   9423SM  H16F12749   4.125  -1.392  14.427 -0.6222 -0.5896  0.8030
   9423SM  H16G12750   4.185  -1.229  14.467  0.8014  0.1128 -3.1766
   9423SM  C17F12751   4.281  -1.396  14.579  0.2638 -0.3331 -1.0819
   9423SM  H17F12752   4.378  -1.346  14.599 -0.9798  2.0120 -0.4759
   9423SM  H17G12753   4.304  -1.500  14.547  2.2247 -0.1590 -0.3364
   9423SM  C18F12754   4.184  -1.375  14.706  0.4802 -0.3036  0.4958
   9423SM  H18F12755   4.093  -1.435  14.685  1.9292 -2.2710 -0.4432
   9423SM  H18G12756   4.155  -1.268  14.714  0.2771 -0.1892 -1.3176
   9423SM  C19F12757   4.238  -1.433  14.833  0.3915 -0.4116 -0.0167
   9423SM  H19F12758   4.324  -1.374  14.869  1.8586 -1.6436 -1.3696
   9423SM  H19G12759   4.285  -1.531  14.812 -0.0055 -0.5915 -0.0897
   9423SM  C20F12760   4.131  -1.444  14.941 -0.1114 -0.2258  0.5051
   9423SM  H20F12761   4.039  -1.471  14.886  0.1821  3.1776 -2.0229
   9423SM  H20G12762   4.102  -1.344  14.982 -0.1702  1.0135 -2.3201
   9423SM  C21F12763   4.148  -1.543  15.054 -0.1610 -0.1523 -0.3861
   9423SM  H21F12764   4.216  -1.625  15.021  1.9081  1.4786 -0.3611
   9423SM  H21G12765   4.054  -1.587  15.094  0.6431 -0.7949  0.8729
   9423SM  C22F12766   4.211  -1.477  15.175  0.1561  0.5656 -0.7133
   9423SM  H22F12767   4.153  -1.387  15.202 -1.3198 -0.9456  1.4767
   9423SM  H22G12768   4.306  -1.423  15.153  0.2334  0.1891 -1.3543
   9423SM  C23F12769   4.222  -1.573  15.298  0.5699 -0.1958 -0.3450
   9423SM  H23F12770   4.303  -1.647  15.279  1.1479 -0.0337  1.3144
   9423SM  H23G12771   4.124  -1.625  15.300 -0.1287  1.0094 -1.7949
   9423SM  H23H12772   4.254  -1.519  15.390  1.9172 -1.5552  0.0268
   9523SM     N12773   1.424   2.228  11.991 -0.2562  0.5594  0.3082
   9523SM   C1512774   1.488   2.139  11.892  0.2323 -0.2133  0.1572
   9523SM  H15A12775   1.532   2.045  11.923  0.6708  0.0133  0.2374
   9523SM  H15B12776   1.575   2.183  11.845 -0.6511 -1.2580 -2.6553
   9523SM  H15C12777   1.419   2.139  11.810 -1.2444  1.7347  1.3084
   9523SM   C1412778   1.378   2.347  11.914 -0.1423  0.2640 -0.2791
   9523SM  H14A12779   1.319   2.414  11.974  0.1333  2.5722 -2.4371
   9523SM  H14B12780   1.317   2.323  11.828  2.8509  1.9521 -3.0933
   9523SM  H14C12781   1.468   2.393  11.876 -0.8623 -0.1163 -2.5855
   9523SM   C1312782   1.303   2.147  12.045 -0.4906 -0.7408 -0.7686
   9523SM  H13A12783   1.335   2.051  12.083  2.1786  0.0783 -0.7772
   9523SM  H13B12784   1.225   2.143  11.970  1.2210  0.0051 -2.6805
   9523SM  H13C12785   1.262   2.204  12.126 -2.1250 -2.9848  0.0854
   9523SM   C1212786   1.507   2.264  12.114 -0.1661 -0.3176  0.9174
   9523SM  H12A12787   1.586   2.328  12.079 -2.2719  2.1739  0.4058
   9523SM  H12B12788   1.552   2.174  12.152  2.1912  0.8561  1.0378
   9523SM   C1112789   1.437   2.338  12.225  0.0719 -0.2996 -0.4541
   9523SM  H11A12790   1.510   2.348  12.308 -0.4174  0.7870 -0.1391
   9523SM  H11B12791   1.357   2.276  12.270  2.0594 -0.2455  3.5991
   9523SM     P12792   1.252   2.525  12.240 -0.0703 -0.0636 -0.0461
   9523SM   O1312793   1.255   2.666  12.214 -0.1037 -0.7049 -0.5556
   9523SM   O1412794   1.149   2.448  12.176 -0.0369 -0.4321 -0.5443
   9523SM   O1112795   1.247   2.503  12.398  0.0884  0.6298 -0.4675
   9523SM   O1212796   1.386   2.469  12.191  0.2189  0.2040 -0.2706
   9523SM   C1S12797   1.351   2.558  12.474  0.4953 -0.1914 -0.5627
   9523SM   H1S12798   1.350   2.669  12.473 -2.0026 -0.1550  0.1959
   9523SM   H1T12799   1.451   2.521  12.442  0.7165  0.9200 -1.2193
   9523SM    NF12800   1.440   2.572  12.708 -0.1388 -0.7743 -0.1621
   9523SM   HNF12801   1.520   2.517  12.734  1.0958  0.3500 -1.3986
   9523SM   C2S12802   1.340   2.510  12.622  0.5648 -0.5229 -0.2419
   9523SM   H2S12803   1.240   2.539  12.660  1.3737  0.9675  0.8770
   9523SM   C3S12804   1.348   2.354  12.625 -0.5653  0.0307 -0.3082
   9523SM   H3S12805   1.450   2.318  12.601 -0.6807 -0.3818 -0.1905
   9523SM    O312806   1.275   2.281  12.531  0.3587  0.5386 -0.1470
   9523SM   HO312807   1.253   2.344  12.461  1.3883  1.4389  0.3124
   9523SM   C4S12808   1.320   2.305  12.766  0.4912 -0.0407 -0.1961
   9523SM   H4S12809   1.383   2.355  12.841  0.6002 -0.0838 -0.2587
   9523SM   C5S12810   1.230   2.225  12.812 -0.5460  1.2015 -0.1254
   9523SM   H5S12811   1.152   2.184  12.746 -1.5979 -1.2185  2.4283
   9523SM   C6S12812   1.218   2.180  12.957 -0.2001 -0.0670  0.3205
   9523SM   H6S12813   1.287   2.097  12.983 -0.7344  0.2367  3.0866
   9523SM   H6T12814   1.112   2.146  12.958 -1.0881  2.4327  1.5752
   9523SM   C7S12815   1.236   2.295  13.060 -0.6766 -0.4185 -0.0725
   9523SM   H7S12816   1.154   2.369  13.044 -1.0593 -0.9403 -0.5547
   9523SM   H7T12817   1.341   2.329  13.046 -0.6562 -0.4557 -0.0086
   9523SM   C8S12818   1.223   2.240  13.202 -0.2800 -0.6941  1.0505
   9523SM   H8S12819   1.295   2.157  13.212  0.7791  0.1532  0.6317
   9523SM   H8T12820   1.122   2.195  13.215 -0.9512  0.9538  1.9362
   9523SM   C9S12821   1.246   2.330  13.323 -0.1354 -0.0471 -0.5134
   9523SM   H9S12822   1.169   2.410  13.319 -0.5305 -0.4414 -0.9872
   9523SM   H9T12823   1.348   2.372  13.319 -1.0979  2.6357  0.7499
   9523SM  C10S12824   1.228   2.250  13.456 -0.5319 -0.1483 -0.8109
   9523SM  H10S12825   1.282   2.155  13.437  1.2616  0.3555  1.2228
   9523SM  H10T12826   1.123   2.222  13.478  0.1786 -0.8593  2.2930
   9523SM  C11S12827   1.293   2.315  13.582 -0.0238  0.3345 -0.3882
   9523SM  H11S12828   1.250   2.417  13.591 -0.6207  0.0201  0.5201
   9523SM  H11T12829   1.403   2.319  13.565 -0.2439  3.0337 -1.6766
   9523SM  C12S12830   1.260   2.227  13.705 -0.0015 -0.4681  0.1354
   9523SM  H12S12831   1.326   2.140  13.686 -0.4264 -0.3439 -2.1844
   9523SM  H12T12832   1.154   2.194  13.709 -1.2735  2.8285 -1.9607
   9523SM  C13S12833   1.307   2.301  13.830 -0.2066 -0.9396 -0.2869
   9523SM  H13S12834   1.258   2.401  13.829 -1.1199 -1.3489  1.3448
   9523SM  H13T12835   1.416   2.315  13.820 -0.1111 -1.2100  0.3487
   9523SM  C14S12836   1.279   2.225  13.957  0.4896  0.2838  0.6356
   9523SM  H14S12837   1.335   2.129  13.954  0.1447  0.0073 -3.5087
   9523SM  H14T12838   1.170   2.203  13.958  0.2654  1.2717 -0.3415
   9523SM  C15S12839   1.324   2.302  14.081  0.3845 -0.1476 -0.7701
   9523SM  H15S12840   1.285   2.406  14.085  1.7996  0.4292 -1.2642
   9523SM  H15T12841   1.434   2.315  14.075  0.4502  0.4626  1.1112
   9523SM  C16S12842   1.277   2.230  14.209 -0.3849 -0.1305  0.3190
   9523SM  H16S12843   1.295   2.123  14.182  2.5544  0.6544 -1.2032
   9523SM  H16T12844   1.170   2.253  14.226 -0.1778  0.4380  0.9211
   9523SM  C17S12845   1.358   2.280  14.335  0.6364  0.7487 -0.1131
   9523SM  H17S12846   1.332   2.386  14.355  1.7480  0.8073  1.1270
   9523SM  H17T12847   1.466   2.277  14.311  0.4422  0.7372 -1.0635
   9523SM  C18S12848   1.334   2.197  14.458 -0.7386 -0.4754 -0.1450
   9523SM  H18S12849   1.229   2.207  14.493 -0.7990  0.9001 -0.6633
   9523SM  H18T12850   1.403   2.204  14.544 -1.0421 -1.1478  0.1649
   9523SM  H18U12851   1.348   2.094  14.420  1.9439 -0.1189 -0.3177
   9523SM   C1F12852   1.437   2.702  12.748 -0.3611 -0.0164 -0.6834
   9523SM    OF12853   1.351   2.781  12.707 -0.1911  0.1492  0.2834
   9523SM   C2F12854   1.552   2.740  12.840  0.1084 -0.0135  0.1752
   9523SM   H2F12855   1.639   2.769  12.777  0.1384 -2.3562 -0.9529
   9523SM   H2G12856   1.593   2.650  12.890 -0.6403  0.8561  2.5293
   9523SM   C3F12857   1.523   2.847  12.944  0.5369 -0.3189  0.0817
   9523SM   H3F12858   1.490   2.947  12.906  0.8807 -0.4665 -0.6318
   9523SM   H3G12859   1.626   2.862  12.981  0.2959  0.6637  0.3852
   9523SM   C4F12860   1.419   2.809  13.053 -0.1921 -0.1067  0.0222
   9523SM   H4F12861   1.320   2.792  13.005 -0.3608  1.0909 -0.0905
   9523SM   H4G12862   1.414   2.893  13.125  2.3973 -1.3080  1.7631
   9523SM   C5F12863   1.472   2.688  13.126 -0.2414  0.5975 -0.4058
   9523SM   H5F12864   1.574   2.711  13.165  0.6854 -3.2093 -0.2048
   9523SM   H5G12865   1.489   2.604  13.056 -0.8945 -1.2066  1.5132
   9523SM   C6F12866   1.394   2.642  13.248 -0.0242 -0.3334  0.4125
   9523SM   H6F12867   1.450   2.556  13.289  1.6259 -0.6455 -2.2596
   9523SM   H6G12868   1.295   2.600  13.220  0.3607 -0.9619 -0.0256
   9523SM   C7F12869   1.392   2.743  13.363 -0.3905 -0.1018  0.3333
   9523SM   H7F12870   1.322   2.825  13.336 -0.3585 -0.4409 -0.8587
   9523SM   H7G12871   1.494   2.785  13.373 -1.2276  1.6017  2.3807
   9523SM   C8F12872   1.342   2.681  13.496  0.0895  0.3052  0.1647
   9523SM   H8F12873   1.413   2.604  13.536 -0.3952  1.0526  2.6338
   9523SM   H8G12874   1.242   2.635  13.484  0.3300 -0.2779  0.3222
   9523SM   C9F12875   1.347   2.785  13.606 -0.1796  1.3056 -0.1237
   9523SM   H9F12876   1.253   2.843  13.595 -1.4571 -0.2276  1.9475
   9523SM   H9G12877   1.435   2.851  13.599  0.1726  1.0981  1.8867
   9523SM  C10F12878   1.350   2.725  13.749 -0.0038 -0.0712  0.3597
   9523SM  H10F12879   1.260   2.661  13.759 -0.0372 -0.2672 -0.9808
   9523SM  H10G12880   1.341   2.808  13.822  0.1290  0.2897 -0.0266
   9523SM  C11F12881   1.467   2.636  13.793  0.0554 -0.0077 -0.5939
   9523SM  H11F12882   1.559   2.690  13.764 -1.1365  1.9525 -0.8779
   9523SM  H11G12883   1.468   2.538  13.741 -2.3838 -0.0473 -0.6674
   9523SM  C12F12884   1.471   2.627  13.950  0.1172  0.3065 -0.0457
   9523SM  H12F12885   1.522   2.532  13.980 -2.5138 -1.4833 -0.9019
   9523SM  H12G12886   1.369   2.625  13.995  0.8520  2.6956  1.9295
   9523SM  C13F12887   1.560   2.739  14.004  0.1538  0.9282 -0.1751
   9523SM  H13F12888   1.496   2.826  14.030 -1.5627  0.3964 -2.2710
   9523SM  H13G12889   1.634   2.774  13.930 -0.3841  1.1997 -0.5912
   9523SM  C14F12890   1.640   2.693  14.133 -0.2949 -0.7767  0.2765
   9523SM  H14F12891   1.732   2.752  14.152 -0.6071 -0.5593  1.1655
   9523SM  H14G12892   1.665   2.585  14.123  1.3600 -0.3651 -0.3698
   9523SM  C15F12893   1.548   2.699  14.260  0.5025  0.5602  0.3930
   9523SM  H15F12894   1.455   2.639  14.247  0.1222  1.5922 -2.3453
   9523SM  H15G12895   1.496   2.797  14.263 -0.3288  0.1639 -0.4742
   9523SM  C16F12896   1.610   2.655  14.387 -0.0858  0.3204  0.2863
   9523SM  H16F12897   1.677   2.736  14.422 -0.7917  1.6593 -1.3171
   9523SM  H16G12898   1.666   2.560  14.373  0.8820  1.3097 -3.9978
   9523SM  C17F12899   1.502   2.619  14.494 -0.0249  0.2665  0.3308
   9523SM  H17F12900   1.427   2.545  14.457 -0.9062  1.1790  0.2665
   9523SM  H17G12901   1.455   2.714  14.526  2.5295  0.4984  3.9364
   9523SM  C18F12902   1.567   2.550  14.609  0.1395  0.0223  0.3452
   9523SM  H18F12903   1.638   2.616  14.663  1.0477 -0.6247 -0.0366
   9523SM  H18G12904   1.627   2.470  14.559 -1.0309  0.6147 -2.1765
   9523SM  C19F12905   1.465   2.470  14.699 -1.1159  0.3182 -0.5980
   9523SM  H19F12906   1.520   2.399  14.763 -1.2147  0.8039  0.0313
   9523SM  H19G12907   1.395   2.420  14.629 -0.8347  1.2297 -1.5657
   9523SM  C20F12908   1.371   2.556  14.786 -0.4604  0.2514  0.1049
   9523SM  H20F12909   1.333   2.635  14.717  1.7867  1.2942 -0.0269
   9523SM  H20G12910   1.431   2.589  14.873  0.4831 -0.3450 -0.3013
   9523SM  C21F12911   1.251   2.488  14.847 -0.0731  0.2269 -0.2755
   9523SM  H21F12912   1.296   2.393  14.884 -0.1916  0.3463  0.1789
   9523SM  H21G12913   1.174   2.458  14.773  1.5993 -1.4425 -1.4358
   9523SM  C22F12914   1.189   2.567  14.961  0.3713 -0.0212 -0.5698
   9523SM  H22F12915   1.260   2.624  15.025 -0.0235  1.0498 -1.0796
   9523SM  H22G12916   1.130   2.498  15.025  0.0041  0.8018 -0.0041
   9523SM  C23F12917   1.091   2.675  14.917 -0.2582 -0.1212  0.2504
   9523SM  H23F12918   1.031   2.714  15.002  1.1530  3.5393 -0.2079
   9523SM  H23G12919   1.035   2.645  14.825 -1.5936  0.4107  0.8634
   9523SM  H23H12920   1.141   2.770  14.886 -0.0604  0.4650  2.2583
   9623SM     N12921   0.797   0.789  12.125 -0.6980 -0.6232  0.3898
   9623SM   C1512922   0.872   0.675  12.064  0.5312 -0.0854 -0.6292
   9623SM  H15A12923   0.825   0.638  11.974  1.2973 -1.2327 -0.5795
   9623SM  H15B12924   0.864   0.596  12.137 -0.1450 -0.2620 -0.8861
   9623SM  H15C12925   0.974   0.696  12.036  0.2234  0.2829 -1.4986
   9623SM   C1412926   0.809   0.891  12.019  0.0193 -0.2221 -0.0244
   9623SM  H14A12927   0.786   0.855  11.920 -0.1042 -1.2636  0.3660
   9623SM  H14B12928   0.911   0.928  12.016 -0.4807  1.3429  1.0975
   9623SM  H14C12929   0.747   0.975  12.044  1.1893  0.5816  0.2851
   9623SM   C1312930   0.656   0.752  12.139 -0.0259 -0.3600  0.4439
   9623SM  H13A12931   0.593   0.837  12.159 -1.9489 -1.6193  0.0869
   9623SM  H13B12932   0.646   0.681  12.220  1.4508  0.6945  1.5915
   9623SM  H13C12933   0.620   0.703  12.049 -0.6618 -0.0794  0.5359
   9623SM   C1212934   0.873   0.830  12.253  0.0255 -0.0969  0.4795
   9623SM  H12A12935   0.816   0.914  12.290  1.9490  1.5294 -0.0700
   9623SM  H12B12936   0.970   0.867  12.224 -0.5097  2.1432  1.3119
   9623SM   C1112937   0.899   0.735  12.366 -0.4729 -0.3020  0.1335
   9623SM  H11A12938   0.947   0.790  12.449  0.3322 -0.9723  0.1328
   9623SM  H11B12939   0.974   0.659  12.333 -0.9542 -0.1019 -1.5271
   9623SM     P12940   0.775   0.574  12.526  0.4000 -0.2989  0.3842
   9623SM   O1312941   0.637   0.536  12.557 -0.6702 -0.3279  0.4622
   9623SM   O1412942   0.860   0.461  12.491  0.1180 -0.2010  0.3211
   9623SM   O1112943   0.838   0.656  12.654  0.0794  0.0236 -0.3917
   9623SM   O1212944   0.773   0.681  12.405 -0.2141  0.7803 -0.1502
   9623SM   C1S12945   0.763   0.761  12.707  0.8953  0.0656 -0.0262
   9623SM   H1S12946   0.654   0.762  12.683  0.8901  1.2788 -0.0373
   9623SM   H1T12947   0.798   0.853  12.654 -1.0881  0.6016 -0.5045
   9623SM    NF12948   0.689   0.892  12.921  0.4503  0.0793 -0.0664
   9623SM   HNF12949   0.733   0.981  12.933  0.5597  0.5652 -3.1881
   9623SM   C2S12950   0.777   0.790  12.864 -0.0966  0.0304 -0.6304
   9623SM   H2S12951   0.748   0.696  12.915 -0.0453  0.5701  0.4138
   9623SM   C3S12952   0.930   0.811  12.904  0.1297 -1.1350  0.1301
   9623SM   H3S12953   0.973   0.897  12.848 -1.1671  0.5076  1.5416
   9623SM    O312954   1.005   0.701  12.863 -0.4715  0.1472 -0.1499
   9623SM   HO312955   0.943   0.663  12.799  0.0764  2.4720 -2.2400
   9623SM   C4S12956   0.946   0.854  13.046 -0.1542 -0.1138  0.3876
   9623SM   H4S12957   0.889   0.944  13.073  2.4998  1.2918  1.7613
   9623SM   C5S12958   1.017   0.793  13.146  0.2336 -0.3929  0.1010
   9623SM   H5S12959   1.080   0.706  13.125  0.0622  0.1505 -3.1442
   9623SM   C6S12960   1.019   0.841  13.288 -0.4669 -0.1366 -0.0394
   9623SM   H6S12961   1.122   0.877  13.305 -0.1693 -0.5720 -0.8714
   9623SM   H6T12962   0.979   0.761  13.353  0.6711 -1.6865 -1.1708
   9623SM   C7S12963   0.913   0.956  13.332 -0.2529  0.0041  0.0292
   9623SM   H7S12964   0.809   0.934  13.298  0.2464  1.9652 -3.2196
   9623SM   H7T12965   0.947   1.049  13.282  1.8292 -0.0231  1.2789
   9623SM   C8S12966   0.899   0.975  13.480 -0.8375 -0.4131 -0.4123
   9623SM   H8S12967   0.853   0.886  13.527  1.1330  0.3053  3.2128
   9623SM   H8T12968   0.838   1.064  13.506  1.0120  0.7486  0.1022
   9623SM   C9S12969   1.031   1.015  13.555 -1.0535 -0.8765  0.4175
   9623SM   H9S12970   1.065   1.117  13.529 -0.4449 -1.0020  0.7129
   9623SM   H9T12971   1.108   0.940  13.526  1.4675  0.7287  2.5746
   9623SM  C10S12972   1.025   0.997  13.707 -0.2259  0.0439  0.3359
   9623SM  H10S12973   1.006   0.887  13.708  2.7940 -0.6842 -2.4918
   9623SM  H10T12974   0.935   1.052  13.742 -1.6351 -0.2838 -2.4610
   9623SM  C11S12975   1.166   1.022  13.776  0.1229 -0.3184 -0.9207
   9623SM  H11S12976   1.184   1.128  13.751  3.2014 -0.5298 -0.1361
   9623SM  H11T12977   1.243   0.948  13.744 -1.2786 -2.3665  0.1698
   9623SM  C12S12978   1.154   1.011  13.931  0.2265 -0.2638  0.1576
   9623SM  H12S12979   1.076   1.080  13.968  1.1977  1.2176 -0.4578
   9623SM  H12T12980   1.251   1.033  13.981  0.0196  3.5725 -0.8095
   9623SM  C13S12981   1.104   0.872  13.982  0.1355 -0.0193  0.0432
   9623SM  H13S12982   1.151   0.790  13.924 -2.6065 -2.2490  0.7557
   9623SM  H13T12983   0.994   0.859  13.975  0.2194 -0.7087 -0.0773
   9623SM  C14S12984   1.134   0.855  14.130  0.5213  0.1422  0.0654
   9623SM  H14S12985   1.243   0.833  14.136  0.7439  0.2382 -2.5523
   9623SM  H14T12986   1.076   0.767  14.167  0.0974 -0.6816 -2.3719
   9623SM  C15S12987   1.116   0.974  14.224 -0.8658  0.0468 -0.8052
   9623SM  H15S12988   1.014   1.018  14.227 -0.2602  1.4561  0.8196
   9623SM  H15T12989   1.188   1.052  14.192  0.3413 -1.1032 -0.9871
   9623SM  C16S12990   1.144   0.940  14.371  0.5609 -0.3034 -0.4666
   9623SM  H16S12991   1.242   0.889  14.381  1.2111  1.1531  0.9641
   9623SM  H16T12992   1.061   0.888  14.423 -0.1140 -2.0969 -3.1243
   9623SM  C17S12993   1.177   1.074  14.441 -0.2277  0.2425  0.0691
   9623SM  H17S12994   1.098   1.146  14.413  1.4375  2.7771  1.4362
   9623SM  H17T12995   1.281   1.098  14.410  0.7589 -2.8567  0.6298
   9623SM  C18S12996   1.193   1.048  14.589  0.4437 -0.5691 -0.5138
   9623SM  H18S12997   1.093   1.035  14.636  1.1525  1.8889  1.9446
   9623SM  H18T12998   1.231   1.141  14.636 -1.2409 -0.7561  1.3679
   9623SM  H18U12999   1.264   0.966  14.612  1.3785  0.5082  0.5350
   9623SM   C1F13000   0.557   0.881  12.926  0.8762  0.3893  0.5959
   9623SM    OF13001   0.498   0.778  12.902 -0.0571 -0.2186 -0.4566
   9623SM   C2F13002   0.479   0.996  12.975  0.8413  0.2412  0.6029
   9623SM   H2F13003   0.400   1.010  12.898 -0.2827 -3.2115  0.9861
   9623SM   H2G13004   0.547   1.084  12.968  2.4608 -1.0557 -1.4020
   9623SM   C3F13005   0.407   0.963  13.106 -0.3606  0.0155 -0.1867
   9623SM   H3F13006   0.362   0.863  13.092  1.2484 -0.5541 -1.6405
   9623SM   H3G13007   0.329   1.041  13.117  0.3806  0.4955  2.8305
   9623SM   C4F13008   0.501   0.967  13.225 -0.8677  0.3688 -0.0845
   9623SM   H4F13009   0.572   1.052  13.223 -0.6402  0.1821 -0.1076
   9623SM   H4G13010   0.544   0.864  13.218 -0.3923  0.6102 -0.9758
   9623SM   C5F13011   0.431   0.973  13.364  0.4884  0.5100 -0.1796
   9623SM   H5F13012   0.364   0.885  13.377  0.8444  0.1879 -0.5103
   9623SM   H5G13013   0.370   1.065  13.379  1.0971  0.8979 -0.0808
   9623SM   C6F13014   0.529   0.972  13.486  0.6456 -0.0879 -0.0962
   9623SM   H6F13015   0.583   1.069  13.487 -0.5361  0.6154 -0.9811
   9623SM   H6G13016   0.602   0.890  13.471  0.0536 -0.4674 -1.0263
   9623SM   C7F13017   0.452   0.951  13.618  0.0949 -0.1328 -0.4596
   9623SM   H7F13018   0.381   0.867  13.604  0.9326 -0.7950 -0.7919
   9623SM   H7G13019   0.380   1.034  13.636 -0.0213 -0.2476 -0.3941
   9623SM   C8F13020   0.550   0.928  13.737 -0.5653 -0.2830  0.1331
   9623SM   H8F13021   0.626   0.847  13.734 -0.9127 -0.6227  0.4385
   9623SM   H8G13022   0.488   0.894  13.822  0.4722 -0.2090  0.9512
   9623SM   C9F13023   0.623   1.057  13.775  0.1943  0.0746  0.3641
   9623SM   H9F13024   0.551   1.128  13.821 -1.6751 -0.7671 -1.1087
   9623SM   H9G13025   0.682   1.090  13.686  0.9860 -0.5595  0.6427
   9623SM  C10F13026   0.725   1.027  13.891 -0.3316 -0.1783  0.2122
   9623SM  H10F13027   0.799   1.111  13.890  0.1965 -0.5792  2.0092
   9623SM  H10G13028   0.782   0.932  13.878 -0.1019  0.2212 -2.1556
   9623SM  C11F13029   0.661   1.009  14.029 -0.3245 -0.7215  0.4816
   9623SM  H11F13030   0.617   0.908  14.018  1.3590 -1.5442  0.9354
   9623SM  H11G13031   0.585   1.088  14.047  2.3926  2.0470  0.6676
   9623SM  C12F13032   0.763   1.010  14.148  0.1840 -0.1489 -0.3250
   9623SM  H12F13033   0.835   1.093  14.132  0.6644 -0.5426 -0.2247
   9623SM  H12G13034   0.828   0.921  14.134  1.3439  1.1092 -4.3451
   9623SM  C13F13035   0.705   1.028  14.289  0.0184  0.2766 -0.0760
   9623SM  H13F13036   0.649   0.935  14.315 -1.1963  0.5241 -1.6694
   9623SM  H13G13037   0.629   1.108  14.278 -1.0683 -0.4171  1.8833
   9623SM  C14F13038   0.809   1.062  14.392 -0.3846 -0.1308 -0.3470
   9623SM  H14F13039   0.882   1.135  14.353 -1.1019  1.0472  0.4436
   9623SM  H14G13040   0.860   0.964  14.405 -0.3350 -0.0274  0.2688
   9623SM  C15F13041   0.743   1.111  14.517  0.2261 -0.3935  0.2272
   9623SM  H15F13042   0.662   1.046  14.557  0.5768  0.1983  1.9760
   9623SM  H15G13043   0.706   1.214  14.497  1.9141  0.4735  1.3422
   9623SM  C16F13044   0.840   1.138  14.630  0.1267 -0.6872 -0.3873
   9623SM  H16F13045   0.910   1.217  14.596  1.1820 -1.4043  0.0650
   9623SM  H16G13046   0.909   1.058  14.663  2.1204  1.6553  1.4992
   9623SM  C17F13047   0.764   1.195  14.756 -0.5160 -0.0643  0.2404
   9623SM  H17F13048   0.672   1.243  14.717  0.9546  1.8161 -1.0696
   9623SM  H17G13049   0.826   1.276  14.801  0.6109 -0.2187 -0.9892
   9623SM  C18F13050   0.738   1.097  14.866 -0.8362  0.2325  0.3634
   9623SM  H18F13051   0.830   1.047  14.903  0.3426  1.4044 -0.8578
   9623SM  H18G13052   0.664   1.024  14.827 -1.7089  0.6113  1.2695
   9623SM  C19F13053   0.675   1.163  14.996  0.1782  0.6215 -0.1989
   9623SM  H19F13054   0.590   1.229  14.968 -2.3081 -2.4252 -0.3104
   9623SM  H19G13055   0.752   1.228  15.044  0.4632  0.2844 -0.1981
   9623SM  C20F13056   0.639   1.053  15.103 -0.2292 -0.6045 -0.1713
   9623SM  H20F13057   0.616   1.094  15.203 -0.3139  0.7869 -0.7415
   9623SM  H20G13058   0.719   0.976  15.101 -1.7793 -2.3298  0.2877
   9623SM  C21F13059   0.506   0.975  15.089  0.0362 -0.6210 -0.0338
   9623SM  H21F13060   0.506   0.910  14.998 -0.4005  0.4041 -0.7894
   9623SM  H21G13061   0.424   1.049  15.081 -0.3089 -1.0370 -0.4408
   9623SM  C22F13062   0.475   0.899  15.218 -0.1344 -0.5984  0.7111
   9623SM  H22F13063   0.467   0.978  15.296  2.2100  0.1501  0.2735
   9623SM  H22G13064   0.557   0.831  15.253  0.3111 -1.0585 -1.1435
   9623SM  C23F13065   0.343   0.824  15.200  0.1074 -0.0563  0.3044
   9623SM  H23F13066   0.300   0.779  15.292  0.3539  0.5500  0.7304
   9623SM  H23G13067   0.364   0.742  15.129 -0.5096 -0.8748  1.0524
   9623SM  H23H13068   0.260   0.883  15.155  0.2658  0.7102  0.9899
   9723SM     N13069   2.750   1.027  12.818 -0.1062  0.5043 -0.3074
   9723SM   C1513070   2.693   0.911  12.736 -0.1842 -0.4410  0.4507
   9723SM  H15A13071   2.759   0.880  12.657  1.0606  0.6673  1.0201
   9723SM  H15B13072   2.593   0.939  12.705 -0.0686 -1.2936 -0.7450
   9723SM  H15C13073   2.692   0.829  12.806 -1.4144 -1.9883 -1.2830
   9723SM   C1413074   2.760   1.147  12.725 -0.5553 -0.0676  0.3157
   9723SM  H14A13075   2.832   1.139  12.645 -1.2490 -0.6178 -0.2599
   9723SM  H14B13076   2.784   1.239  12.778  0.4924  1.0387 -1.9564
   9723SM  H14C13077   2.667   1.161  12.673  0.8872  0.3304 -2.2826
   9723SM   C1313078   2.654   1.064  12.927 -0.4908  0.6122 -0.4395
   9723SM  H13A13079   2.698   1.147  12.980  1.5371 -0.2106 -0.7201
   9723SM  H13B13080   2.633   0.977  12.987  0.6154  0.8237  0.2869
   9723SM  H13C13081   2.558   1.100  12.895 -1.2723 -0.0263  1.0536
   9723SM   C1213082   2.871   0.993  12.892 -0.4815  0.4422 -0.4319
   9723SM  H12A13083   2.911   1.081  12.940 -1.0270  1.2039 -1.3166
   9723SM  H12B13084   2.949   0.966  12.823  1.9193  1.5243  1.7333
   9723SM   C1113085   2.864   0.880  12.993 -0.4702  0.3907  0.2626
   9723SM  H11A13086   2.789   0.890  13.074 -1.4142 -1.2159 -0.3691
   9723SM  H11B13087   2.958   0.887  13.053 -0.3661  1.4807 -0.0191
   9723SM     P13088   2.954   0.677  12.870 -0.1171  0.3623 -0.0587
   9723SM   O1313089   2.902   0.586  12.764  0.0098 -0.1546 -0.4648
   9723SM   O1413090   3.070   0.765  12.845  0.1438 -0.9731 -0.0195
   9723SM   O1113091   2.985   0.574  12.989  0.4562 -0.0757  0.1503
   9723SM   O1213092   2.832   0.754  12.929 -0.2031  0.0207  0.1713
   9723SM   C1S13093   3.063   0.619  13.092  0.5180  0.3285 -0.6590
   9723SM   H1S13094   3.101   0.723  13.092  3.4062 -0.6301  0.4712
   9723SM   H1T13095   3.155   0.556  13.090  0.7541  0.6514 -0.3124
   9723SM    NF13096   3.078   0.673  13.342  0.4153  0.3921 -0.5214
   9723SM   HNF13097   3.111   0.623  13.421 -1.8497 -1.3025 -0.5293
   9723SM   C2S13098   3.001   0.603  13.232  0.5297  0.6202 -0.5888
   9723SM   H2S13099   2.904   0.655  13.219 -1.3502 -2.7512 -1.2032
   9723SM   C3S13100   2.955   0.465  13.263 -0.1840  1.0055 -0.1578
   9723SM   H3S13101   3.043   0.399  13.280 -0.5358  0.1882 -1.3438
   9723SM    O313102   2.874   0.398  13.170  0.2403  0.0835  0.0196
   9723SM   HO313103   2.871   0.452  13.092  0.5650  0.1258  0.0360
   9723SM   C4S13104   2.869   0.477  13.385 -0.4783  0.0434 -0.1834
   9723SM   H4S13105   2.771   0.525  13.368  0.1875  1.4621 -0.1108
   9723SM   C5S13106   2.898   0.417  13.504 -0.4926  0.4248  0.0110
   9723SM   H5S13107   2.990   0.361  13.523 -0.2199  1.7840  3.3558
   9723SM   C6S13108   2.798   0.420  13.618  0.1955 -0.2078 -0.6740
   9723SM   H6S13109   2.711   0.352  13.612 -0.6892  0.9205 -0.9591
   9723SM   H6T13110   2.750   0.520  13.624 -1.5056 -1.0071 -0.6239
   9723SM   C7S13111   2.867   0.408  13.754 -0.5761 -0.2138 -0.0832
   9723SM   H7S13112   2.912   0.307  13.745 -2.3840 -1.0545 -0.3609
   9723SM   H7T13113   2.788   0.412  13.832 -1.7243  0.2632 -1.2126
   9723SM   C8S13114   2.969   0.508  13.781  0.2872 -1.1220 -1.0767
   9723SM   H8S13115   2.920   0.603  13.752 -1.1817 -1.0863  1.2419
   9723SM   H8T13116   3.051   0.487  13.709  0.3778  1.5754 -1.8550
   9723SM   C9S13117   3.002   0.509  13.932 -0.1589 -0.4725  0.4798
   9723SM   H9S13118   3.031   0.407  13.965 -1.7693 -1.4107 -0.8411
   9723SM   H9T13119   2.909   0.545  13.981 -0.1816 -0.1058  0.1717
   9723SM  C10S13120   3.121   0.610  13.944 -0.0790 -0.2955  0.2077
   9723SM  H10S13121   3.101   0.708  13.895 -0.9029  0.1140  1.3161
   9723SM  H10T13122   3.210   0.571  13.890  0.9135  0.0133  1.5711
   9723SM  C11S13123   3.164   0.614  14.087 -0.6954  0.9895  0.5636
   9723SM  H11S13124   3.263   0.664  14.093 -0.2273  0.3478 -1.2916
   9723SM  H11T13125   3.166   0.513  14.135 -0.6617  0.9265  0.4303
   9723SM  C12S13126   3.073   0.693  14.179  0.0366 -0.4151 -0.1425
   9723SM  H12S13127   2.972   0.646  14.177 -0.1724 -0.5570  4.3082
   9723SM  H12T13128   3.065   0.800  14.151  1.2028 -0.1369  0.5198
   9723SM  C13S13129   3.112   0.679  14.329 -0.1086  0.5197 -0.4914
   9723SM  H13S13130   3.211   0.729  14.341  0.4160 -0.5115 -0.3947
   9723SM  H13T13131   3.146   0.573  14.333  0.4404  0.7045 -0.2546
   9723SM  C14S13132   2.999   0.711  14.423 -0.1846 -0.8783 -0.1901
   9723SM  H14S13133   2.915   0.643  14.395  0.4195 -1.4851 -0.5677
   9723SM  H14T13134   2.962   0.815  14.417  1.6921 -0.1002  0.7912
   9723SM  C15S13135   3.055   0.710  14.564 -0.4498  0.4415 -0.1568
   9723SM  H15S13136   3.121   0.799  14.575 -1.2600  0.9879  0.4785
   9723SM  H15T13137   3.127   0.627  14.577  0.7223  1.3732 -0.5860
   9723SM  C16S13138   2.961   0.728  14.681 -0.2597  1.0939 -0.0113
   9723SM  H16S13139   2.895   0.817  14.670 -2.2485 -0.3193 -0.1086
   9723SM  H16T13140   3.021   0.748  14.771 -0.4901  0.3147  0.3270
   9723SM  C17S13141   2.883   0.602  14.724  0.0477 -0.4036 -0.1317
   9723SM  H17S13142   2.820   0.570  14.638  0.8442 -0.1353 -0.8251
   9723SM  H17T13143   2.816   0.633  14.807 -1.2303 -1.4419 -0.7269
   9723SM  C18S13144   2.978   0.487  14.749  0.5597  0.1101 -0.3260
   9723SM  H18S13145   3.034   0.446  14.662  0.6770 -1.1634  0.3278
   9723SM  H18T13146   2.918   0.403  14.790  0.0772  0.3945 -0.4409
   9723SM  H18U13147   3.056   0.521  14.821  2.1584  2.6117 -3.0232
   9723SM   C1F13148   3.106   0.802  13.330 -0.1974  0.2700 -0.3476
   9723SM    OF13149   3.036   0.880  13.279  0.4668  0.1781  0.6963
   9723SM   C2F13150   3.234   0.845  13.388 -0.1539  0.6654 -0.6570
   9723SM   H2F13151   3.281   0.920  13.321  0.1257  1.7731  0.7257
   9723SM   H2G13152   3.299   0.755  13.398  0.0429  0.9540  1.0196
   9723SM   C3F13153   3.230   0.884  13.542 -0.4492 -0.4707 -0.1483
   9723SM   H3F13154   3.201   0.787  13.587 -2.9477  0.9964  1.6339
   9723SM   H3G13155   3.154   0.961  13.568  1.1043  0.9002  0.4429
   9723SM   C4F13156   3.372   0.920  13.593 -0.8712 -0.0324  0.0088
   9723SM   H4F13157   3.401   1.020  13.556  1.2130  0.7319  3.2915
   9723SM   H4G13158   3.451   0.848  13.562 -0.1913  0.0773  1.4009
   9723SM   C5F13159   3.372   0.944  13.748  0.1438 -0.2945  0.4373
   9723SM   H5F13160   3.471   0.983  13.780  0.2880  0.1777 -0.5588
   9723SM   H5G13161   3.359   0.847  13.802  2.1663 -2.1413 -2.1321
   9723SM   C6F13162   3.263   1.048  13.788 -0.0961 -0.1982  0.1880
   9723SM   H6F13163   3.162   1.002  13.783 -0.3173 -0.3263  3.3472
   9723SM   H6G13164   3.270   1.130  13.713 -2.2083 -1.1020 -1.0701
   9723SM   C7F13165   3.278   1.098  13.932 -0.1102 -0.4937  0.1628
   9723SM   H7F13166   3.213   1.188  13.943  0.2325 -0.1046 -0.8681
   9723SM   H7G13167   3.383   1.133  13.937  0.2089 -1.4089 -0.1408
   9723SM   C8F13168   3.221   1.002  14.041  0.2351 -0.2927 -0.0877
   9723SM   H8F13169   3.263   0.901  14.020 -0.4446 -0.4287 -0.8437
   9723SM   H8G13170   3.112   0.993  14.022  0.4462 -3.4952 -0.3656
   9723SM   C9F13171   3.249   1.058  14.181  0.1902  0.2875  0.2954
   9723SM   H9F13172   3.190   0.994  14.251  1.7049 -1.9195 -0.3203
   9723SM   H9G13173   3.208   1.161  14.186  2.7708  1.4046 -0.0129
   9723SM  C10F13174   3.401   1.046  14.223  0.3563 -0.3493  0.6200
   9723SM  H10F13175   3.456   1.127  14.169  0.6256  0.2281  1.7437
   9723SM  H10G13176   3.429   0.943  14.192 -0.8074 -0.7544  0.8762
   9723SM  C11F13177   3.436   1.083  14.363 -0.6703 -0.4117 -0.0890
   9723SM  H11F13178   3.372   1.172  14.381  0.4125  0.3994 -0.1209
   9723SM  H11G13179   3.544   1.110  14.362 -0.7161 -0.2469 -0.7139
   9723SM  C12F13180   3.401   0.976  14.465 -0.1115 -0.1219 -0.6508
   9723SM  H12F13181   3.445   0.881  14.428 -0.7498 -0.3780 -0.7780
   9723SM  H12G13182   3.292   0.968  14.485 -0.5606  0.8116 -2.5558
   9723SM  C13F13183   3.476   1.000  14.595  0.2997  0.4189 -0.3853
   9723SM  H13F13184   3.580   1.034  14.578  0.8319 -1.7062 -1.7949
   9723SM  H13G13185   3.495   0.902  14.643  0.5728  0.8203  0.3367
   9723SM  C14F13186   3.398   1.092  14.686  0.0462  0.3181  0.3093
   9723SM  H14F13187   3.301   1.046  14.713 -1.7126  1.2442 -3.6346
   9723SM  H14G13188   3.373   1.186  14.633  3.2773  0.2320 -1.6812
   9723SM  C15F13189   3.472   1.139  14.812 -0.0590  0.1867  0.9849
   9723SM  H15F13190   3.564   1.196  14.788 -0.8082  1.3616  0.8218
   9723SM  H15G13191   3.510   1.050  14.867  1.2874 -0.1900 -0.4507
   9723SM  C16F13192   3.380   1.220  14.908  0.4865  0.4520  0.1302
   9723SM  H16F13193   3.338   1.303  14.847 -0.1141  1.8410  2.3035
   9723SM  H16G13194   3.442   1.268  14.987 -0.2599 -1.5791  2.0407
   9723SM  C17F13195   3.264   1.141  14.982 -0.4115  0.2902 -0.0528
   9723SM  H17F13196   3.238   1.206  15.067 -0.0732 -0.4019  0.5917
   9723SM  H17G13197   3.301   1.044  15.022 -0.6658 -0.8141 -2.2816
   9723SM  C18F13198   3.135   1.109  14.902  0.8225  0.3641  0.2120
   9723SM  H18F13199   3.146   1.030  14.824 -1.1035  1.0623 -0.8238
   9723SM  H18G13200   3.103   1.192  14.835  2.5310  1.3373  0.5413
   9723SM  C19F13201   3.014   1.057  14.988  0.7271  0.2141  0.3298
   9723SM  H19F13202   2.933   1.064  14.912  1.3873  0.6178 -0.3596
   9723SM  H19G13203   2.997   1.130  15.069  2.6113 -0.7012  1.6213
   9723SM  C20F13204   3.020   0.917  15.043 -0.0526 -0.6246 -0.9944
   9723SM  H20F13205   3.121   0.895  15.082 -0.8441 -0.3182  1.3608
   9723SM  H20G13206   2.998   0.851  14.956 -2.7387  0.0786 -0.9567
   9723SM  C21F13207   2.911   0.879  15.149 -0.4275 -0.2597  0.0788
   9723SM  H21F13208   2.922   0.961  15.222 -2.0053  0.0514  0.0048
   9723SM  H21G13209   2.932   0.784  15.202 -1.8021 -1.1734 -0.9199
   9723SM  C22F13210   2.774   0.885  15.085  0.0785  0.0197  0.4185
   9723SM  H22F13211   2.761   0.807  15.008  1.1867  1.0992 -0.9132
   9723SM  H22G13212   2.764   0.977  15.025 -3.1958  0.9193  2.1208
   9723SM  C23F13213   2.673   0.886  15.205  0.4320  0.3829 -0.5952
   9723SM  H23F13214   2.693   0.802  15.275  0.6616  0.3873 -0.6527
   9723SM  H23G13215   2.574   0.882  15.155 -0.5943 -1.5662  1.4187
   9723SM  H23H13216   2.683   0.981  15.261  2.2235  1.4776 -2.6306
   9823SM     N13217   5.332   6.475  12.482  0.3467  0.4941  0.7698
   9823SM   C1513218   5.437   6.533  12.575  0.3958  0.2390 -0.2362
   9823SM  H15A13219   5.532   6.532  12.523  0.2898 -1.4456 -0.4423
   9823SM  H15B13220   5.443   6.471  12.663 -2.0080 -1.9092 -1.4628
   9823SM  H15C13221   5.409   6.631  12.612  2.0919  0.8550 -0.4993
   9823SM   C1413222   5.309   6.560  12.357 -0.0348 -0.1198  0.8317
   9823SM  H14A13223   5.399   6.589  12.306 -0.2200  0.1566  0.6586
   9823SM  H14B13224   5.257   6.654  12.372  0.5266  0.8083 -2.2846
   9823SM  H14C13225   5.247   6.510  12.284  2.9178 -3.0598  0.1335
   9823SM   C1313226   5.401   6.345  12.432  0.0597 -0.5877  0.0320
   9823SM  H13A13227   5.435   6.287  12.516 -0.5184 -2.3582 -0.9068
   9823SM  H13B13228   5.489   6.368  12.375  0.5245  4.3020  2.2099
   9823SM  H13C13229   5.320   6.290  12.386  0.0819  0.3940 -1.2405
   9823SM   C1213230   5.204   6.447  12.561  0.1301  0.4418  0.4039
   9823SM  H12A13231   5.161   6.542  12.589 -0.0333  0.5644 -0.2540
   9823SM  H12B13232   5.223   6.398  12.656 -2.5185 -1.0341  0.2697
   9823SM   C1113233   5.090   6.361  12.491 -0.3257  0.3722 -0.6971
   9823SM  H11A13234   5.049   6.401  12.396  0.0324  0.3760 -0.8515
   9823SM  H11B13235   4.994   6.356  12.547 -0.1199  1.4063 -0.2360
   9823SM     P13236   5.179   6.113  12.553  0.2574  0.1502 -0.0507
   9823SM   O1313237   5.065   6.023  12.585  0.2855  0.2358  0.3893
   9823SM   O1413238   5.302   6.048  12.497  0.3212 -0.3823 -0.4008
   9823SM   O1113239   5.222   6.192  12.695 -0.4113 -0.3128 -0.2320
   9823SM   O1213240   5.124   6.225  12.457 -0.2196  0.1379  0.0243
   9823SM   C1S13241   5.119   6.214  12.795 -0.5525  0.7087  0.7308
   9823SM   H1S13242   5.030   6.147  12.791 -0.7070  0.8817  1.2540
   9823SM   H1T13243   5.071   6.312  12.772  1.6255  1.5070 -0.8088
   9823SM    NF13244   5.077   6.208  13.044  0.6476 -0.0912  0.0469
   9823SM   HNF13245   5.058   6.295  13.089 -1.3326  0.3273 -1.4755
   9823SM   C2S13246   5.181   6.214  12.940 -0.1515 -0.3102  0.0794
   9823SM   H2S13247   5.233   6.116  12.942 -0.2575 -0.5182 -3.0188
   9823SM   C3S13248   5.282   6.330  12.963  0.1473 -0.6923  0.2045
   9823SM   H3S13249   5.226   6.427  12.962  1.4326  0.0768  0.6259
   9823SM    O313250   5.371   6.349  12.856  0.0816  0.1460 -0.4865
   9823SM   HO313251   5.362   6.288  12.782  1.9512 -1.6088  0.6136
   9823SM   C4S13252   5.346   6.315  13.101  0.1032 -1.0193 -0.1885
   9823SM   H4S13253   5.284   6.357  13.182  1.8164 -0.6183  0.9657
   9823SM   C5S13254   5.462   6.260  13.125  0.4601 -1.2491  0.2924
   9823SM   H5S13255   5.511   6.214  13.038  0.2657 -1.1476  0.1290
   9823SM   C6S13256   5.534   6.248  13.254  0.3188 -0.2341 -0.0206
   9823SM   H6S13257   5.641   6.227  13.232  0.3082 -0.1012 -0.1984
   9823SM   H6T13258   5.498   6.152  13.295  0.5332 -0.7693 -1.0404
   9823SM   C7S13259   5.519   6.355  13.362 -0.4827  0.6967  0.2436
   9823SM   H7S13260   5.414   6.372  13.394 -1.6409 -1.4061 -2.1087
   9823SM   H7T13261   5.546   6.446  13.304  1.5193 -0.3839 -0.6012
   9823SM   C8S13262   5.612   6.333  13.482 -0.3653  0.2308  0.2780
   9823SM   H8S13263   5.610   6.419  13.552  1.3560  0.5002  0.0402
   9823SM   H8T13264   5.715   6.327  13.443  0.6400  0.7365  2.6595
   9823SM   C9S13265   5.572   6.210  13.566 -0.6210 -0.4053 -0.6314
   9823SM   H9S13266   5.598   6.105  13.539 -2.8885 -1.0358 -0.5082
   9823SM   H9T13267   5.462   6.214  13.576 -0.5799  3.0041 -0.6308
   9823SM  C10S13268   5.618   6.223  13.716 -0.2796  0.0002  0.0874
   9823SM  H10S13269   5.629   6.330  13.743 -0.1645  0.2701 -0.9935
   9823SM  H10T13270   5.716   6.171  13.723 -0.0040  0.2515 -1.5988
   9823SM  C11S13271   5.523   6.142  13.813  0.5479 -0.1454  0.7614
   9823SM  H11S13272   5.520   6.038  13.773 -0.8478 -1.2223  3.3926
   9823SM  H11T13273   5.418   6.176  13.806  0.7761  0.9684  2.1829
   9823SM  C12S13274   5.578   6.148  13.958 -0.1872 -0.1846 -0.5963
   9823SM  H12S13275   5.579   6.251  14.001  0.9286  0.2231 -1.5338
   9823SM  H12T13276   5.684   6.117  13.945 -0.7659 -2.3460 -0.5065
   9823SM  C13S13277   5.505   6.055  14.049 -0.2751 -0.0821  0.7388
   9823SM  H13S13278   5.484   5.958  13.999  0.5817  0.1702 -0.1398
   9823SM  H13T13279   5.405   6.100  14.065 -0.7148 -0.0734 -1.6386
   9823SM  C14S13280   5.580   6.028  14.179 -0.2469 -0.2458 -0.2184
   9823SM  H14S13281   5.618   6.126  14.213 -0.9766 -0.3078  0.8259
   9823SM  H14T13282   5.676   5.981  14.148 -0.5347 -1.1187  0.1762
   9823SM  C15S13283   5.502   5.955  14.282  0.0109  0.4302 -0.3757
   9823SM  H15S13284   5.495   5.848  14.251  1.4884  0.6941 -1.7813
   9823SM  H15T13285   5.398   5.991  14.299 -0.0328 -0.5083  1.5825
   9823SM  C16S13286   5.580   5.942  14.421  0.0323  0.0910 -0.4750
   9823SM  H16S13287   5.589   6.045  14.460  2.1788  0.1600 -1.0444
   9823SM  H16T13288   5.680   5.895  14.412 -0.1247 -0.3116 -0.1520
   9823SM  C17S13289   5.497   5.860  14.527  0.5403  0.2738 -0.4853
   9823SM  H17S13290   5.393   5.899  14.518  0.2655 -0.7385 -1.9734
   9823SM  H17T13291   5.539   5.894  14.624  2.8673 -0.9950 -0.9877
   9823SM  C18S13292   5.486   5.707  14.513  0.1978  0.0638  0.1175
   9823SM  H18S13293   5.441   5.650  14.598 -2.1426 -0.5463 -1.4361
   9823SM  H18T13294   5.588   5.666  14.497  0.8409  0.7708  2.0890
   9823SM  H18U13295   5.424   5.684  14.424 -0.0994 -1.1596  0.6166
   9823SM   C1F13296   4.999   6.102  13.071 -0.1274 -0.7571 -0.1219
   9823SM    OF13297   5.031   5.996  13.021  0.2733  0.1530  0.5819
   9823SM   C2F13298   4.882   6.121  13.149  0.1410  0.4726  0.1272
   9823SM   H2F13299   4.857   6.229  13.151 -0.3159  0.3593  1.1579
   9823SM   H2G13300   4.905   6.088  13.252  0.8118 -0.3621 -0.2806
   9823SM   C3F13301   4.761   6.056  13.096  0.3484 -0.1455  0.0350
   9823SM   H3F13302   4.773   5.946  13.089 -2.9721 -0.5748 -1.2605
   9823SM   H3G13303   4.743   6.090  12.991  0.6798  1.4808  0.4748
   9823SM   C4F13304   4.628   6.099  13.172  0.5219 -0.1351  0.6481
   9823SM   H4F13305   4.548   6.047  13.116  1.4686 -0.8270 -0.0974
   9823SM   H4G13306   4.627   6.210  13.163 -0.9007 -0.2334 -0.8950
   9823SM   C5F13307   4.604   6.074  13.326  0.0748 -0.9927  0.1897
   9823SM   H5F13308   4.691   6.102  13.388 -0.7574 -1.8804  1.8114
   9823SM   H5G13309   4.583   5.968  13.349 -0.8954 -0.5694  1.3549
   9823SM   C6F13310   4.483   6.158  13.367 -0.2045  0.1419  0.0253
   9823SM   H6F13311   4.398   6.149  13.295 -0.4294  1.6078  0.0775
   9823SM   H6G13312   4.523   6.261  13.378  0.5321  0.1808 -2.4506
   9823SM   C7F13313   4.423   6.091  13.495 -0.2315 -0.7887  0.0310
   9823SM   H7F13314   4.430   5.980  13.497  1.6614 -0.7052 -0.0122
   9823SM   H7G13315   4.320   6.131  13.495 -0.2578 -0.7615  2.0952
   9823SM   C8F13316   4.489   6.134  13.629 -0.0865  0.2854 -0.6961
   9823SM   H8F13317   4.479   6.245  13.637  1.9651  0.6379 -2.1084
   9823SM   H8G13318   4.597   6.108  13.627  0.2441  1.4165  0.6173
   9823SM   C9F13319   4.426   6.064  13.745 -0.0521  0.0485 -0.1461
   9823SM   H9F13320   4.431   5.955  13.727  0.4205  0.0617 -0.0995
   9823SM   H9G13321   4.317   6.089  13.743 -0.0087  0.3054  0.4727
   9823SM  C10F13322   4.489   6.099  13.881 -0.5495 -0.2989  0.3851
   9823SM  H10F13323   4.427   6.185  13.913 -0.7173  0.2174 -1.2168
   9823SM  H10G13324   4.593   6.140  13.873 -1.3272  2.0052  1.2692
   9823SM  C11F13325   4.473   5.974  13.963 -0.4776 -0.0588  0.1459
   9823SM  H11F13326   4.535   5.894  13.917 -0.5573  0.6994 -1.3160
   9823SM  H11G13327   4.365   5.948  13.963 -1.4057  3.2944 -0.6248
   9823SM  C12F13328   4.504   5.992  14.114 -0.1618 -0.4407  0.4615
   9823SM  H12F13329   4.428   6.055  14.164 -1.3993 -0.8724 -0.8192
   9823SM  H12G13330   4.603   6.043  14.119 -0.0144 -0.4950 -1.3929
   9823SM  C13F13331   4.515   5.854  14.175 -0.0696 -0.4898 -0.7014
   9823SM  H13F13332   4.586   5.793  14.116 -0.8164 -0.6852 -1.4271
   9823SM  H13G13333   4.426   5.788  14.170  0.7542 -1.5556 -2.0926
   9823SM  C14F13334   4.571   5.863  14.315  0.1511  0.3503  0.1301
   9823SM  H14F13335   4.527   5.943  14.378 -2.1306 -1.5057  1.0446
   9823SM  H14G13336   4.677   5.896  14.305  0.9711 -2.1335 -0.0584
   9823SM  C15F13337   4.563   5.733  14.389 -0.3656 -0.2997 -0.5536
   9823SM  H15F13338   4.588   5.640  14.334 -0.2499 -0.1299 -0.7880
   9823SM  H15G13339   4.456   5.719  14.418 -0.2144  1.8850  1.3274
   9823SM  C16F13340   4.643   5.737  14.520 -0.3881 -0.0448  0.9136
   9823SM  H16F13341   4.619   5.827  14.582 -0.2738  1.7673 -1.5133
   9823SM  H16G13342   4.752   5.733  14.499 -0.5624 -1.5701  0.1632
   9823SM  C17F13343   4.614   5.607  14.604  0.0673  0.3788 -0.3797
   9823SM  H17F13344   4.659   5.517  14.556  1.0421  0.0490  1.0690
   9823SM  H17G13345   4.503   5.600  14.609  0.1708 -0.8456  1.1012
   9823SM  C18F13346   4.658   5.618  14.753 -0.1498 -0.0090 -0.5339
   9823SM  H18F13347   4.614   5.701  14.812  0.1684 -1.1341  1.3759
   9823SM  H18G13348   4.767   5.635  14.753 -0.1434 -0.0511 -0.6616
   9823SM  C19F13349   4.640   5.486  14.822 -0.5155 -0.4907 -0.5157
   9823SM  H19F13350   4.708   5.413  14.774 -0.1978 -1.0802  0.7713
   9823SM  H19G13351   4.534   5.452  14.812 -0.5074 -0.9722  0.7444
   9823SM  C20F13352   4.675   5.482  14.974 -0.8306 -0.1302  0.0986
   9823SM  H20F13353   4.582   5.491  15.036  0.2047 -2.7823  2.2607
   9823SM  H20G13354   4.754   5.556  14.998 -0.8596 -0.0637 -0.0144
   9823SM  C21F13355   4.747   5.352  15.016  0.7250 -0.4399  0.2726
   9823SM  H21F13356   4.695   5.268  14.964  0.8612  0.3723 -1.2244
   9823SM  H21G13357   4.733   5.335  15.125  0.0316 -1.2790  0.0677
   9823SM  C22F13358   4.893   5.351  14.985 -0.6218  0.7069 -0.0844
   9823SM  H22F13359   4.940   5.445  15.020  1.3520  0.2273 -1.2601
   9823SM  H22G13360   4.921   5.341  14.877  1.2258 -1.5517  0.5240
   9823SM  C23F13361   4.949   5.232  15.070 -0.7614  1.0844  0.0889
   9823SM  H23F13362   4.911   5.244  15.174  1.1267  1.0395  0.8220
   9823SM  H23G13363   5.060   5.235  15.076 -0.5628 -1.0543 -1.5670
   9823SM  H23H13364   4.920   5.135  15.026 -3.2607  1.0907  1.4866
   9923SM     N13365   0.267   0.763  12.617 -0.7876  0.1537  0.9810
   9923SM   C1513366   0.382   0.671  12.651 -0.5907 -0.0098 -0.1092
   9923SM  H15A13367   0.475   0.677  12.596  1.6761 -2.5752  3.0537
   9923SM  H15B13368   0.336   0.573  12.644 -0.8632  0.0293  1.0715
   9923SM  H15C13369   0.411   0.674  12.754 -0.5142 -4.2855  0.1786
   9923SM   C1413370   0.298   0.892  12.682  0.4460  0.2044 -0.3648
   9923SM  H14A13371   0.314   0.879  12.788 -0.1242 -0.3925 -0.3509
   9923SM  H14B13372   0.218   0.963  12.667 -0.3142 -0.3724  0.7985
   9923SM  H14C13373   0.391   0.930  12.641  0.2297  0.3720 -0.6988
   9923SM   C1313374   0.280   0.787  12.469  0.2551  0.1647  1.1148
   9923SM  H13A13375   0.214   0.869  12.446  0.4568  0.4933  1.6768
   9923SM  H13B13376   0.258   0.694  12.418  1.5660  0.5461 -0.1999
   9923SM  H13C13377   0.381   0.812  12.441 -0.1348 -0.0705 -0.6294
   9923SM   C1213378   0.131   0.713  12.660 -0.0890 -0.6553 -0.8188
   9923SM  H12A13379   0.057   0.788  12.638  0.7629 -0.2795 -2.6394
   9923SM  H12B13380   0.138   0.720  12.767 -1.3832 -1.6742 -0.6439
   9923SM   C1113381   0.084   0.572  12.617  0.0900  0.2594  0.3904
   9923SM  H11A13382   0.156   0.491  12.642 -1.8424 -0.7896  2.9827
   9923SM  H11B13383   0.085   0.572  12.505  1.3875 -1.1887  0.3567
   9923SM     P13384  -0.114   0.409  12.692 -0.0871  0.0575  0.4893
   9923SM   O1313385  -0.265   0.415  12.685  0.4495  0.2952 -0.5074
   9923SM   O1413386  -0.053   0.307  12.609 -0.4484  0.2227  0.2376
   9923SM   O1113387  -0.068   0.378  12.842  0.5787  0.2482 -0.5403
   9923SM   O1213388  -0.044   0.553  12.665 -0.0249  0.4898 -1.0482
   9923SM   C1S13389  -0.030   0.486  12.929 -0.9844  1.0091 -0.8747
   9923SM   H1S13390  -0.112   0.560  12.939 -1.0126  0.8680  0.0138
   9923SM   H1T13391   0.058   0.539  12.886  0.7365 -1.9043 -1.1835
   9923SM    NF13392   0.060   0.563  13.142 -0.4201  0.5599  0.0656
   9923SM   HNF13393   0.160   0.567  13.143 -0.4234  1.6634  2.0426
   9923SM   C2S13394   0.017   0.444  13.072 -0.0739  0.0349 -0.1904
   9923SM   H2S13395  -0.068   0.408  13.133  1.4947 -0.3975  1.8515
   9923SM   C3S13396   0.118   0.327  13.053  0.5804  0.5083  0.3483
   9923SM   H3S13397   0.193   0.373  12.985 -2.0905  4.4095 -0.2816
   9923SM    O313398   0.068   0.210  12.988 -0.0935 -0.0695  0.4478
   9923SM   HO313399  -0.010   0.248  12.945 -0.6361  0.9533  2.2291
   9923SM   C4S13400   0.187   0.286  13.175  0.6792  0.0591  0.1493
   9923SM   H4S13401   0.285   0.335  13.183  0.8555 -0.3175  0.3050
   9923SM   C5S13402   0.141   0.211  13.272 -0.2777  0.7997 -0.2703
   9923SM   H5S13403   0.042   0.162  13.268  0.1629 -0.0550 -0.9947
   9923SM   C6S13404   0.221   0.198  13.400  1.0392  0.1939 -0.2300
   9923SM   H6S13405   0.319   0.252  13.397  0.5196  1.2810  1.4419
   9923SM   H6T13406   0.227   0.090  13.423  0.2423  0.0411 -0.7101
   9923SM   C7S13407   0.134   0.251  13.525 -0.1255 -0.5847  0.8864
   9923SM   H7S13408   0.026   0.230  13.508 -0.4994  2.4486 -1.1611
   9923SM   H7T13409   0.134   0.362  13.522  0.3541 -0.5684  1.4301
   9923SM   C8S13410   0.178   0.204  13.660 -0.0816  0.0604  0.5097
   9923SM   H8S13411   0.285   0.227  13.682  0.1397 -1.7207  1.5341
   9923SM   H8T13412   0.175   0.093  13.666  0.4176  0.1112  1.9179
   9923SM   C9S13413   0.105   0.254  13.786 -0.0779 -0.0128  0.0754
   9923SM   H9S13414  -0.005   0.248  13.775  0.0665  1.0831 -2.5842
   9923SM   H9T13415   0.123   0.363  13.799 -0.2454  0.6185 -3.9070
   9923SM  C10S13416   0.133   0.168  13.908  0.5766  0.5287 -0.8374
   9923SM  H10S13417   0.243   0.152  13.904  0.2518 -2.0315 -1.8887
   9923SM  H10T13418   0.096   0.064  13.893 -0.2417  0.2338  2.4399
   9923SM  C11S13419   0.065   0.213  14.043  0.1659  0.1372  0.1200
   9923SM  H11S13420   0.096   0.140  14.120  0.1888 -0.7931 -0.7352
   9923SM  H11T13421  -0.045   0.192  14.040  0.2820 -0.4456 -0.6861
   9923SM  C12S13422   0.103   0.361  14.083 -0.0058 -0.2420  0.1683
   9923SM  H12S13423   0.082   0.432  14.001  0.8239  0.9624  0.9760
   9923SM  H12T13424   0.210   0.368  14.108  0.0845  1.8854 -0.5905
   9923SM  C13S13425   0.013   0.398  14.205  0.7096  0.5785  0.1358
   9923SM  H13S13426   0.031   0.328  14.289 -1.4488  0.4221  0.5151
   9923SM  H13T13427  -0.093   0.381  14.177  0.9877 -0.7168 -0.1743
   9923SM  C14S13428   0.025   0.540  14.252  0.2303  0.1649 -0.9499
   9923SM  H14S13429  -0.014   0.619  14.184 -4.7805 -0.6554  0.5253
   9923SM  H14T13430   0.133   0.549  14.275  0.4504 -2.5895 -0.5285
   9923SM  C15S13431  -0.073   0.568  14.373 -0.1847 -0.5677  0.1334
   9923SM  H15S13432  -0.039   0.513  14.464 -1.5992 -1.6998  0.0204
   9923SM  H15T13433  -0.177   0.543  14.341 -0.4579 -0.4243  0.8830
   9923SM  C16S13434  -0.074   0.716  14.421  0.7100 -0.1724  0.8434
   9923SM  H16S13435  -0.103   0.788  14.341 -2.2033 -2.3127 -0.1989
   9923SM  H16T13436   0.017   0.748  14.476 -0.4567 -0.7364  3.2546
   9923SM  C17S13437  -0.190   0.730  14.524  0.6545  0.2418  0.4004
   9923SM  H17S13438  -0.177   0.654  14.603 -0.3476 -0.2274  0.1317
   9923SM  H17T13439  -0.282   0.699  14.469  1.4083 -1.4370  0.0257
   9923SM  C18S13440  -0.211   0.875  14.573 -0.2899  0.0393 -0.0356
   9923SM  H18S13441  -0.117   0.918  14.613 -0.4347  1.6296 -1.2726
   9923SM  H18T13442  -0.295   0.891  14.644 -0.7458  0.1519 -0.5950
   9923SM  H18U13443  -0.233   0.937  14.483 -1.1055  1.6354  1.1904
   9923SM   C1F13444  -0.011   0.663  13.179  0.2294  0.1160 -0.5276
   9923SM    OF13445  -0.132   0.657  13.152 -0.4365 -0.3013 -0.1380
   9923SM   C2F13446   0.057   0.766  13.263  0.0988 -0.3410 -0.1221
   9923SM   H2F13447   0.131   0.816  13.196  1.4840 -1.5606  0.4432
   9923SM   H2G13448   0.106   0.708  13.344 -0.0486 -0.8666 -0.4053
   9923SM   C3F13449  -0.036   0.877  13.325  0.6250  0.2583 -0.2567
   9923SM   H3F13450  -0.134   0.833  13.353  1.4755 -0.5778  1.5609
   9923SM   H3G13451  -0.059   0.957  13.252 -1.4617  0.3630  0.4321
   9923SM   C4F13452   0.023   0.946  13.446  0.2140  0.2781 -0.3864
   9923SM   H4F13453  -0.037   1.036  13.472  0.9729  1.2621 -1.8344
   9923SM   H4G13454   0.128   0.981  13.432 -0.1558  2.0829  1.0185
   9923SM   C5F13455   0.009   0.861  13.576  0.3056  0.6742 -0.6732
   9923SM   H5F13456   0.072   0.769  13.569  0.0390  0.5107 -0.9613
   9923SM   H5G13457  -0.092   0.830  13.610  1.6278 -1.6194  1.6114
   9923SM   C6F13458   0.064   0.931  13.702  0.1831 -0.0697 -0.0375
   9923SM   H6F13459   0.041   1.039  13.705  0.7340  0.0228  1.7494
   9923SM   H6G13460   0.175   0.925  13.690  0.2303 -2.8524  0.9570
   9923SM   C7F13461   0.030   0.867  13.841 -0.3216 -0.5523  0.8462
   9923SM   H7F13462   0.080   0.767  13.840  0.3710 -0.2134 -0.2040
   9923SM   H7G13463  -0.081   0.856  13.842 -0.5868  1.5258 -0.5449
   9923SM   C8F13464   0.087   0.951  13.957  0.7124 -0.2848  0.4316
   9923SM   H8F13465   0.004   1.019  13.985 -1.3046 -1.6006 -1.9043
   9923SM   H8G13466   0.170   1.012  13.915 -0.4512  0.7893 -0.3751
   9923SM   C9F13467   0.144   0.868  14.075  0.3417 -0.0758  0.0426
   9923SM   H9F13468   0.233   0.809  14.046 -0.2269 -0.6325 -0.6050
   9923SM   H9G13469   0.056   0.806  14.104 -0.4697  0.2262 -1.6279
   9923SM  C10F13470   0.178   0.969  14.186 -0.0409  0.6321 -0.1421
   9923SM  H10F13471   0.104   1.046  14.215  0.1221  1.0463 -0.8049
   9923SM  H10G13472   0.256   1.032  14.140 -0.7222  1.0483 -0.7584
   9923SM  C11F13473   0.245   0.899  14.302 -0.0655  0.4735  0.1214
   9923SM  H11F13474   0.305   0.812  14.267  0.5916  0.5819  0.9693
   9923SM  H11G13475   0.174   0.849  14.371  0.3884  2.5936  2.2463
   9923SM  C12F13476   0.344   0.988  14.379 -0.5921  1.1078  0.1366
   9923SM  H12F13477   0.401   1.047  14.304  1.6393 -0.6413  0.3588
   9923SM  H12G13478   0.421   0.930  14.434 -1.0674 -2.2692 -2.4002
   9923SM  C13F13479   0.276   1.071  14.493 -0.1861  0.2708 -0.9597
   9923SM  H13F13480   0.189   1.127  14.451 -0.5461  1.9358  1.8059
   9923SM  H13G13481   0.365   1.135  14.511  0.1687 -0.8035  1.4719
   9923SM  C14F13482   0.248   0.981  14.617  0.6923 -0.0164  0.0309
   9923SM  H14F13483   0.328   0.905  14.634 -0.5032 -0.8272  2.6866
   9923SM  H14G13484   0.158   0.926  14.582 -1.3228  2.4978  0.9721
   9923SM  C15F13485   0.221   1.054  14.747 -0.7155  0.2178  0.0620
   9923SM  H15F13486   0.129   1.114  14.734 -1.1469 -0.2565  0.8516
   9923SM  H15G13487   0.307   1.118  14.777 -0.0304 -0.7906  0.3195
   9923SM  C16F13488   0.212   0.952  14.856  0.2120  0.2421 -0.4008
   9923SM  H16F13489   0.188   1.000  14.954  2.3448  0.5436  0.0112
   9923SM  H16G13490   0.310   0.905  14.877 -0.3223 -1.7642 -2.0833
   9923SM  C17F13491   0.085   0.866  14.848 -0.0962  0.1823  0.4627
   9923SM  H17F13492   0.060   0.836  14.744 -2.7554  1.2580  0.7257
   9923SM  H17G13493  -0.006   0.922  14.876  1.6379  4.2532 -1.3706
   9923SM  C18F13494   0.102   0.739  14.940  0.0429 -0.0606 -0.2866
   9923SM  H18F13495   0.090   0.779  15.043 -1.3298  3.0694 -1.5514
   9923SM  H18G13496   0.203   0.693  14.936  0.1565 -0.0505  1.5330
   9923SM  C19F13497   0.001   0.625  14.915  1.0084  0.1715 -0.3013
   9923SM  H19F13498   0.027   0.534  14.973  0.5652  1.1628  1.5331
   9923SM  H19G13499   0.008   0.585  14.812 -1.1072 -1.3416  0.0612
   9923SM  C20F13500  -0.158   0.655  14.930 -0.1562  0.7405 -0.4658
   9923SM  H20F13501  -0.183   0.736  14.858 -0.5954  0.3509 -0.7665
   9923SM  H20G13502  -0.165   0.703  15.030 -0.2671 -0.6666  0.2276
   9923SM  C21F13503  -0.246   0.528  14.917  0.3286 -0.3542 -0.2523
   9923SM  H21F13504  -0.217   0.470  15.007 -1.2180 -1.4035 -0.3958
   9923SM  H21G13505  -0.224   0.461  14.831 -0.3167 -0.2447 -0.5090
   9923SM  C22F13506  -0.392   0.566  14.926 -0.6083  0.0599 -0.2821
   9923SM  H22F13507  -0.410   0.607  15.028  1.8464  0.3679  0.0879
   9923SM  H22G13508  -0.453   0.474  14.913  0.0245 -0.1614 -1.8350
   9923SM  C23F13509  -0.433   0.663  14.817  0.4619 -0.4210  0.5786
   9923SM  H23F13510  -0.419   0.613  14.719 -0.8123  1.5153 -0.6488
   9923SM  H23G13511  -0.374   0.757  14.821  1.7676 -0.9997 -2.6133
   9923SM  H23H13512  -0.541   0.689  14.815  0.6477  0.3729  0.6154
  10023SM     N13513   5.801   0.383  12.357 -0.2112  0.3928  0.0657
  10023SM   C1513514   5.897   0.498  12.371  0.8080 -0.4939  0.4493
  10023SM  H15A13515   5.944   0.521  12.277  0.3109 -0.7443  0.1351
  10023SM  H15B13516   5.977   0.468  12.437  0.1041 -1.8330  0.7263
  10023SM  H15C13517   5.840   0.583  12.407  1.6509  1.6520 -2.8397
  10023SM   C1413518   5.694   0.433  12.267 -0.2701  0.0277  0.3413
  10023SM  H14A13519   5.626   0.352  12.247  0.9130 -1.2541  1.2742
  10023SM  H14B13520   5.735   0.481  12.179 -1.8687  0.0620 -0.4198
  10023SM  H14C13521   5.639   0.511  12.317  1.3615  2.0453 -0.8313
  10023SM   C1313522   5.867   0.266  12.290 -0.1669  0.5698 -0.1915
  10023SM  H13A13523   5.923   0.288  12.200 -0.0475  0.9652 -0.0217
  10023SM  H13B13524   5.796   0.187  12.271  0.2130 -1.5171  5.3018
  10023SM  H13C13525   5.933   0.222  12.363  1.2186  1.2790 -0.9825
  10023SM   C1213526   5.750   0.340  12.490  0.5710  0.5580  0.3391
  10023SM  H12A13527   5.832   0.300  12.548 -0.2302 -1.0394  0.4414
  10023SM  H12B13528   5.682   0.257  12.475  1.7744 -0.1305 -1.6892
  10023SM   C1113529   5.677   0.447  12.575  0.8252  0.0463 -0.2150
  10023SM  H11A13530   5.613   0.399  12.652  0.2764  1.4057  0.2081
  10023SM  H11B13531   5.597   0.498  12.517  0.1445  2.1193  2.3692
  10023SM     P13532   5.885   0.491  12.726 -0.0662 -0.5266 -0.1376
  10023SM   O1313533   5.927   0.349  12.701  0.3996 -0.4810  0.2965
  10023SM   O1413534   5.993   0.589  12.721  0.0470 -0.1599  0.0647
  10023SM   O1113535   5.804   0.494  12.857  0.1745  0.7759 -0.3890
  10023SM   O1213536   5.766   0.537  12.636  0.3652 -0.1481 -0.7010
  10023SM   C1S13537   5.738   0.616  12.897 -0.3704 -0.4815  0.2073
  10023SM   H1S13538   5.638   0.602  12.851  0.6690 -3.4751 -1.4730
  10023SM   H1T13539   5.781   0.708  12.853  2.9501 -2.0169 -0.0484
  10023SM    NF13540   5.635   0.736  13.092  0.6237  0.8675  0.3678
  10023SM   HNF13541   5.679   0.820  13.122  2.0743  0.2365  0.0729
  10023SM   C2S13542   5.730   0.631  13.052  0.1933 -0.2141  0.8659
  10023SM   H2S13543   5.683   0.533  13.077  0.4815 -0.5020  0.2946
  10023SM   C3S13544   5.872   0.645  13.108 -0.0144  0.2791  0.8297
  10023SM   H3S13545   5.917   0.742  13.077 -0.5140  0.2257 -0.0800
  10023SM    O313546   5.972   0.560  13.046 -0.9201 -0.0787  0.1420
  10023SM   HO313547   5.915   0.523  12.978 -0.3344  0.4929 -0.6797
  10023SM   C4S13548   5.879   0.647  13.267  0.0216 -0.4350  0.7179
  10023SM   H4S13549   5.889   0.745  13.316  2.3265 -0.9024  1.3219
  10023SM   C5S13550   5.918   0.545  13.350 -0.3318  0.3737  0.0531
  10023SM   H5S13551   5.937   0.444  13.310  1.3255  0.9549 -0.7285
  10023SM   C6S13552   5.947   0.552  13.495  0.0517  0.9522 -0.4324
  10023SM   H6S13553   6.052   0.520  13.511  0.5290  2.4088 -0.4393
  10023SM   H6T13554   5.871   0.488  13.544  1.3841 -0.9904 -0.7950
  10023SM   C7S13555   5.932   0.697  13.548 -0.7005  0.4704 -0.0407
  10023SM   H7S13556   5.824   0.721  13.551 -0.6659  0.6220 -0.0359
  10023SM   H7T13557   5.987   0.770  13.485  0.4259 -1.0199 -0.8544
  10023SM   C8S13558   5.998   0.718  13.687  0.7274  0.0945  0.8234
  10023SM   H8S13559   5.984   0.826  13.706 -0.3182 -0.0373  0.8380
  10023SM   H8T13560   6.107   0.694  13.688  0.7424  0.0969 -0.0449
  10023SM   C9S13561   5.932   0.642  13.805  0.4599 -0.0592  0.8721
  10023SM   H9S13562   5.944   0.532  13.802 -0.2009 -0.1099 -0.8907
  10023SM   H9T13563   5.823   0.661  13.794  0.2560 -0.3024  2.2583
  10023SM  C10S13564   5.991   0.699  13.942 -0.2801  0.3360 -0.2409
  10023SM  H10S13565   6.036   0.800  13.927  0.0498  0.2639  0.2487
  10023SM  H10T13566   6.076   0.631  13.964 -0.9394 -0.2954  0.3737
  10023SM  C11S13567   5.896   0.688  14.064  0.7765  0.2975  0.2705
  10023SM  H11S13568   5.878   0.580  14.083  2.0139 -0.1843 -1.0421
  10023SM  H11T13569   5.809   0.751  14.035  2.0328  0.9096 -2.5530
  10023SM  C12S13570   5.966   0.728  14.199  0.1406 -0.4606  0.0884
  10023SM  H12S13571   5.990   0.837  14.201 -1.6017 -0.0414  2.4541
  10023SM  H12T13572   6.056   0.663  14.202 -0.5530 -1.6333 -2.1823
  10023SM  C13S13573   5.884   0.699  14.325 -0.6355 -0.0961 -0.2428
  10023SM  H13S13574   5.864   0.590  14.327 -0.6819 -0.1353 -1.7835
  10023SM  H13T13575   5.784   0.747  14.329 -0.1848  0.7879  1.3412
  10023SM  C14S13576   5.977   0.727  14.438 -0.2536  0.3626  0.2739
  10023SM  H14S13577   6.067   0.663  14.431  0.2081  0.9513  0.6759
  10023SM  H14T13578   5.926   0.697  14.532 -1.7972  0.7822 -0.4004
  10023SM  C15S13579   6.016   0.881  14.455  0.1981  0.5919  0.3934
  10023SM  H15S13580   5.928   0.942  14.425 -0.1297  1.1228  2.3068
  10023SM  H15T13581   6.100   0.897  14.383  0.9894 -0.9004  0.9458
  10023SM  C16S13582   6.033   0.916  14.601  0.5031 -0.5828  0.3174
  10023SM  H16S13583   6.098   0.842  14.653  2.1801  0.7911  0.2768
  10023SM  H16T13584   5.935   0.921  14.653 -0.8115 -1.2458 -1.9777
  10023SM  C17S13585   6.091   1.061  14.612 -0.1650 -0.2021 -0.1383
  10023SM  H17S13586   6.003   1.129  14.607 -0.3257 -0.1143  2.3911
  10023SM  H17T13587   6.168   1.073  14.532  0.0313 -0.6276 -0.0147
  10023SM  C18S13588   6.148   1.094  14.749  0.4167 -1.2085 -0.1401
  10023SM  H18S13589   6.195   1.194  14.745 -0.9420 -0.5036  0.7450
  10023SM  H18T13590   6.233   1.027  14.773 -0.9024 -3.3333 -1.1509
  10023SM  H18U13591   6.068   1.092  14.827 -0.3294 -2.9907 -0.8862
  10023SM   C1F13592   5.502   0.726  13.059 -0.0762 -0.0316  0.4616
  10023SM    OF13593   5.454   0.613  13.042 -0.8467 -0.5550 -0.2442
  10023SM   C2F13594   5.424   0.857  13.032  0.0587 -0.2063 -0.4339
  10023SM   H2F13595   5.397   0.856  12.925 -1.5456  3.0477 -0.1740
  10023SM   H2G13596   5.490   0.945  13.048  0.0987 -0.4951  1.2404
  10023SM   C3F13597   5.286   0.856  13.109 -0.3298  0.1795  0.0386
  10023SM   H3F13598   5.240   0.755  13.109 -0.4054  0.1561  2.2129
  10023SM   H3G13599   5.213   0.928  13.066  1.3483  1.8681 -0.1164
  10023SM   C4F13600   5.311   0.871  13.262 -0.2885 -0.1933  0.8141
  10023SM   H4F13601   5.328   0.979  13.279 -2.6158  0.3075  0.2608
  10023SM   H4G13602   5.405   0.817  13.287  0.1928 -1.3783 -2.8321
  10023SM   C5F13603   5.208   0.815  13.354  0.4494 -0.3004  0.3289
  10023SM   H5F13604   5.173   0.713  13.328  0.1703  0.1323 -1.0829
  10023SM   H5G13605   5.118   0.880  13.341 -0.3499 -1.0747  1.7663
  10023SM   C6F13606   5.236   0.837  13.503  0.2504 -0.2234  0.6899
  10023SM   H6F13607   5.246   0.946  13.522  0.1003 -0.1590  0.4147
  10023SM   H6G13608   5.330   0.782  13.526 -0.4474 -1.3946  0.8495
  10023SM   C7F13609   5.134   0.771  13.592  0.4867 -0.6039 -0.0427
  10023SM   H7F13610   5.122   0.664  13.564 -0.7283 -0.3071 -0.7457
  10023SM   H7G13611   5.035   0.816  13.570  1.8615  2.9769  0.4205
  10023SM   C8F13612   5.163   0.771  13.743 -0.0088  0.3417 -0.0292
  10023SM   H8F13613   5.271   0.747  13.752  0.2213  0.6589 -1.6239
  10023SM   H8G13614   5.089   0.696  13.779 -1.4858  0.6934 -2.1519
  10023SM   C9F13615   5.133   0.916  13.799 -0.3184 -0.3950 -0.1950
  10023SM   H9F13616   5.031   0.942  13.765 -0.2421  1.2292  0.7093
  10023SM   H9G13617   5.206   0.982  13.749  0.3114  0.1914  1.4177
  10023SM  C10F13618   5.160   0.939  13.952 -0.2446 -0.0299 -0.1582
  10023SM  H10F13619   5.143   1.044  13.982 -0.6709  0.2950 -1.4931
  10023SM  H10G13620   5.269   0.933  13.975 -0.5846  1.6131  2.3081
  10023SM  C11F13621   5.098   0.846  14.056 -0.6765  0.3169 -0.5038
  10023SM  H11F13622   5.122   0.740  14.034  1.2784  1.0518 -2.2355
  10023SM  H11G13623   4.987   0.859  14.052 -0.7830 -0.0059  0.9939
  10023SM  C12F13624   5.152   0.894  14.194 -0.3376 -0.2335 -0.2029
  10023SM  H12F13625   5.095   0.988  14.207 -2.9803 -1.4606 -1.8876
  10023SM  H12G13626   5.261   0.915  14.195 -0.3663  0.0400 -1.3742
  10023SM  C13F13627   5.106   0.804  14.310 -0.4077  0.4263 -0.1965
  10023SM  H13F13628   5.159   0.706  14.308  1.5447  1.3771 -3.5814
  10023SM  H13G13629   4.995   0.801  14.309 -0.4464  1.4464 -0.7986
  10023SM  C14F13630   5.156   0.855  14.443  0.0056  0.5713  0.1880
  10023SM  H14F13631   5.171   0.965  14.435  3.5404  0.2801  1.1087
  10023SM  H14G13632   5.256   0.810  14.461  0.9664  2.8562  0.9668
  10023SM  C15F13633   5.052   0.821  14.552 -0.0704 -0.7012  0.5174
  10023SM  H15F13634   5.056   0.711  14.569  0.6791 -0.5746  1.2160
  10023SM  H15G13635   4.949   0.844  14.517 -0.8796 -1.3327  2.3658
  10023SM  C16F13636   5.080   0.884  14.689  0.3010  0.0654  0.6784
  10023SM  H16F13637   5.068   0.993  14.672  0.0760 -0.1726 -0.8872
  10023SM  H16G13638   5.188   0.868  14.709  1.5366  2.4487 -3.0240
  10023SM  C17F13639   4.988   0.826  14.796 -0.0021  0.4832 -0.2692
  10023SM  H17F13640   4.943   0.726  14.774  1.2222 -0.2168  0.3229
  10023SM  H17G13641   4.897   0.890  14.805 -1.2111 -1.4293  2.3537
  10023SM  C18F13642   5.062   0.811  14.929 -0.1664 -0.2515  0.2622
  10023SM  H18F13643   5.135   0.730  14.909 -0.8710 -0.8471  0.0548
  10023SM  H18G13644   4.991   0.778  15.008 -1.8711  1.8515 -0.2902
  10023SM  C19F13645   5.138   0.932  14.988 -0.0385 -0.4987  0.2613
  10023SM  H19F13646   5.217   0.970  14.920 -1.5626  0.3229 -1.1304
  10023SM  H19G13647   5.187   0.898  15.082 -1.0829  1.6080  1.6476
  10023SM  C20F13648   5.047   1.052  15.020  0.8282  0.7293  0.0563
  10023SM  H20F13649   4.961   1.032  15.087  0.2529  0.5367 -0.7281
  10023SM  H20G13650   4.995   1.074  14.924 -0.1540 -3.2874 -0.5286
  10023SM  C21F13651   5.112   1.180  15.072 -0.6658 -0.7411  0.5633
  10023SM  H21F13652   5.040   1.261  15.095  2.0966  2.2810 -0.5760
  10023SM  H21G13653   5.168   1.241  14.998 -0.4999 -1.6253 -0.0598
  10023SM  C22F13654   5.192   1.170  15.208  0.5925  0.1176  0.2547
  10023SM  H22F13655   5.265   1.086  15.206  1.4717  0.8590  0.5135
  10023SM  H22G13656   5.115   1.140  15.282  1.2435 -0.0649  0.8796
  10023SM  C23F13657   5.269   1.295  15.242 -0.0187  0.7779 -0.1504
  10023SM  H23F13658   5.348   1.304  15.164  1.3647 -2.6146  0.6808
  10023SM  H23G13659   5.325   1.286  15.338 -0.9107  0.1948  0.3192
  10023SM  H23H13660   5.208   1.387  15.252 -0.3442  0.4941  0.4891
  101CHL1    C313661   3.777   5.205  16.781 -0.8146  0.2154 -0.7256
  101CHL1    H313662   3.734   5.305  16.756  0.1963  1.3722  1.7435
  101CHL1    O313663   3.786   5.231  16.920 -0.5620  0.1694  0.1319
  101CHL1   H3'13664   3.816   5.323  16.922  0.0639 -0.0068 -0.7034
  101CHL1    C413665   3.674   5.093  16.759  0.5522  0.8822  0.8339
  101CHL1   H4A13666   3.718   5.005  16.811 -0.2591  1.0970  1.9452
  101CHL1   H4B13667   3.583   5.125  16.815  0.3043  1.2755  0.2123
  101CHL1    C513668   3.656   5.078  16.611  0.5362 -0.3684  0.8555
  101CHL1    C613669   3.532   5.104  16.564  0.0335  0.4622 -0.1046
  101CHL1    H613670   3.445   5.122  16.629 -0.4426 -0.3358 -0.5034
  101CHL1    C713671   3.498   5.099  16.415 -0.5538  0.4524 -0.5858
  101CHL1   H7A13672   3.404   5.044  16.393 -1.2614  1.4538 -0.1908
  101CHL1   H7B13673   3.470   5.199  16.374 -2.4379 -0.2791 -1.2217
  101CHL1    C813674   3.612   5.035  16.333 -0.1759  0.0671  0.1916
  101CHL1    H813675   3.602   4.929  16.364  0.2918  0.0760  0.3795
  101CHL1   C1413676   3.588   5.055  16.182 -0.7326  0.0540  0.4747
  101CHL1   H1413677   3.593   5.165  16.169 -0.0041  0.0366  0.5606
  101CHL1   C1513678   3.457   5.025  16.127  0.5557  0.2652 -0.2917
  101CHL1  H15A13679   3.407   4.932  16.161  0.9036 -0.0065 -0.5160
  101CHL1  H15B13680   3.378   5.100  16.149 -2.3877 -2.7655  0.2036
  101CHL1   C1613681   3.483   5.009  15.981 -0.8826  0.3725  0.5407
  101CHL1  H16A13682   3.443   4.917  15.933  0.6881 -0.7866  1.3614
  101CHL1  H16B13683   3.439   5.099  15.934 -0.5815  2.3514  3.7822
  101CHL1   C1713684   3.632   5.026  15.954 -0.1163  0.8345 -0.5430
  101CHL1   H1713685   3.660   5.133  15.946 -0.6880  0.9167 -1.7204
  101CHL1   C1313686   3.695   4.994  16.089  0.5315 -0.2783 -0.2724
  101CHL1   C1813687   3.694   4.845  16.110 -0.2916  0.4550  0.2201
  101CHL1  H18A13688   3.608   4.785  16.074  0.0823  0.3999 -0.5926
  101CHL1  H18B13689   3.780   4.801  16.055  0.9007  2.4410  0.3596
  101CHL1  H18C13690   3.719   4.812  16.213  2.2626  0.1604 -0.4134
  101CHL1   C1213691   3.822   5.063  16.132 -1.0744  0.0711  0.5815
  101CHL1  H12A13692   3.911   5.027  16.076 -1.3772  0.3263 -0.0620
  101CHL1  H12B13693   3.830   5.171  16.107  1.2353 -0.6463 -2.4554
  101CHL1   C1113694   3.864   5.036  16.279  0.1669 -0.4552 -0.2711
  101CHL1  H11A13695   3.876   4.926  16.295  0.2234 -0.4151 -0.0305
  101CHL1  H11B13696   3.952   5.100  16.299  0.9152 -1.2136 -1.0726
  101CHL1    C913697   3.751   5.082  16.371  0.9513  0.1359 -0.4814
  101CHL1    H913698   3.744   5.193  16.360  3.3646  0.3974  0.0076
  101CHL1   C1013699   3.782   5.056  16.525 -0.1324  0.4826  0.8897
  101CHL1   C1913700   3.821   4.906  16.544  0.4242 -0.4687  0.0753
  101CHL1  H19A13701   3.786   4.867  16.642 -1.9231 -0.0254 -0.5233
  101CHL1  H19B13702   3.757   4.840  16.482  1.2582 -2.9920  1.7151
  101CHL1  H19C13703   3.922   4.875  16.510  0.2469 -2.3838  1.1509
  101CHL1    C113704   3.896   5.151  16.568 -0.5798 -0.0063  0.2931
  101CHL1   H1A13705   3.989   5.109  16.524 -0.1669  0.6725  0.4973
  101CHL1   H1B13706   3.895   5.252  16.521 -0.8384  0.4325  1.2166
  101CHL1    C213707   3.907   5.163  16.722 -0.2446 -0.3095 -0.3222
  101CHL1   H2A13708   3.980   5.244  16.742 -0.9561  0.5212 -1.0706
  101CHL1   H2B13709   3.948   5.064  16.753  1.5485  0.0490 -1.4345
  101CHL1   C2013710   3.681   4.947  15.829  0.3293 -0.3913  0.2482
  101CHL1   H2013711   3.673   4.838  15.849  0.3501 -0.0510  2.2444
  101CHL1   C2113712   3.829   4.987  15.794  0.0747 -0.0804 -0.1530
  101CHL1  H21A13713   3.852   4.933  15.700 -2.1050 -0.7455 -0.3517
  101CHL1  H21B13714   3.899   4.937  15.863 -0.0557 -0.7901 -0.5204
  101CHL1  H21C13715   3.841   5.097  15.788 -2.1746  0.1691 -1.3840
  101CHL1   C2213716   3.592   4.975  15.710 -0.4636  0.1899 -0.6783
  101CHL1  H22A13717   3.638   4.922  15.624 -2.9167 -0.0828 -1.9036
  101CHL1  H22B13718   3.490   4.933  15.720 -2.4694  4.7657  0.5350
  101CHL1   C2313719   3.577   5.128  15.673  0.1596  0.5525 -0.8905
  101CHL1  H23A13720   3.527   5.175  15.761  0.0099  1.6325 -1.5408
  101CHL1  H23B13721   3.678   5.174  15.663  0.0896  0.5617 -1.5778
  101CHL1   C2413722   3.488   5.149  15.548  0.5005 -0.4038 -0.1888
  101CHL1  H24A13723   3.521   5.086  15.463 -0.8612  1.0159 -1.8477
  101CHL1  H24B13724   3.390   5.106  15.580 -0.0642 -0.0198 -1.3702
  101CHL1   C2513725   3.473   5.296  15.490  0.1029  0.8002 -0.3150
  101CHL1   H2513726   3.575   5.337  15.501 -0.3960  1.3649  3.9995
  101CHL1   C2613727   3.416   5.292  15.341 -0.1420  0.2257 -0.5789
  101CHL1  H26A13728   3.305   5.290  15.337 -0.1483 -1.9382 -0.3820
  101CHL1  H26B13729   3.456   5.381  15.287  1.9577 -1.9073 -2.8224
  101CHL1  H26C13730   3.448   5.199  15.289  2.3872 -0.4210  1.8828
  101CHL1   C2713731   3.391   5.392  15.575  0.4655  0.3224 -0.4466
  101CHL1  H27A13732   3.283   5.367  15.571 -0.1039  2.5751 -0.3245
  101CHL1  H27B13733   3.405   5.375  15.684  0.1331 -2.6886 -0.7867
  101CHL1  H27C13734   3.401   5.499  15.548  1.3347  0.5647  0.7477
  102CHL1    C313735   0.805   5.000  16.491 -0.6059 -0.0317  0.0498
  102CHL1    H313736   0.909   5.033  16.470 -0.8313  0.8484  0.2780
  102CHL1    O313737   0.778   4.998  16.629 -0.1664  0.2170 -0.0352
  102CHL1   H3'13738   0.701   4.942  16.641 -0.5174  0.1633 -2.2420
  102CHL1    C413739   0.705   5.097  16.418 -0.0409  0.0426 -0.4347
  102CHL1   H4A13740   0.609   5.050  16.447  1.2189 -2.1518  0.4684
  102CHL1   H4B13741   0.713   5.200  16.458  0.1514 -0.1903  0.1417
  102CHL1    C513742   0.727   5.096  16.271  0.3032 -0.1980  0.3587
  102CHL1    C613743   0.743   5.208  16.199 -0.1937  0.0384  0.3924
  102CHL1    H613744   0.732   5.308  16.242 -3.0108  0.1630 -0.4667
  102CHL1    C713745   0.751   5.210  16.045 -0.0342 -0.4246 -0.3193
  102CHL1   H7A13746   0.680   5.286  16.006 -3.5470 -1.6698  2.9922
  102CHL1   H7B13747   0.853   5.243  16.016  0.8187 -0.2275  2.5719
  102CHL1    C813748   0.716   5.075  15.976  0.3288 -0.4255 -0.2548
  102CHL1    H813749   0.605   5.067  15.981  0.2548  0.9197  1.7597
  102CHL1   C1413750   0.764   5.078  15.832 -1.4810  0.6039  0.4449
  102CHL1   H1413751   0.874   5.089  15.840 -1.3032 -0.1525 -0.8215
  102CHL1   C1513752   0.715   5.197  15.753 -0.6007  0.3347  0.3294
  102CHL1  H15A13753   0.605   5.201  15.771 -0.4807  3.6453  0.9507
  102CHL1  H15B13754   0.764   5.293  15.780  0.2932  0.3536 -1.1999
  102CHL1   C1613755   0.755   5.157  15.606  0.4453  0.1277 -0.5792
  102CHL1  H16A13756   0.663   5.162  15.545  0.5615  1.1294 -0.6835
  102CHL1  H16B13757   0.830   5.229  15.567  0.0476  0.1935 -1.2428
  102CHL1   C1713758   0.806   5.005  15.616  0.0422  0.0202 -0.0672
  102CHL1   H1713759   0.916   5.013  15.627  0.1769  2.4070 -2.2654
  102CHL1   C1313760   0.748   4.952  15.749 -0.8853  0.6452  0.3488
  102CHL1   C1813761   0.602   4.915  15.734  1.2281 -0.6392  0.1414
  102CHL1  H18A13762   0.543   4.925  15.827  1.3673  0.9755  0.0851
  102CHL1  H18B13763   0.550   4.970  15.653  1.8696 -1.6787 -1.0070
  102CHL1  H18C13764   0.599   4.808  15.707  1.0557 -0.8987  1.1470
  102CHL1   C1213765   0.818   4.845  15.822 -0.2402 -0.0593 -0.8293
  102CHL1  H12A13766   0.794   4.741  15.790 -1.0242 -0.3763  0.7229
  102CHL1  H12B13767   0.927   4.854  15.803 -0.1501  1.0390  0.0893
  102CHL1   C1113768   0.793   4.839  15.979  0.4791  0.3674  0.3695
  102CHL1  H11A13769   0.704   4.775  15.999 -0.1141  0.9080 -0.4683
  102CHL1  H11B13770   0.880   4.789  16.027  0.6816  0.6549  0.3022
  102CHL1    C913771   0.777   4.969  16.056 -0.1135  0.1156 -0.1835
  102CHL1    H913772   0.880   5.005  16.076 -0.3506  0.1949  0.9160
  102CHL1   C1013773   0.715   4.957  16.206 -0.1736 -0.3887  0.0879
  102CHL1   C1913774   0.575   4.903  16.209  0.0964 -0.0644  0.5396
  102CHL1  H19A13775   0.557   4.819  16.139  2.4750  1.2603 -1.8200
  102CHL1  H19B13776   0.540   4.876  16.311 -2.1433  2.0580  0.4398
  102CHL1  H19C13777   0.504   4.980  16.171 -1.6463 -0.7887  2.1810
  102CHL1    C113778   0.813   4.863  16.281 -0.5646  0.0744  0.1142
  102CHL1   H1A13779   0.812   4.760  16.240 -0.3530 -0.1141  0.5709
  102CHL1   H1B13780   0.919   4.896  16.268 -0.6316  0.0132 -0.6015
  102CHL1    C213781   0.793   4.861  16.434 -0.2236  0.1066  0.3265
  102CHL1   H2A13782   0.869   4.793  16.478  0.4558  1.5928  1.5452
  102CHL1   H2B13783   0.697   4.810  16.459  0.6174 -1.6800  0.0759
  102CHL1   C2013784   0.772   4.922  15.485  0.0832 -0.1375 -1.0011
  102CHL1   H2013785   0.665   4.922  15.455  0.6280  0.0428 -3.0613
  102CHL1   C2113786   0.824   4.775  15.494  0.1688  0.4715 -0.0986
  102CHL1  H21A13787   0.929   4.776  15.529 -0.2407 -3.4556  1.7942
  102CHL1  H21B13788   0.816   4.723  15.396  2.4841  0.3485 -0.2626
  102CHL1  H21C13789   0.771   4.715  15.572 -2.0944  2.1441 -0.2410
  102CHL1   C2213790   0.817   5.000  15.359 -0.3459 -0.7843  0.2855
  102CHL1  H22A13791   0.751   5.089  15.348 -3.6505 -2.7644  2.4385
  102CHL1  H22B13792   0.922   5.036  15.356 -0.5520 -0.1281 -3.5635
  102CHL1   C2313793   0.791   4.919  15.229  0.2602 -0.1724  0.0969
  102CHL1  H23A13794   0.856   4.829  15.222 -0.7507 -0.8212 -1.5225
  102CHL1  H23B13795   0.682   4.894  15.225 -0.2898  2.0293  0.0724
  102CHL1   C2413796   0.820   5.008  15.112 -0.4137 -0.6606  0.5943
  102CHL1  H24A13797   0.806   5.116  15.130 -0.8265 -0.6478  0.2239
  102CHL1  H24B13798   0.927   4.984  15.092  0.0984  1.2606  0.8376
  102CHL1   C2513799   0.755   4.967  14.974 -0.8963 -0.0030  0.2991
  102CHL1   H2513800   0.809   5.034  14.904  0.4509 -1.0004  0.3453
  102CHL1   C2613801   0.801   4.823  14.934  0.2350 -0.1463 -0.6210
  102CHL1  H26A13802   0.910   4.808  14.949  0.1301  1.0043  1.6281
  102CHL1  H26B13803   0.739   4.753  14.994  0.4721 -0.6347 -0.9378
  102CHL1  H26C13804   0.763   4.805  14.831  1.1235  0.7268 -1.1198
  102CHL1   C2713805   0.605   4.980  14.970 -0.0473 -0.2398  0.2239
  102CHL1  H27A13806   0.551   4.899  15.023 -0.7135 -1.3354 -2.0414
  102CHL1  H27B13807   0.577   5.075  15.020 -1.2795 -0.9727  0.9853
  102CHL1  H27C13808   0.564   4.976  14.867 -0.3893 -4.5352  0.3480
  103CHL1    C313809   2.106   4.433  16.831  0.5653  0.8949 -0.3714
  103CHL1    H313810   2.214   4.419  16.853 -0.0525  0.6735  3.1098
  103CHL1    O313811   2.051   4.485  16.950 -1.0359  0.4371 -0.3968
  103CHL1   H3'13812   2.086   4.420  17.012 -1.0779 -0.2961 -1.1165
  103CHL1    C413813   2.073   4.534  16.719 -0.3659  0.8710 -0.2105
  103CHL1   H4A13814   1.962   4.536  16.712 -0.4175 -1.2371 -0.6784
  103CHL1   H4B13815   2.112   4.633  16.749  0.4644  0.1912  1.0345
  103CHL1    C513816   2.135   4.489  16.588 -0.1081 -0.3307  0.2952
  103CHL1    C613817   2.226   4.561  16.517 -1.0029  0.6603  0.0815
  103CHL1    H613818   2.261   4.660  16.551  0.0539  0.2655  0.1728
  103CHL1    C713819   2.277   4.521  16.380 -0.3631  0.4524 -0.0118
  103CHL1   H7A13820   2.296   4.617  16.328  1.2328  0.8827  1.2514
  103CHL1   H7B13821   2.377   4.476  16.397  0.3193  0.0565 -4.0850
  103CHL1    C813822   2.183   4.414  16.321  0.5632  0.0760  0.2273
  103CHL1    H813823   2.087   4.459  16.290  1.0660  0.2674 -1.1462
  103CHL1   C1413824   2.258   4.362  16.193  0.7951  0.0197 -0.2599
  103CHL1   H1413825   2.356   4.322  16.229  0.7850  0.4704  0.2803
  103CHL1   C1513826   2.277   4.469  16.075 -0.3507 -0.1880 -0.6837
  103CHL1  H15A13827   2.185   4.531  16.070  0.6215  1.2977 -0.8623
  103CHL1  H15B13828   2.359   4.540  16.101 -0.8991  0.1686  0.1415
  103CHL1   C1613829   2.292   4.380  15.954 -0.9985 -0.0494  0.0311
  103CHL1  H16A13830   2.216   4.417  15.883 -0.8819  1.2076  0.5326
  103CHL1  H16B13831   2.393   4.389  15.908 -1.9218  3.2864 -1.6159
  103CHL1   C1713832   2.267   4.232  15.999  0.3451  0.2546  0.7765
  103CHL1   H1713833   2.371   4.208  16.032  0.7378 -0.6378 -1.0011
  103CHL1   C1313834   2.183   4.239  16.130 -0.2119  0.3409  0.4148
  103CHL1   C1813835   2.038   4.271  16.092  0.1660  0.4585 -0.4570
  103CHL1  H18A13836   1.991   4.173  16.073  1.2917 -0.4135  1.0523
  103CHL1  H18B13837   1.985   4.308  16.182 -1.2625 -1.7110 -0.3416
  103CHL1  H18C13838   2.028   4.343  16.008  1.1800 -0.8858 -1.7825
  103CHL1   C1213839   2.194   4.125  16.228  0.3103  0.3152  0.1606
  103CHL1  H12A13840   2.136   4.043  16.181  0.9700  0.8558 -1.7338
  103CHL1  H12B13841   2.299   4.097  16.247  0.2566  0.6661  0.9918
  103CHL1   C1113842   2.119   4.163  16.365  0.2049 -0.3811  0.2584
  103CHL1  H11A13843   2.011   4.162  16.336  0.5089  2.4117 -1.3171
  103CHL1  H11B13844   2.136   4.071  16.425  0.8093 -1.0563 -0.8886
  103CHL1    C913845   2.161   4.303  16.421 -0.5431  0.5467  0.2026
  103CHL1    H913846   2.264   4.282  16.457 -0.6847 -0.8413 -0.1449
  103CHL1   C1013847   2.090   4.350  16.544  0.2618  0.2583 -0.1944
  103CHL1   C1913848   1.940   4.351  16.511  0.7722 -0.3427  0.4148
  103CHL1  H19A13849   1.897   4.248  16.521 -1.8468  0.4335 -1.7416
  103CHL1  H19B13850   1.867   4.410  16.571 -1.0904  2.0627 -3.8351
  103CHL1  H19C13851   1.916   4.387  16.409 -2.0147  0.4181  1.2356
  103CHL1    C113852   2.110   4.252  16.665  0.1106  0.3614  0.0491
  103CHL1   H1A13853   2.053   4.164  16.631 -0.5445  1.0135 -0.5670
  103CHL1   H1B13854   2.218   4.224  16.668 -0.1446 -0.7796 -1.0995
  103CHL1    C213855   2.045   4.297  16.800  0.0746 -0.0843 -0.1503
  103CHL1   H2A13856   2.054   4.223  16.882 -1.1613  0.8791  0.8923
  103CHL1   H2B13857   1.935   4.313  16.798  0.3556  2.4519  0.9228
  103CHL1   C2013858   2.216   4.131  15.897  0.0686 -0.3168 -0.1824
  103CHL1   H2013859   2.105   4.135  15.907  0.2724  0.9257  2.3427
  103CHL1   C2113860   2.274   3.997  15.930  0.4083  0.0984  0.8668
  103CHL1  H21A13861   2.303   3.999  16.037  1.0647  1.6671  0.6827
  103CHL1  H21B13862   2.352   3.954  15.863 -1.6916 -0.8719 -1.1093
  103CHL1  H21C13863   2.192   3.922  15.920 -0.6038  1.2565  0.2906
  103CHL1   C2213864   2.234   4.171  15.743 -0.0630  0.0709 -0.6478
  103CHL1  H22A13865   2.171   4.260  15.720 -0.5154 -0.4203 -1.3707
  103CHL1  H22B13866   2.334   4.216  15.726  0.6374 -0.9824  0.5084
  103CHL1   C2313867   2.206   4.056  15.649  0.7415  0.2929 -0.0975
  103CHL1  H23A13868   2.279   3.973  15.655 -1.1418 -1.3306  2.5210
  103CHL1  H23B13869   2.110   4.012  15.684  2.0881 -1.0375  2.1671
  103CHL1   C2413870   2.201   4.090  15.504  0.6692 -0.3656  0.1622
  103CHL1  H24A13871   2.110   4.150  15.483  1.0330 -0.1088 -0.7232
  103CHL1  H24B13872   2.281   4.165  15.493  0.1515  0.2388  0.4352
  103CHL1   C2513873   2.220   3.982  15.408  0.9568  0.6987  0.4009
  103CHL1   H2513874   2.314   3.924  15.423  0.7328  0.2371  0.0606
  103CHL1   C2613875   2.103   3.881  15.395  0.4249  0.3131 -0.9248
  103CHL1  H26A13876   2.120   3.807  15.314  1.5951 -1.2184  0.6354
  103CHL1  H26B13877   2.108   3.828  15.493  1.2455  0.2213 -1.0137
  103CHL1  H26C13878   2.010   3.937  15.373 -0.1525 -0.3630 -0.2614
  103CHL1   C2713879   2.234   4.054  15.268  0.7725 -0.2792  0.2867
  103CHL1  H27A13880   2.245   3.983  15.183  0.8138 -0.7358  0.6668
  103CHL1  H27B13881   2.141   4.112  15.251  0.5499 -0.0165  2.2163
  103CHL1  H27C13882   2.317   4.128  15.257  0.1495  0.3077 -0.5907
  104CHL1    C313883   4.824   4.277  16.698  0.3141  0.1073 -0.1132
  104CHL1    H313884   4.731   4.328  16.665  1.0517  1.7335  0.2202
  104CHL1    O313885   4.807   4.239  16.835  0.0155  0.4371  0.8196
  104CHL1   H3'13886   4.816   4.316  16.891  1.8446  0.7630  0.1370
  104CHL1    C413887   4.831   4.144  16.604  0.1622 -0.1537 -0.7253
  104CHL1   H4A13888   4.908   4.074  16.644  0.1412 -0.0685 -0.5342
  104CHL1   H4B13889   4.730   4.101  16.622 -0.2775  0.9894 -0.4040
  104CHL1    C513890   4.852   4.170  16.457  0.2575  0.0038 -0.2569
  104CHL1    C613891   4.770   4.123  16.366  0.0531  0.7428  0.0988
  104CHL1    H613892   4.682   4.062  16.395 -1.9275  2.0114 -2.7507
  104CHL1    C713893   4.779   4.156  16.216 -0.5890 -0.0326  0.5469
  104CHL1   H7A13894   4.750   4.079  16.142  0.4808  1.5643 -1.6451
  104CHL1   H7B13895   4.714   4.239  16.180 -0.0638  0.1941  0.0971
  104CHL1    C813896   4.926   4.192  16.179  0.2543  0.3442 -0.0297
  104CHL1    H813897   4.993   4.104  16.192  1.6992  1.1649 -1.4335
  104CHL1   C1413898   4.932   4.246  16.030  0.7427  0.3051  0.1031
  104CHL1   H1413899   4.850   4.321  16.026  1.4415  1.0240 -1.9867
  104CHL1   C1513900   4.890   4.161  15.909  0.7339  0.0247  0.5240
  104CHL1  H15A13901   4.939   4.061  15.904 -0.7727 -0.7042 -0.3884
  104CHL1  H15B13902   4.782   4.136  15.900  0.7312  0.1028  0.3257
  104CHL1   C1613903   4.936   4.245  15.788  0.4051  0.4727 -0.2150
  104CHL1  H16A13904   4.972   4.180  15.706 -0.4333 -1.0548  0.5767
  104CHL1  H16B13905   4.850   4.301  15.747  0.9090  2.6120  1.4817
  104CHL1   C1713906   5.040   4.350  15.850  0.0188 -0.9005  0.3493
  104CHL1   H1713907   4.993   4.448  15.873  0.9923  0.1031 -1.7314
  104CHL1   C1313908   5.069   4.298  15.991  0.7956 -0.2448  0.5503
  104CHL1   C1813909   5.177   4.189  15.982 -0.6516 -0.0252 -0.1390
  104CHL1  H18A13910   5.278   4.234  15.989 -1.1501  1.2151 -0.6592
  104CHL1  H18B13911   5.170   4.123  16.071 -1.9343  0.1969 -0.0597
  104CHL1  H18C13912   5.163   4.135  15.886  1.4409  1.1445 -1.1733
  104CHL1   C1213913   5.107   4.417  16.090  0.1939 -0.0275 -0.6289
  104CHL1  H12A13914   5.200   4.471  16.061  2.5931 -2.5305  1.7492
  104CHL1  H12B13915   5.025   4.491  16.089 -0.3078 -0.5774 -0.4003
  104CHL1   C1113916   5.111   4.369  16.233  1.1306  0.5484 -0.5039
  104CHL1  H11A13917   5.194   4.296  16.238  0.3777 -0.4908 -2.1431
  104CHL1  H11B13918   5.141   4.444  16.309 -1.5711 -0.7956  2.0767
  104CHL1    C913919   4.977   4.308  16.275 -0.4136  0.7542 -0.2271
  104CHL1    H913920   4.902   4.389  16.267 -0.6331  0.5186 -0.6053
  104CHL1   C1013921   4.971   4.260  16.423 -0.3053  0.5013  0.1676
  104CHL1   C1913922   5.099   4.178  16.456 -0.7434  0.0985 -0.1208
  104CHL1  H19A13923   5.118   4.096  16.383 -1.1753  0.2028 -0.3535
  104CHL1  H19B13924   5.186   4.247  16.448  0.8361 -1.9310 -1.5398
  104CHL1  H19C13925   5.099   4.152  16.565 -0.5108  1.5760  0.2469
  104CHL1    C113926   4.956   4.384  16.515 -1.0529 -0.5615  0.6228
  104CHL1   H1A13927   5.049   4.444  16.508 -2.4531  1.6810  0.2305
  104CHL1   H1B13928   4.877   4.452  16.476 -0.5363 -0.1001  0.3796
  104CHL1    C213929   4.948   4.354  16.672 -0.1965 -0.2831  0.3402
  104CHL1   H2A13930   4.946   4.437  16.746  0.5001 -0.6941  0.8320
  104CHL1   H2B13931   5.039   4.295  16.695  1.8065  2.5674  0.3060
  104CHL1   C2013932   5.157   4.368  15.751 -0.0393  0.6695  0.3155
  104CHL1   H2013933   5.194   4.265  15.731 -0.1517  0.3487  1.6902
  104CHL1   C2113934   5.260   4.468  15.807  0.0351  0.2287 -1.2385
  104CHL1  H21A13935   5.207   4.560  15.837 -0.9219 -0.6649 -0.1297
  104CHL1  H21B13936   5.326   4.495  15.721  2.8365 -0.1679  0.6290
  104CHL1  H21C13937   5.335   4.428  15.879  0.3492  1.3984 -0.9066
  104CHL1   C2213938   5.104   4.413  15.615  0.0070 -0.0299  0.1772
  104CHL1  H22A13939   5.060   4.325  15.563 -1.7024 -0.2106  1.8573
  104CHL1  H22B13940   5.030   4.496  15.623 -1.2417 -0.7083 -2.9592
  104CHL1   C2313941   5.214   4.451  15.505 -0.1664 -0.5391  0.2726
  104CHL1  H23A13942   5.256   4.551  15.525 -1.4836  0.4901 -1.7216
  104CHL1  H23B13943   5.300   4.380  15.513  0.6340  0.5082  1.2322
  104CHL1   C2413944   5.152   4.446  15.362 -0.6519  0.8379 -0.3693
  104CHL1  H24A13945   5.123   4.340  15.347 -2.4716  0.9418  1.8992
  104CHL1  H24B13946   5.051   4.492  15.358 -2.2099 -2.3038 -0.7958
  104CHL1   C2513947   5.239   4.491  15.250 -0.4272 -0.1554  0.2729
  104CHL1   H2513948   5.340   4.447  15.256 -0.8111 -1.0856  0.0289
  104CHL1   C2613949   5.166   4.443  15.131  0.0025  0.1718  0.7247
  104CHL1  H26A13950   5.237   4.431  15.047  0.0058 -0.9520  0.8754
  104CHL1  H26B13951   5.118   4.344  15.148  1.4271 -0.4254  1.3735
  104CHL1  H26C13952   5.080   4.510  15.108 -0.6735 -0.8925  0.1108
  104CHL1   C2713953   5.256   4.643  15.234  0.0829  0.4656  0.0722
  104CHL1  H27A13954   5.317   4.678  15.148 -2.7052  2.6816 -1.1644
  104CHL1  H27B13955   5.157   4.694  15.232 -0.3122 -0.0603  2.5513
  104CHL1  H27C13956   5.301   4.692  15.323  0.3815  0.9128 -0.3216
  105CHL1    C313957   4.435   3.701  16.730  0.7434  0.6181  0.0837
  105CHL1    H313958   4.473   3.597  16.734  2.5727  1.1632 -1.7373
  105CHL1    O313959   4.382   3.742  16.856 -0.1008  0.4471  0.1723
  105CHL1   H3'13960   4.348   3.830  16.840  0.7275  1.3653  2.9339
  105CHL1    C413961   4.535   3.798  16.675 -0.5251  0.0475  0.2700
  105CHL1   H4A13962   4.486   3.898  16.674  2.0419  1.4131 -1.8654
  105CHL1   H4B13963   4.618   3.811  16.747  0.3025  0.4067 -0.7298
  105CHL1    C513964   4.583   3.779  16.538 -0.2356 -0.2685 -0.1886
  105CHL1    C613965   4.713   3.772  16.512  0.2419 -0.0006  0.1395
  105CHL1    H613966   4.786   3.799  16.589  0.3156  0.9812 -0.2634
  105CHL1    C713967   4.782   3.758  16.378  0.1187 -0.6680  0.2112
  105CHL1   H7A13968   4.863   3.833  16.360  0.5465 -0.8250  1.3838
  105CHL1   H7B13969   4.820   3.655  16.361 -0.1457 -0.8345  0.6231
  105CHL1    C813970   4.676   3.783  16.267 -0.5354  0.2654 -0.4692
  105CHL1    H813971   4.662   3.893  16.257  1.7757  0.7013  0.4660
  105CHL1   C1413972   4.733   3.732  16.139  0.3497  0.1300  0.2599
  105CHL1   H1413973   4.752   3.628  16.175 -0.6062  0.0910  0.7045
  105CHL1   C1513974   4.864   3.789  16.091 -0.3560 -0.4718  0.1396
  105CHL1  H15A13975   4.860   3.900  16.102  0.7751 -0.5400  1.5491
  105CHL1  H15B13976   4.954   3.755  16.146  0.3930 -2.0220 -1.9257
  105CHL1   C1613977   4.864   3.745  15.936  0.1085 -0.2288 -0.0035
  105CHL1  H16A13978   4.869   3.835  15.871  0.2862 -0.4577 -0.3117
  105CHL1  H16B13979   4.957   3.687  15.916  0.3974 -0.1818  1.1296
  105CHL1   C1713980   4.724   3.667  15.906 -0.3777 -0.3583 -0.0971
  105CHL1   H1713981   4.746   3.560  15.927 -0.9156 -0.3865  0.3514
  105CHL1   C1313982   4.635   3.729  16.019 -0.3115  1.0833 -0.0564
  105CHL1   C1813983   4.586   3.866  15.978 -0.5961 -0.6583  0.4169
  105CHL1  H18A13984   4.541   3.898  16.074  1.0609 -0.5073  1.1668
  105CHL1  H18B13985   4.657   3.944  15.941 -1.3676 -0.4570 -0.7018
  105CHL1  H18C13986   4.498   3.875  15.911  1.1180  0.5524 -1.8236
  105CHL1   C1213987   4.517   3.640  16.062 -0.2782 -1.1989  0.3850
  105CHL1  H12A13988   4.439   3.635  15.984 -0.0083  0.2169 -0.0012
  105CHL1  H12B13989   4.550   3.535  16.079  1.6975 -0.9732 -1.5410
  105CHL1   C1113990   4.445   3.697  16.188  0.1174 -0.0991  0.0398
  105CHL1  H11A13991   4.391   3.792  16.166  0.1602  0.0917  0.7524
  105CHL1  H11B13992   4.360   3.627  16.205  0.3072 -0.8009 -1.6326
  105CHL1    C913993   4.547   3.711  16.299  1.0265 -0.0124  0.0283
  105CHL1    H913994   4.584   3.608  16.319 -0.1162 -0.2687  0.9042
  105CHL1   C1013995   4.480   3.758  16.432  0.3645  0.2227 -0.3561
  105CHL1   C1913996   4.414   3.894  16.407  0.3635 -0.0193  0.3439
  105CHL1  H19A13997   4.332   3.886  16.334  1.6151  2.7541 -1.5609
  105CHL1  H19B13998   4.373   3.939  16.500  1.1915 -1.2454  1.3421
  105CHL1  H19C13999   4.489   3.958  16.355  2.0534 -1.7134  0.5407
  105CHL1    C114000   4.368   3.663  16.485 -0.3104 -0.4582  0.4961
  105CHL1   H1A14001   4.284   3.667  16.413  1.1422  1.3573 -1.2075
  105CHL1   H1B14002   4.409   3.560  16.481 -0.7967 -0.7064  1.5435
  105CHL1    C214003   4.319   3.694  16.629  0.1912 -0.7603  0.0245
  105CHL1   H2A14004   4.240   3.624  16.664  0.5712 -0.3312  1.8579
  105CHL1   H2B14005   4.273   3.795  16.618  0.0992 -1.0689 -3.5714
  105CHL1   C2014006   4.674   3.678  15.759 -0.3265  0.3701 -0.6189
  105CHL1   H2014007   4.655   3.784  15.732  3.1254  0.8364 -1.7201
  105CHL1   C2114008   4.540   3.597  15.742  0.0909 -0.3927  0.2485
  105CHL1  H21A14009   4.548   3.499  15.795  1.9486  0.3646  1.4552
  105CHL1  H21B14010   4.506   3.591  15.636  2.0348  1.2837 -0.5395
  105CHL1  H21C14011   4.459   3.650  15.795 -0.1125 -0.1054 -0.3425
  105CHL1   C2214012   4.779   3.630  15.656  0.6680 -0.4766  0.0762
  105CHL1  H22A14013   4.884   3.655  15.684 -0.0355  0.8901  1.7039
  105CHL1  H22B14014   4.771   3.519  15.654 -0.6873 -0.4989  2.4823
  105CHL1   C2314015   4.752   3.697  15.516  0.5781  0.3710 -0.0368
  105CHL1  H23A14016   4.643   3.706  15.497 -0.0037  1.6662  3.3239
  105CHL1  H23B14017   4.797   3.799  15.513 -2.0390  1.6057  0.2185
  105CHL1   C2414018   4.814   3.598  15.415 -0.1403  0.0236  0.2552
  105CHL1  H24A14019   4.915   3.569  15.451 -0.0621  0.1103  0.1084
  105CHL1  H24B14020   4.755   3.505  15.402  0.7187 -0.5796  0.5632
  105CHL1   C2514021   4.829   3.662  15.270  0.6739 -0.2754 -0.3454
  105CHL1   H2514022   4.727   3.690  15.234  0.3919  0.9508  1.2751
  105CHL1   C2614023   4.897   3.799  15.271  0.4205  0.2289 -0.0184
  105CHL1  H26A14024   4.905   3.840  15.168 -1.1450 -2.0047 -1.1109
  105CHL1  H26B14025   4.835   3.866  15.334 -1.1169  0.4527 -1.6758
  105CHL1  H26C14026   4.995   3.801  15.323 -0.6508 -0.5106  2.1635
  105CHL1   C2714027   4.894   3.571  15.174 -0.0151 -0.0758  0.0788
  105CHL1  H27A14028   4.995   3.530  15.197 -0.0080 -0.2069 -0.1832
  105CHL1  H27B14029   4.829   3.484  15.157  0.5478 -0.4465 -0.2105
  105CHL1  H27C14030   4.904   3.623  15.076 -0.9753  0.9298  0.4939
  106CHL1    C314031   1.160   4.837  16.628  0.1391 -1.0292  0.0081
  106CHL1    H314032   1.054   4.838  16.594 -0.0944  0.3106  0.7041
  106CHL1    O314033   1.175   4.841  16.771  0.0214 -0.0841 -0.3815
  106CHL1   H3'14034   1.211   4.755  16.796 -0.1438 -0.4227 -1.2824
  106CHL1    C414035   1.223   4.704  16.581 -0.3630  0.1193 -0.6874
  106CHL1   H4A14036   1.327   4.700  16.618 -0.6697  0.5695  0.2487
  106CHL1   H4B14037   1.182   4.611  16.625 -0.1705  0.4140  0.1203
  106CHL1    C514038   1.218   4.700  16.430 -0.0440 -0.3498  0.3358
  106CHL1    C614039   1.159   4.604  16.359 -0.1761  0.0948  0.1324
  106CHL1    H614040   1.122   4.515  16.411  0.9268 -1.7714 -2.1058
  106CHL1    C714041   1.151   4.593  16.208 -0.6243 -0.0561  0.3639
  106CHL1   H7A14042   1.182   4.489  16.183  0.8920  0.5667 -0.5071
  106CHL1   H7B14043   1.047   4.616  16.176 -0.1842 -0.7172 -1.7067
  106CHL1    C814044   1.257   4.682  16.139 -0.2404 -0.6578 -0.1295
  106CHL1    H814045   1.357   4.633  16.137  0.1213 -0.0052  1.1028
  106CHL1   C1414046   1.213   4.696  15.992 -0.3760 -0.1129 -0.6126
  106CHL1   H1414047   1.110   4.735  15.993 -1.3652 -2.5528  0.4626
  106CHL1   C1514048   1.202   4.564  15.894  0.3682 -0.3798 -1.1142
  106CHL1  H15A14049   1.288   4.503  15.928  2.1636  1.3254 -2.3811
  106CHL1  H15B14050   1.101   4.524  15.915 -0.2002  1.7146  0.4748
  106CHL1   C1614051   1.225   4.619  15.750 -0.6971  0.6588  0.0396
  106CHL1  H16A14052   1.315   4.566  15.713 -2.3378 -0.2782 -2.9488
  106CHL1  H16B14053   1.140   4.601  15.681 -0.4702  1.3528 -0.4221
  106CHL1   C1714054   1.248   4.770  15.772 -0.7185 -0.3127  0.7718
  106CHL1   H1714055   1.142   4.804  15.772 -0.7999 -0.4118 -1.4737
  106CHL1   C1314056   1.308   4.786  15.913 -0.5672  0.6276 -0.7730
  106CHL1   C1814057   1.456   4.737  15.909  0.3069  0.0108  0.5864
  106CHL1  H18A14058   1.510   4.800  15.836  2.3935 -2.6375 -0.3280
  106CHL1  H18B14059   1.513   4.742  16.004 -2.6605  1.3939  2.4487
  106CHL1  H18C14060   1.468   4.634  15.870  2.1885  0.4104  0.0351
  106CHL1   C1214061   1.309   4.927  15.977  0.1788 -0.1317  0.3116
  106CHL1  H12A14062   1.370   5.001  15.922  1.3973 -1.6141 -0.3928
  106CHL1  H12B14063   1.210   4.975  15.961  0.5390  0.5672  0.1329
  106CHL1   C1114064   1.350   4.924  16.125  0.6617  0.0323  0.0654
  106CHL1  H11A14065   1.458   4.899  16.135  0.5819 -0.6195 -0.5887
  106CHL1  H11B14066   1.339   5.025  16.171  1.2150 -0.2133  0.7459
  106CHL1    C914067   1.260   4.822  16.201 -0.0496  0.4895  0.7715
  106CHL1    H914068   1.161   4.869  16.185  0.4918  1.9662  1.5872
  106CHL1   C1014069   1.289   4.819  16.351  0.6119  0.3576 -0.6486
  106CHL1   C1914070   1.435   4.796  16.379 -0.3170  0.3704  0.9704
  106CHL1  H19A14071   1.489   4.889  16.350  0.1579  0.2266  1.3762
  106CHL1  H19B14072   1.462   4.765  16.482  1.8937 -1.5892 -0.1032
  106CHL1  H19C14073   1.483   4.713  16.322  3.6775  1.8998  1.7456
  106CHL1    C114074   1.246   4.953  16.414 -0.3692  1.3651  0.2348
  106CHL1   H1A14075   1.319   5.025  16.371  2.1668 -1.4329 -0.4809
  106CHL1   H1B14076   1.145   4.986  16.381 -0.8893  0.0128  0.4341
  106CHL1    C214077   1.248   4.947  16.567  0.1948 -0.0756  0.1256
  106CHL1   H2A14078   1.210   5.046  16.601  0.0734 -0.2725  0.5720
  106CHL1   H2B14079   1.349   4.937  16.613  0.5397  0.6799 -0.4468
  106CHL1   C2014080   1.328   4.837  15.663  0.1742  0.0316 -0.7776
  106CHL1   H2014081   1.392   4.906  15.722  0.3831  2.4869 -3.6082
  106CHL1   C2114082   1.230   4.935  15.595 -0.0133  0.1768 -0.0129
  106CHL1  H21A14083   1.148   4.876  15.548  1.2768 -1.7869  0.0618
  106CHL1  H21B14084   1.279   4.992  15.513  0.4255 -0.5291 -0.2519
  106CHL1  H21C14085   1.190   5.009  15.668 -1.6315  0.2171 -0.8994
  106CHL1   C2214086   1.396   4.745  15.559  0.4993  0.8748 -0.1820
  106CHL1  H22A14087   1.476   4.685  15.608 -0.7970 -2.4530 -1.8440
  106CHL1  H22B14088   1.332   4.663  15.519  1.5208  0.1848 -0.4494
  106CHL1   C2314089   1.472   4.807  15.431 -0.1184  0.5254 -0.3607
  106CHL1  H23A14090   1.399   4.818  15.348 -1.6827 -1.0730  0.7295
  106CHL1  H23B14091   1.509   4.907  15.461 -2.2091  1.0226  0.7481
  106CHL1   C2414092   1.582   4.716  15.390 -0.2584 -0.2309 -0.0862
  106CHL1  H24A14093   1.658   4.709  15.470 -0.6064  1.2638  0.4165
  106CHL1  H24B14094   1.534   4.619  15.365 -0.0038 -0.1785 -0.8111
  106CHL1   C2514095   1.664   4.767  15.264 -0.4159 -0.4418  0.0797
  106CHL1   H2514096   1.695   4.870  15.294  0.7527 -1.3610  2.2633
  106CHL1   C2614097   1.787   4.673  15.241  0.4088 -0.2410  0.3028
  106CHL1  H26A14098   1.739   4.576  15.216  1.0673 -0.4352 -0.2456
  106CHL1  H26B14099   1.844   4.712  15.154 -0.6794  0.3145 -0.1956
  106CHL1  H26C14100   1.854   4.668  15.329  0.1280  0.2394  0.5474
  106CHL1   C2714101   1.566   4.774  15.140 -0.5083 -0.0255 -0.5466
  106CHL1  H27A14102   1.493   4.852  15.169  0.9987  0.7329  1.4477
  106CHL1  H27B14103   1.618   4.817  15.051 -1.8890  0.4376 -1.1468
  106CHL1  H27C14104   1.520   4.674  15.127  0.6553 -0.7731  0.8038
  107CHL1    C314105   2.871   6.336  16.735 -0.3310  0.3079 -0.2955
  107CHL1    H314106   2.788   6.409  16.722 -0.3963  0.5301  1.1634
  107CHL1    O314107   2.883   6.321  16.877 -0.5173  0.1890  0.4469
  107CHL1   H3'14108   2.790   6.310  16.898 -0.8218  1.4802 -0.0907
  107CHL1    C414109   2.831   6.202  16.677 -0.2327  0.0102 -0.1794
  107CHL1   H4A14110   2.910   6.131  16.713  1.0701  0.4216 -2.0859
  107CHL1   H4B14111   2.743   6.158  16.728 -0.5490  0.9754  0.1120
  107CHL1    C514112   2.821   6.208  16.530  0.2339  0.4934  0.1734
  107CHL1    C614113   2.710   6.169  16.465 -0.7385  0.1220 -0.5669
  107CHL1    H614114   2.620   6.141  16.522 -0.7043 -0.6228 -0.8625
  107CHL1    C714115   2.691   6.172  16.309 -0.3695 -0.1070  0.3294
  107CHL1   H7A14116   2.650   6.077  16.269  1.5780 -1.4205  1.2871
  107CHL1   H7B14117   2.620   6.254  16.285 -1.5759 -0.5650  2.1032
  107CHL1    C814118   2.823   6.189  16.231 -0.1055 -0.0623 -1.0868
  107CHL1    H814119   2.882   6.096  16.236 -2.1608 -1.3680  1.0382
  107CHL1   C1414120   2.797   6.223  16.083  0.0609  0.4118  0.7229
  107CHL1   H1414121   2.745   6.320  16.100  0.1095  0.3954  0.9700
  107CHL1   C1514122   2.698   6.133  16.007  0.5844 -0.5934  0.3617
  107CHL1  H15A14123   2.732   6.029  16.026 -1.7334 -1.0856  2.2917
  107CHL1  H15B14124   2.597   6.144  16.051  0.0441 -2.4541 -0.3152
  107CHL1   C1614125   2.736   6.162  15.859 -0.2608  0.3933  0.4817
  107CHL1  H16A14126   2.785   6.074  15.812  0.6261  1.3682 -0.4723
  107CHL1  H16B14127   2.650   6.191  15.794 -0.8362  0.2233  1.1560
  107CHL1   C1714128   2.855   6.264  15.857 -0.4065  0.3097  0.1498
  107CHL1   H1714129   2.810   6.366  15.859  0.5786  0.7416  1.5036
  107CHL1   C1314130   2.923   6.243  15.998  0.1375  0.2443  0.6078
  107CHL1   C1814131   3.011   6.118  15.997  0.0207  0.1400  0.0817
  107CHL1  H18A14132   3.096   6.114  15.925 -0.3733 -0.6370 -0.3572
  107CHL1  H18B14133   3.044   6.067  16.091  1.7903 -2.7450 -1.9285
  107CHL1  H18C14134   2.944   6.040  15.955 -1.4792  0.4585  1.7729
  107CHL1   C1214135   2.999   6.364  16.060  0.3751 -0.6487 -0.2732
  107CHL1  H12A14136   3.096   6.385  16.011  1.5122  1.4329  2.6354
  107CHL1  H12B14137   2.934   6.454  16.053  0.1147 -0.8421 -0.3747
  107CHL1   C1114138   3.029   6.341  16.213 -0.6851 -0.1959  0.0802
  107CHL1  H11A14139   3.107   6.264  16.227  1.5578  1.9707  0.0689
  107CHL1  H11B14140   3.079   6.430  16.257 -0.5719  0.1587 -0.7375
  107CHL1    C914141   2.906   6.303  16.302 -0.0497 -0.0483  0.1761
  107CHL1    H914142   2.842   6.393  16.305  0.2097  0.1527 -0.2691
  107CHL1   C1014143   2.944   6.266  16.451 -0.4776 -0.4253 -0.6502
  107CHL1   C1914144   3.072   6.176  16.453  0.5893 -0.4268 -0.0718
  107CHL1  H19A14145   3.097   6.142  16.555 -2.2062  0.3261  0.9571
  107CHL1  H19B14146   3.052   6.082  16.397  0.3383 -0.6600  0.4084
  107CHL1  H19C14147   3.167   6.227  16.424  0.4567 -0.1395 -0.0114
  107CHL1    C114148   2.983   6.401  16.527  0.5044  0.6983 -0.0801
  107CHL1   H1A14149   3.076   6.443  16.484 -0.0867  0.9751 -1.1464
  107CHL1   H1B14150   2.908   6.480  16.504  0.8524  0.7120 -1.2405
  107CHL1    C214151   3.001   6.394  16.676  0.0776 -0.1398  0.4721
  107CHL1   H2A14152   3.046   6.485  16.721  0.9540 -0.5204  0.3937
  107CHL1   H2B14153   3.077   6.319  16.705  0.5848  0.5153  0.8651
  107CHL1   C2014154   2.942   6.244  15.732 -0.1520 -0.5639 -0.0705
  107CHL1   H2014155   3.005   6.154  15.747  2.2764  0.8384 -1.1580
  107CHL1   C2114156   3.046   6.362  15.716  1.1195  0.1128 -0.3526
  107CHL1  H21A14157   2.997   6.456  15.683  0.5402  1.2284  3.2451
  107CHL1  H21B14158   3.129   6.329  15.650  0.2008 -0.5856 -1.1836
  107CHL1  H21C14159   3.094   6.370  15.816  1.0435  2.4495 -0.4518
  107CHL1   C2214160   2.863   6.229  15.596 -0.2548  0.8517 -0.0393
  107CHL1  H22A14161   2.815   6.129  15.596  1.5250 -0.1316 -2.7468
  107CHL1  H22B14162   2.803   6.322  15.594 -1.4980  0.0709 -1.9777
  107CHL1   C2314163   2.952   6.219  15.465  0.7201 -0.2469  0.3004
  107CHL1  H23A14164   2.993   6.317  15.432 -1.6481  0.9910  0.7961
  107CHL1  H23B14165   3.024   6.137  15.485 -0.8749 -1.6295  0.6015
  107CHL1   C2414166   2.864   6.181  15.340  0.2925 -0.0193 -0.1636
  107CHL1  H24A14167   2.826   6.078  15.357  0.4993 -0.4739 -2.2271
  107CHL1  H24B14168   2.784   6.257  15.327 -1.4680 -1.7753 -0.0623
  107CHL1   C2514169   2.943   6.183  15.198  0.3179  0.4729 -0.3653
  107CHL1   H2514170   3.003   6.090  15.194 -0.0561  0.1848  0.4707
  107CHL1   C2614171   2.844   6.183  15.076  0.1073  0.0725  0.4351
  107CHL1  H26A14172   2.895   6.169  14.978  2.1211  3.7823  0.7558
  107CHL1  H26B14173   2.763   6.107  15.084 -0.3549  0.4628 -0.4259
  107CHL1  H26C14174   2.786   6.277  15.073  0.8823  0.6130  1.4442
  107CHL1   C2714175   3.045   6.300  15.183  0.3193  0.0777 -0.7878
  107CHL1  H27A14176   3.128   6.303  15.257 -0.3281  1.0805 -0.0820
  107CHL1  H27B14177   3.098   6.297  15.085  0.3840 -1.3838 -0.7294
  107CHL1  H27C14178   2.991   6.396  15.188  1.7630  0.8619  1.9729
  108CHL1    C314179   4.191   3.398  16.996  0.3848 -0.7424  0.0994
  108CHL1    H314180   4.229   3.500  16.974 -0.7020 -0.6201 -1.3665
  108CHL1    O314181   4.177   3.389  17.137  0.2628  0.4135  0.8027
  108CHL1   H3'14182   4.269   3.393  17.166  0.7833 -0.1208 -0.6794
  108CHL1    C414183   4.048   3.395  16.925  0.3217  0.3564 -0.1323
  108CHL1   H4A14184   3.990   3.308  16.963 -0.4683  1.1624  0.5760
  108CHL1   H4B14185   3.976   3.471  16.964 -0.6188 -0.6585  0.1621
  108CHL1    C514186   4.055   3.394  16.776 -0.4734 -0.1833  0.5825
  108CHL1    C614187   3.982   3.477  16.702 -0.2743  0.0213 -0.4480
  108CHL1    H614188   3.920   3.552  16.755  1.8848  2.1078 -0.6762
  108CHL1    C714189   3.971   3.477  16.555  0.3470  0.1812  0.5453
  108CHL1   H7A14190   3.867   3.481  16.517  0.4617 -1.9304 -0.1498
  108CHL1   H7B14191   4.023   3.571  16.526  2.5728 -1.1503  0.0159
  108CHL1    C814192   4.049   3.366  16.486  0.0193 -0.4486  0.3780
  108CHL1    H814193   3.993   3.270  16.494  0.5844 -0.9292 -0.9776
  108CHL1   C1414194   4.082   3.408  16.344  0.2460 -0.1334  0.0566
  108CHL1   H1414195   4.148   3.498  16.345 -0.2166  0.2138  1.2373
  108CHL1   C1514196   3.967   3.442  16.254 -0.3601  0.3614  0.0321
  108CHL1  H15A14197   3.894   3.360  16.274 -0.2769 -0.2183 -1.8461
  108CHL1  H15B14198   3.912   3.537  16.265 -1.5254 -0.3038  0.0680
  108CHL1   C1614199   4.021   3.436  16.112 -0.2966  0.1123 -0.2118
  108CHL1  H16A14200   3.948   3.374  16.055 -2.3791  0.5006  1.8659
  108CHL1  H16B14201   4.026   3.536  16.064  3.4263  0.7576  1.1790
  108CHL1   C1714202   4.162   3.368  16.126  0.2627  0.2221  0.1863
  108CHL1   H1714203   4.234   3.453  16.132 -2.2620  2.7207 -1.9894
  108CHL1   C1314204   4.161   3.298  16.264  0.2046 -0.0958  0.1794
  108CHL1   C1814205   4.082   3.162  16.254  0.2627  0.3513 -0.2384
  108CHL1  H18A14206   4.061   3.107  16.348  0.1250 -0.0062 -0.4747
  108CHL1  H18B14207   3.980   3.179  16.213 -0.9577 -0.8717  2.1267
  108CHL1  H18C14208   4.148   3.094  16.196  1.0529  0.8928  0.0228
  108CHL1   C1214209   4.295   3.279  16.336 -0.8882 -0.5401  0.2701
  108CHL1  H12A14210   4.356   3.210  16.273 -0.4685 -0.3295  0.4357
  108CHL1  H12B14211   4.350   3.375  16.327 -0.4320 -0.8040  0.1938
  108CHL1   C1114212   4.277   3.246  16.481 -0.3703 -0.8192 -0.1390
  108CHL1  H11A14213   4.230   3.145  16.470 -2.3965  0.1475 -0.8078
  108CHL1  H11B14214   4.380   3.238  16.521  0.0076 -0.4048 -1.0078
  108CHL1    C914215   4.183   3.339  16.558 -0.3427 -0.0279  0.0457
  108CHL1    H914216   4.239   3.435  16.567 -0.3902 -0.0562  0.6779
  108CHL1   C1014217   4.159   3.296  16.707  0.6745 -0.4537  0.4882
  108CHL1   C1914218   4.101   3.151  16.724  1.0784 -0.4338  0.0695
  108CHL1  H19A14219   4.006   3.134  16.669 -0.1587  3.2034  0.8061
  108CHL1  H19B14220   4.170   3.084  16.667  1.1237  1.2599 -2.0032
  108CHL1  H19C14221   4.081   3.111  16.825 -3.0790  1.0587  0.0202
  108CHL1    C114222   4.291   3.310  16.784 -0.6228  0.9462  0.5514
  108CHL1   H1A14223   4.360   3.231  16.747 -1.6251 -1.0829  2.7296
  108CHL1   H1B14224   4.350   3.402  16.770  0.6713  0.2822  1.4108
  108CHL1    C214225   4.280   3.291  16.938 -0.3025 -0.5393 -0.3585
  108CHL1   H2A14226   4.383   3.286  16.979 -0.5383  0.7244  0.4497
  108CHL1   H2B14227   4.232   3.192  16.957 -2.0266  0.5598  1.4208
  108CHL1   C2014228   4.209   3.294  16.000  0.1732 -0.3736 -0.3313
  108CHL1   H2014229   4.140   3.219  15.957 -0.9882  1.3604 -1.6322
  108CHL1   C2114230   4.339   3.215  16.016  0.8840 -0.1982  0.4952
  108CHL1  H21A14231   4.374   3.182  15.915  0.2865 -0.0935  0.2522
  108CHL1  H21B14232   4.325   3.121  16.073 -0.5019 -0.3987 -0.1330
  108CHL1  H21C14233   4.417   3.275  16.067  1.8921  0.0392 -1.2185
  108CHL1   C2214234   4.215   3.392  15.884 -0.5222 -0.0770  0.3616
  108CHL1  H22A14235   4.138   3.472  15.875  0.2601  0.6304 -0.3087
  108CHL1  H22B14236   4.315   3.442  15.887  0.2608 -1.6111  2.4898
  108CHL1   C2314237   4.194   3.321  15.747 -0.2330 -0.0994 -0.9358
  108CHL1  H23A14238   4.269   3.240  15.738 -0.6759 -0.6765  0.2765
  108CHL1  H23B14239   4.093   3.276  15.754 -0.0743 -0.2296  2.5019
  108CHL1   C2414240   4.210   3.419  15.631  0.4343 -0.0443 -0.1396
  108CHL1  H24A14241   4.149   3.508  15.658  1.4900  0.2462  1.4245
  108CHL1  H24B14242   4.315   3.456  15.625  1.2018 -1.0217  4.0671
  108CHL1   C2514243   4.156   3.373  15.489 -0.0413 -0.3209  0.3208
  108CHL1   H2514244   4.168   3.262  15.485  1.8449 -0.2958  2.6794
  108CHL1   C2614245   4.006   3.396  15.461 -0.4085  0.1859  0.1777
  108CHL1  H26A14246   3.976   3.503  15.471  1.3936  0.5715  2.0726
  108CHL1  H26B14247   3.973   3.359  15.362 -1.5836 -0.8849  0.9380
  108CHL1  H26C14248   3.948   3.342  15.539 -0.3871  0.4202  0.3603
  108CHL1   C2714249   4.230   3.446  15.377 -0.1420  0.7380 -0.3805
  108CHL1  H27A14250   4.202   3.405  15.277  0.5948  0.4194 -0.4651
  108CHL1  H27B14251   4.227   3.556  15.386  3.6140  0.8698  0.9432
  108CHL1  H27C14252   4.339   3.434  15.393 -0.2526 -1.4934 -0.8700
  109CHL1    C314253   2.022   0.536  16.934 -0.4639  0.0518 -0.5851
  109CHL1    H314254   1.988   0.432  16.913  0.9724 -0.8623  1.2189
  109CHL1    O314255   2.013   0.553  17.073 -0.3283 -0.3194  0.2255
  109CHL1   H3'14256   2.027   0.648  17.079 -0.3685 -0.4068  2.8121
  109CHL1    C414257   2.165   0.557  16.881  0.6625  0.1784 -0.2420
  109CHL1   H4A14258   2.200   0.659  16.908 -0.4826  1.5222 -3.3501
  109CHL1   H4B14259   2.228   0.480  16.931  0.6699 -0.6726 -1.5137
  109CHL1    C514260   2.176   0.561  16.729  0.9805 -0.5520 -0.8308
  109CHL1    C614261   2.265   0.478  16.667  0.0451 -0.5119 -0.5606
  109CHL1    H614262   2.328   0.411  16.727  0.5587  0.8205  0.4468
  109CHL1    C714263   2.281   0.485  16.518 -0.7119 -0.8748  0.2138
  109CHL1   H7A14264   2.387   0.476  16.486 -0.5117 -0.8277  0.8503
  109CHL1   H7B14265   2.234   0.398  16.468 -1.4961  0.2168 -1.0228
  109CHL1    C814266   2.219   0.608  16.452 -0.2128 -0.6848  0.0161
  109CHL1    H814267   2.279   0.696  16.484  1.5469 -1.8584  0.0778
  109CHL1   C1414268   2.215   0.600  16.304  0.3514  0.1343 -0.2670
  109CHL1   H1414269   2.146   0.514  16.289  0.7637 -0.1080 -0.8175
  109CHL1   C1514270   2.343   0.561  16.236  0.0475 -0.3740  0.2286
  109CHL1  H15A14271   2.426   0.617  16.284  0.7673 -0.8312 -0.4604
  109CHL1  H15B14272   2.368   0.453  16.237 -0.9824 -0.6441  1.8785
  109CHL1   C1614273   2.325   0.606  16.089  0.3557 -0.9012 -0.2443
  109CHL1  H16A14274   2.408   0.677  16.069  0.6402 -1.1708 -0.0295
  109CHL1  H16B14275   2.352   0.516  16.030  1.7799 -1.1669  0.7506
  109CHL1   C1714276   2.180   0.670  16.080  0.9313  0.6749 -0.3937
  109CHL1   H1714277   2.113   0.584  16.057 -1.9840  2.7778 -0.2775
  109CHL1   C1314278   2.153   0.719  16.228  0.0334 -0.2503 -0.2738
  109CHL1   C1814279   2.223   0.851  16.245  0.6664 -0.4003  0.0979
  109CHL1  H18A14280   2.315   0.855  16.182 -0.4495 -0.7745 -1.6231
  109CHL1  H18B14281   2.163   0.939  16.212  0.9119  0.3968  1.6670
  109CHL1  H18C14282   2.238   0.880  16.351  0.8855 -1.8025  0.4727
  109CHL1   C1214283   2.008   0.714  16.278 -0.2537 -0.3314 -0.2643
  109CHL1  H12A14284   1.967   0.795  16.214 -0.0513 -0.5437 -0.6684
  109CHL1  H12B14285   1.949   0.626  16.246 -1.0524 -0.3559  1.1827
  109CHL1   C1114286   1.995   0.735  16.431 -0.0982 -0.4143  0.0736
  109CHL1  H11A14287   2.032   0.839  16.446 -0.6686 -0.5620  3.0060
  109CHL1  H11B14288   1.890   0.712  16.455  0.0642 -3.0750 -1.4265
  109CHL1    C914289   2.077   0.631  16.513  0.5627  0.4157 -0.0269
  109CHL1    H914290   2.030   0.531  16.498  1.6020 -0.0739 -0.0744
  109CHL1   C1014291   2.073   0.653  16.666 -0.1388 -0.0659  0.5443
  109CHL1   C1914292   2.123   0.796  16.697  0.6952  0.1206 -0.1700
  109CHL1  H19A14293   2.074   0.870  16.631 -1.4994 -1.3766 -0.3488
  109CHL1  H19B14294   2.111   0.830  16.802  3.2015 -0.8220  0.4899
  109CHL1  H19C14295   2.230   0.804  16.669  0.5504  0.3860 -0.6558
  109CHL1    C114296   1.935   0.635  16.713  0.0274 -0.0230  0.2633
  109CHL1   H1A14297   1.863   0.714  16.680 -0.5313 -0.3633  0.6540
  109CHL1   H1B14298   1.892   0.537  16.682 -1.8030  0.7728  0.1723
  109CHL1    C214299   1.919   0.632  16.874  0.9081 -0.1261  0.6261
  109CHL1   H2A14300   1.817   0.600  16.904  1.1753 -1.8003 -0.1145
  109CHL1   H2B14301   1.943   0.734  16.910  3.9412  0.0336 -1.4532
  109CHL1   C2014302   2.151   0.754  15.954  0.5322 -0.5439  0.1177
  109CHL1   H2014303   2.208   0.850  15.960 -0.1031 -0.0126 -1.6333
  109CHL1   C2114304   2.000   0.799  15.948 -0.4791  0.5319  0.1924
  109CHL1  H21A14305   1.936   0.712  15.971  0.1893 -0.3801 -1.2764
  109CHL1  H21B14306   1.985   0.834  15.844 -1.4112 -1.8961 -0.5526
  109CHL1  H21C14307   1.973   0.878  16.022 -0.0771  2.2372 -1.4007
  109CHL1   C2214308   2.189   0.674  15.824 -0.3608  0.5957  0.0287
  109CHL1  H22A14309   2.287   0.621  15.836 -0.8962 -1.0329 -2.1196
  109CHL1  H22B14310   2.111   0.595  15.821 -0.8153  1.0718 -0.8039
  109CHL1   C2314311   2.200   0.764  15.691 -0.2455 -0.3098 -0.5250
  109CHL1  H23A14312   2.101   0.813  15.683  0.9397  2.4042  0.1982
  109CHL1  H23B14313   2.275   0.843  15.713  0.8835 -1.0891 -1.4249
  109CHL1   C2414314   2.223   0.678  15.565  0.2879  0.3985 -0.2523
  109CHL1  H24A14315   2.313   0.613  15.575 -1.0414 -1.6606 -0.8863
  109CHL1  H24B14316   2.140   0.604  15.557  1.9251 -1.5422 -0.1432
  109CHL1   C2514317   2.249   0.750  15.433 -0.5287  0.0530 -0.1646
  109CHL1   H2514318   2.150   0.789  15.400 -1.5846 -2.2458  0.0606
  109CHL1   C2614319   2.357   0.863  15.434  0.5419 -0.1390 -0.4226
  109CHL1  H26A14320   2.362   0.931  15.346 -0.2877  2.2784  1.3094
  109CHL1  H26B14321   2.337   0.925  15.524 -1.6809 -1.9298  0.4201
  109CHL1  H26C14322   2.456   0.814  15.442  0.1642 -1.0199 -0.9854
  109CHL1   C2714323   2.285   0.648  15.322  0.1590 -0.1350 -0.1229
  109CHL1  H27A14324   2.353   0.573  15.367 -0.6985 -1.2947 -0.7277
  109CHL1  H27B14325   2.195   0.585  15.306  0.8198 -0.5412 -2.5328
  109CHL1  H27C14326   2.321   0.695  15.228  1.7418 -0.2394  0.4019
  110CHL1    C314327   6.486   5.165  16.504 -0.9366 -0.1638  0.1314
  110CHL1    H314328   6.591   5.175  16.541 -0.5554  0.2276 -1.0042
  110CHL1    O314329   6.405   5.131  16.616 -0.0685  0.4170 -0.4513
  110CHL1   H3'14330   6.415   5.200  16.682  1.7732  0.2456 -0.4989
  110CHL1    C414331   6.441   5.296  16.436  0.8658  0.2224  0.1745
  110CHL1   H4A14332   6.332   5.276  16.428  0.4547  2.5293 -0.6265
  110CHL1   H4B14333   6.453   5.379  16.509  0.2503 -0.4489  1.0740
  110CHL1    C514334   6.484   5.330  16.294 -0.4732 -0.0778 -0.0641
  110CHL1    C614335   6.537   5.453  16.266 -0.1970  0.3136  0.9026
  110CHL1    H614336   6.544   5.533  16.341 -0.2980  0.6522  0.5539
  110CHL1    C714337   6.578   5.484  16.127 -0.3341  0.0635  0.7537
  110CHL1   H7A14338   6.551   5.587  16.093 -0.7122 -0.2656  0.0316
  110CHL1   H7B14339   6.688   5.486  16.116 -0.4687  0.3369 -0.7430
  110CHL1    C814340   6.525   5.387  16.018 -0.2750  0.1791 -0.4143
  110CHL1    H814341   6.415   5.402  16.019 -0.4965 -0.8237  2.6742
  110CHL1   C1414342   6.578   5.409  15.879 -0.1796 -0.1768 -0.6942
  110CHL1   H1414343   6.689   5.407  15.875 -0.1007  1.4731 -0.0837
  110CHL1   C1514344   6.555   5.549  15.818  0.8597  0.2436  0.9114
  110CHL1  H15A14345   6.449   5.581  15.823  1.1073  0.9237  2.2524
  110CHL1  H15B14346   6.620   5.629  15.859  1.3832 -0.9247  2.4583
  110CHL1   C1614347   6.574   5.529  15.667  0.9982  0.0532 -0.2676
  110CHL1  H16A14348   6.499   5.580  15.603  1.6245 -0.6758 -1.6546
  110CHL1  H16B14349   6.675   5.569  15.646  0.5760  0.9458 -0.6251
  110CHL1   C1714350   6.578   5.372  15.641 -0.0407 -0.1369  0.3427
  110CHL1   H1714351   6.683   5.337  15.641 -0.5489 -1.7727  0.4621
  110CHL1   C1314352   6.524   5.309  15.775 -0.7852  0.1237 -1.0528
  110CHL1   C1814353   6.372   5.315  15.766  0.1789 -0.5429  0.8192
  110CHL1  H18A14354   6.309   5.309  15.857  2.8929 -0.3054  2.8647
  110CHL1  H18B14355   6.330   5.400  15.708 -1.7084 -2.2507 -0.4198
  110CHL1  H18C14356   6.335   5.241  15.693  0.8510  0.3011 -0.4219
  110CHL1   C1214357   6.576   5.172  15.813 -0.2488 -0.2828  0.1179
  110CHL1  H12A14358   6.530   5.102  15.739 -0.3190  1.5565 -1.6811
  110CHL1  H12B14359   6.686   5.159  15.806 -0.5627 -3.0126 -1.1528
  110CHL1   C1114360   6.527   5.132  15.954  0.3401  0.1753 -1.9315
  110CHL1  H11A14361   6.416   5.122  15.946  0.1992  0.3645 -0.5090
  110CHL1  H11B14362   6.571   5.034  15.982  1.6193  1.2522  0.0123
  110CHL1    C914363   6.548   5.247  16.063  0.0332 -0.3100 -0.1451
  110CHL1    H914364   6.657   5.241  16.085 -0.5049 -2.5198  2.3646
  110CHL1   C1014365   6.483   5.216  16.196  0.1691  0.6497  0.0120
  110CHL1   C1914366   6.330   5.191  16.170 -0.0886  0.4075 -0.1406
  110CHL1  H19A14367   6.264   5.179  16.259  1.5951 -0.8638  0.9894
  110CHL1  H19B14368   6.288   5.277  16.113  0.2937 -0.3097 -1.5512
  110CHL1  H19C14369   6.321   5.098  16.108  1.3956  1.0865 -1.4367
  110CHL1    C114370   6.534   5.087  16.261  0.1665  0.4902 -0.4750
  110CHL1   H1A14371   6.521   5.002  16.190 -1.4273  1.1393 -1.0105
  110CHL1   H1B14372   6.644   5.094  16.264  0.4479 -2.2972 -1.2851
  110CHL1    C214373   6.479   5.052  16.404 -0.1135 -0.3300  0.0635
  110CHL1   H2A14374   6.539   4.974  16.456  2.2319  0.6446 -1.0224
  110CHL1   H2B14375   6.378   5.005  16.401  0.4091 -1.6253  1.4035
  110CHL1   C2014376   6.532   5.336  15.497  0.2124  0.2693 -0.2734
  110CHL1   H2014377   6.425   5.360  15.482 -0.6434 -2.5446  0.5792
  110CHL1   C2114378   6.533   5.185  15.467 -0.1884 -0.3866  0.9905
  110CHL1  H21A14379   6.631   5.143  15.498  0.9625 -0.0215 -1.8425
  110CHL1  H21B14380   6.527   5.175  15.357  1.9263 -0.5064  0.8567
  110CHL1  H21C14381   6.453   5.128  15.520 -0.3017 -1.2939 -0.1301
  110CHL1   C2214382   6.639   5.403  15.405  0.2757 -0.0284 -0.2308
  110CHL1  H22A14383   6.696   5.489  15.446 -1.1686  0.2830  1.2046
  110CHL1  H22B14384   6.720   5.332  15.380  0.9921  0.1055  1.5494
  110CHL1   C2314385   6.569   5.447  15.276  0.7633  0.3015  0.2471
  110CHL1  H23A14386   6.517   5.358  15.232  1.4080  0.4475 -0.8597
  110CHL1  H23B14387   6.483   5.513  15.296 -0.2068 -1.4718  2.3874
  110CHL1   C2414388   6.673   5.491  15.168  0.0823  0.4861  0.0408
  110CHL1  H24A14389   6.626   5.539  15.080 -1.5073 -1.3777 -0.1853
  110CHL1  H24B14390   6.739   5.551  15.234 -1.2822  0.6735  1.2834
  110CHL1   C2514391   6.768   5.372  15.116  0.2364  0.6322  0.2956
  110CHL1   H2514392   6.814   5.319  15.203  0.7678  0.3436 -0.1576
  110CHL1   C2614393   6.685   5.274  15.028 -0.1880 -0.2694  0.6856
  110CHL1  H26A14394   6.594   5.237  15.081 -0.4375 -0.1765  0.3261
  110CHL1  H26B14395   6.656   5.325  14.934  2.8274  0.3318 -0.0104
  110CHL1  H26C14396   6.754   5.192  14.999  2.1840  1.5554  0.9166
  110CHL1   C2714397   6.891   5.433  15.040  0.7742  0.0576  0.3841
  110CHL1  H27A14398   6.955   5.493  15.107 -1.4352  0.3380  2.3740
  110CHL1  H27B14399   6.933   5.341  14.994 -2.4035 -1.4692  0.2169
  110CHL1  H27C14400   6.841   5.497  14.964  0.5326 -2.9745 -2.2586
  111CHL1    C314401   2.711   0.109  16.795 -0.2296  0.2344 -0.2915
  111CHL1    H314402   2.821   0.114  16.808 -0.3070  1.5508  0.0103
  111CHL1    O314403   2.650   0.100  16.925 -0.6186 -0.1087  0.6246
  111CHL1   H3'14404   2.555   0.095  16.911 -1.4571  0.0173  4.8832
  111CHL1    C414405   2.664   0.231  16.724  0.1815  0.0788  0.1320
  111CHL1   H4A14406   2.553   0.225  16.730  0.1594  0.8047  0.4998
  111CHL1   H4B14407   2.703   0.321  16.776 -0.6017  1.5002 -1.6371
  111CHL1    C514408   2.695   0.231  16.576 -0.4496 -0.4082  0.2663
  111CHL1    C614409   2.760   0.333  16.522  0.4532 -0.0566 -0.5622
  111CHL1    H614410   2.778   0.421  16.585  2.8424  0.1308 -1.4037
  111CHL1    C714411   2.806   0.344  16.379 -0.3701  0.5198  0.4744
  111CHL1   H7A14412   2.789   0.442  16.330  2.4912  1.2309  0.7455
  111CHL1   H7B14413   2.916   0.327  16.388 -0.5852  0.0733  2.9514
  111CHL1    C814414   2.734   0.239  16.294  0.6436  0.6746  0.5865
  111CHL1    H814415   2.627   0.267  16.284 -0.0400 -1.6473  0.7601
  111CHL1   C1414416   2.797   0.223  16.155 -0.4146 -0.2590 -1.0885
  111CHL1   H1414417   2.903   0.205  16.182 -1.8280 -2.0064  4.7520
  111CHL1   C1514418   2.799   0.353  16.065 -0.2703 -0.4580  0.2447
  111CHL1  H15A14419   2.700   0.400  16.050 -0.6906 -1.4123 -0.0747
  111CHL1  H15B14420   2.868   0.427  16.111 -1.2052 -0.6497  2.0646
  111CHL1   C1614421   2.847   0.293  15.934 -0.2723  0.5440  0.0389
  111CHL1  H16A14422   2.777   0.340  15.862  1.8896  0.7739 -2.0558
  111CHL1  H16B14423   2.943   0.329  15.890  1.1413 -0.4531  2.1971
  111CHL1   C1714424   2.845   0.135  15.929 -0.5238 -0.9050 -0.6871
  111CHL1   H1714425   2.948   0.106  15.961  0.8661  3.4966 -0.4313
  111CHL1   C1314426   2.761   0.109  16.065  0.0127  0.6121  0.1184
  111CHL1   C1814427   2.614   0.115  16.022  0.0883  0.2284  0.6136
  111CHL1  H18A14428   2.577   0.044  15.945 -0.6856  0.5191  0.7046
  111CHL1  H18B14429   2.553   0.099  16.114 -1.4566 -1.3175 -0.6167
  111CHL1  H18C14430   2.583   0.216  15.988  1.0841 -0.0347 -1.1926
  111CHL1   C1214431   2.785  -0.022  16.142 -0.1632 -0.1194  0.8605
  111CHL1  H12A14432   2.770  -0.114  16.081 -0.2153  0.1396  0.4784
  111CHL1  H12B14433   2.894  -0.022  16.163  0.1294  1.3748 -0.4119
  111CHL1   C1114434   2.711  -0.025  16.279  0.5889 -0.3195 -0.2438
  111CHL1  H11A14435   2.604  -0.040  16.252 -0.1189  0.8266  1.7075
  111CHL1  H11B14436   2.732  -0.120  16.333 -1.1353  0.7820  2.5761
  111CHL1    C914437   2.740   0.104  16.368 -0.5491 -0.0386 -0.0972
  111CHL1    H914438   2.850   0.102  16.382 -0.6077 -0.2353  0.3320
  111CHL1   C1014439   2.669   0.104  16.505  0.4285  0.1040  0.8385
  111CHL1   C1914440   2.505   0.107  16.487 -0.1602 -0.0647 -0.8397
  111CHL1  H19A14441   2.482   0.201  16.432  0.2072  0.1225 -0.6777
  111CHL1  H19B14442   2.484   0.011  16.435 -2.1299  0.3888 -0.9354
  111CHL1  H19C14443   2.454   0.105  16.586 -1.7086  1.3948 -1.5642
  111CHL1    C114444   2.719  -0.022  16.587 -0.2009  0.2612  0.6275
  111CHL1   H1A14445   2.691  -0.111  16.526 -0.8989  0.2135  1.0109
  111CHL1   H1B14446   2.830  -0.018  16.589 -0.2029  0.2354  0.8032
  111CHL1    C214447   2.673  -0.021  16.730  0.2865 -0.2922 -0.4981
  111CHL1   H2A14448   2.704  -0.104  16.796  1.2467  1.2088  1.0182
  111CHL1   H2B14449   2.563  -0.031  16.724  0.0902  1.5536 -0.5334
  111CHL1   C2014450   2.822   0.066  15.798  0.4452  0.5414 -0.2522
  111CHL1   H2014451   2.716   0.089  15.775  0.1790 -0.1424  0.2403
  111CHL1   C2114452   2.830  -0.085  15.818  0.1384  0.3747 -0.5799
  111CHL1  H21A14453   2.823  -0.134  15.718  0.7547  1.2922 -1.0854
  111CHL1  H21B14454   2.737  -0.115  15.871  0.6659 -1.7273 -0.7542
  111CHL1  H21C14455   2.926  -0.118  15.863 -0.1113  0.4010 -0.0289
  111CHL1   C2214456   2.909   0.115  15.681 -0.5467  0.5324  0.3216
  111CHL1  H22A14457   2.938   0.222  15.686 -0.1035  0.3658  1.9248
  111CHL1  H22B14458   2.999   0.049  15.683 -0.3546  0.7053 -1.2230
  111CHL1   C2314459   2.852   0.095  15.543  0.7855 -0.5101 -0.0695
  111CHL1  H23A14460   2.851  -0.015  15.530 -2.3596 -0.7156  1.1405
  111CHL1  H23B14461   2.744   0.113  15.526  0.2404 -3.4637 -0.2833
  111CHL1   C2414462   2.925   0.170  15.425 -0.5309  0.0039 -0.8144
  111CHL1  H24A14463   2.908   0.279  15.430 -3.5479 -0.2077 -3.6541
  111CHL1  H24B14464   3.035   0.156  15.438 -0.4976  1.2087  0.4532
  111CHL1   C2514465   2.872   0.145  15.283  0.1764  0.6448  0.1367
  111CHL1   H2514466   2.761   0.153  15.288  0.0971 -0.9861  1.9600
  111CHL1   C2614467   2.940   0.237  15.184 -0.3702  0.0204  0.2883
  111CHL1  H26A14468   3.049   0.217  15.172 -0.2393  0.9705 -0.2518
  111CHL1  H26B14469   2.890   0.226  15.085  0.6055 -1.5881 -0.0680
  111CHL1  H26C14470   2.923   0.343  15.213 -1.6458  1.0360 -3.6126
  111CHL1   C2714471   2.886   0.006  15.218 -0.4406  0.0378  1.0380
  111CHL1  H27A14472   2.995  -0.013  15.208 -0.4425  0.3691  0.2593
  111CHL1  H27B14473   2.840  -0.069  15.285 -2.0074 -0.8589 -0.9339
  111CHL1  H27C14474   2.833  -0.006  15.121 -2.6829 -0.0686  2.2198
  112CHL1    C314475   3.866   1.618  16.714  0.3325  0.4114  0.2156
  112CHL1    H314476   3.770   1.670  16.697  1.2085  1.9625 -0.1073
  112CHL1    O314477   3.891   1.624  16.850  0.1435 -0.1625 -0.2200
  112CHL1   H3'14478   3.920   1.711  16.878 -0.2768 -0.5322  1.4544
  112CHL1    C414479   3.848   1.471  16.665 -0.3394  0.3816  0.3755
  112CHL1   H4A14480   3.935   1.408  16.693 -2.0412 -2.1552  0.3146
  112CHL1   H4B14481   3.755   1.434  16.713  0.1640 -0.6753  0.5554
  112CHL1    C514482   3.817   1.467  16.519  0.7033  0.5562 -0.6963
  112CHL1    C614483   3.709   1.411  16.466 -0.7770  0.6837 -0.4386
  112CHL1    H614484   3.634   1.364  16.531 -1.6326  1.7922 -0.5919
  112CHL1    C714485   3.689   1.393  16.324 -0.6717  0.6832  0.2391
  112CHL1   H7A14486   3.660   1.286  16.315  3.4758 -0.7269  1.5198
  112CHL1   H7B14487   3.605   1.445  16.273 -0.3270 -0.1380 -1.2026
  112CHL1    C814488   3.813   1.418  16.242 -0.0579 -0.1701  0.1598
  112CHL1    H814489   3.883   1.333  16.254 -0.0498 -0.8847 -3.6476
  112CHL1   C1414490   3.775   1.438  16.100 -1.1128 -0.0303 -0.0402
  112CHL1   H1414491   3.718   1.533  16.101  2.3247  2.2161  1.0165
  112CHL1   C1514492   3.694   1.330  16.034 -0.3567 -0.0154  0.1312
  112CHL1  H15A14493   3.738   1.231  16.061  0.4476 -0.0826 -1.3199
  112CHL1  H15B14494   3.588   1.326  16.069 -0.2635 -0.9073  0.3477
  112CHL1   C1614495   3.702   1.364  15.889  0.5039  0.8226  0.0462
  112CHL1  H16A14496   3.716   1.265  15.839  0.9707  1.0252 -0.2302
  112CHL1  H16B14497   3.603   1.405  15.860 -1.6546 -1.0398  4.0287
  112CHL1   C1714498   3.814   1.472  15.875 -0.8508 -0.1176 -0.0285
  112CHL1   H1714499   3.772   1.575  15.868  2.1529  1.1911 -0.7437
  112CHL1   C1314500   3.891   1.458  16.004 -0.4407 -0.0081  0.1629
  112CHL1   C1814501   3.991   1.334  16.003  0.0820  0.3260  0.3087
  112CHL1  H18A14502   4.043   1.310  16.099  0.1100  0.8679  0.4361
  112CHL1  H18B14503   3.939   1.244  15.964  1.4677  0.1399 -1.2406
  112CHL1  H18C14504   4.077   1.349  15.935  0.2184 -1.8141 -0.0418
  112CHL1   C1214505   3.957   1.593  16.034 -0.6755 -0.0799  0.5320
  112CHL1  H12A14506   4.053   1.615  15.984 -1.3816  1.1272 -0.3380
  112CHL1  H12B14507   3.885   1.677  16.018  0.4396  0.5608 -1.3501
  112CHL1   C1114508   3.996   1.586  16.185 -0.1422 -0.7544 -0.0815
  112CHL1  H11A14509   4.078   1.511  16.192  0.5057  0.0673  1.7178
  112CHL1  H11B14510   4.037   1.687  16.206 -1.4225 -0.1821 -0.2628
  112CHL1    C914511   3.886   1.544  16.287  0.8536  0.2580 -0.2134
  112CHL1    H914512   3.808   1.624  16.286  0.9505  0.3526 -0.1752
  112CHL1   C1014513   3.930   1.532  16.432  0.7386 -0.0971 -0.5763
  112CHL1   C1914514   4.073   1.467  16.445  0.5940 -0.4190  0.9027
  112CHL1  H19A14515   4.149   1.534  16.402  1.7517 -1.4468  1.2768
  112CHL1  H19B14516   4.091   1.457  16.555 -0.0255  0.3943  1.0856
  112CHL1  H19C14517   4.078   1.366  16.398 -1.1997 -0.3048  0.3869
  112CHL1    C114518   3.949   1.678  16.486  0.0627 -0.2121 -0.1246
  112CHL1   H1A14519   4.037   1.719  16.432 -0.9070  0.1972 -1.4392
  112CHL1   H1B14520   3.858   1.732  16.451 -0.7946 -1.2300  0.4929
  112CHL1    C214521   3.968   1.694  16.634  0.2499  0.5490 -0.2809
  112CHL1   H2A14522   3.974   1.803  16.655  1.5824  0.3246  0.6364
  112CHL1   H2B14523   4.070   1.660  16.662  0.0233  0.7078  0.7814
  112CHL1   C2014524   3.884   1.460  15.741  0.1419 -0.6857 -0.9433
  112CHL1   H2014525   3.909   1.352  15.730 -0.2976 -1.1480  1.8654
  112CHL1   C2114526   4.008   1.550  15.719 -0.2773  0.1971 -0.4063
  112CHL1  H21A14527   4.036   1.546  15.612 -1.3612  0.4272 -0.7098
  112CHL1  H21B14528   4.089   1.496  15.773  0.4675 -1.8134 -3.3242
  112CHL1  H21C14529   4.001   1.653  15.761  2.7075 -0.0590  0.9789
  112CHL1   C2214530   3.790   1.478  15.619 -1.1396  0.5410 -0.9025
  112CHL1  H22A14531   3.684   1.472  15.651 -0.5811 -1.3349  0.8020
  112CHL1  H22B14532   3.813   1.579  15.580  1.5597  0.1017 -0.6428
  112CHL1   C2314533   3.828   1.380  15.503  0.2359  0.2535  0.0185
  112CHL1  H23A14534   3.938   1.363  15.507  0.0453 -0.8865  0.7308
  112CHL1  H23B14535   3.775   1.287  15.531  0.1616  0.8277  1.9629
  112CHL1   C2414536   3.777   1.427  15.371 -0.0046 -0.0515  0.3849
  112CHL1  H24A14537   3.667   1.442  15.378 -0.0225  0.2992 -0.5964
  112CHL1  H24B14538   3.820   1.524  15.338 -0.9293  0.7064  1.3106
  112CHL1   C2514539   3.808   1.324  15.262 -0.0552  0.0590  0.4634
  112CHL1   H2514540   3.916   1.298  15.269  0.4738  1.4517 -1.6865
  112CHL1   C2614541   3.715   1.204  15.274  0.5998  0.7805  0.3872
  112CHL1  H26A14542   3.713   1.147  15.178  2.5989 -1.1066  1.3931
  112CHL1  H26B14543   3.751   1.129  15.347  0.5980 -2.6489 -2.7992
  112CHL1  H26C14544   3.614   1.244  15.298 -0.6613 -1.4195 -0.9250
  112CHL1   C2714545   3.786   1.389  15.124  0.0609  0.1230  0.0729
  112CHL1  H27A14546   3.683   1.425  15.101  0.2220  0.2974 -0.3860
  112CHL1  H27B14547   3.851   1.479  15.114  0.7702 -0.2666  1.0665
  112CHL1  H27C14548   3.815   1.321  15.041  0.3003  2.4744 -1.8924
  113CHL1    C314549   5.885   5.368  16.953 -1.1386 -0.9239  0.2181
  113CHL1    H314550   5.871   5.474  16.981 -0.4319 -0.8312  0.2440
  113CHL1    O314551   5.883   5.290  17.069  0.2645  0.1555  0.5975
  113CHL1   H3'14552   5.914   5.204  17.039 -1.1349 -1.0930  2.5238
  113CHL1    C414553   5.777   5.332  16.856 -0.0352  0.4333 -0.1038
  113CHL1   H4A14554   5.787   5.223  16.837  1.1340  0.6696 -0.9861
  113CHL1   H4B14555   5.677   5.360  16.897  0.1052  2.6634 -1.1163
  113CHL1    C514556   5.796   5.393  16.713 -1.0357 -0.0027 -0.2026
  113CHL1    C614557   5.698   5.453  16.647 -0.0089  0.4116  0.0116
  113CHL1    H614558   5.599   5.455  16.694 -0.0299 -0.7213  0.0464
  113CHL1    C714559   5.705   5.508  16.507 -0.3270 -0.7792 -0.2274
  113CHL1   H7A14560   5.614   5.481  16.449 -1.3147  1.1196  0.3601
  113CHL1   H7B14561   5.706   5.619  16.511  0.2078 -0.7979  0.3067
  113CHL1    C814562   5.841   5.474  16.443  0.0536  0.0712 -0.4335
  113CHL1    H814563   5.813   5.372  16.410 -1.8858 -0.1190  1.5383
  113CHL1   C1414564   5.857   5.559  16.317 -0.1076 -0.4421 -0.2309
  113CHL1   H1414565   5.877   5.659  16.363 -0.4902  0.1492 -1.3181
  113CHL1   C1514566   5.736   5.592  16.230  0.4772 -0.0896  0.4536
  113CHL1  H15A14567   5.686   5.501  16.191  0.8786 -0.1678  0.1098
  113CHL1  H15B14568   5.664   5.661  16.279 -0.8554 -1.1683  0.0859
  113CHL1   C1614569   5.797   5.646  16.094 -0.2446  0.9670  0.3857
  113CHL1  H16A14570   5.776   5.569  16.017  2.0378 -0.3084  0.9173
  113CHL1  H16B14571   5.781   5.754  16.071 -0.8935  0.7012 -0.4299
  113CHL1   C1714572   5.959   5.641  16.117  0.3172  0.1660 -0.3392
  113CHL1   H1714573   5.988   5.738  16.163 -1.1840  0.7271 -0.5187
  113CHL1   C1314574   5.977   5.533  16.235  0.2538  0.2616 -0.1556
  113CHL1   C1814575   5.961   5.385  16.176 -0.5345 -0.8346 -0.2006
  113CHL1  H18A14576   5.940   5.306  16.251 -0.0184 -0.8185 -0.0386
  113CHL1  H18B14577   5.877   5.384  16.103 -0.1723 -0.0246 -0.6344
  113CHL1  H18C14578   6.054   5.352  16.126 -1.1711  1.0040 -2.8051
  113CHL1   C1214579   6.101   5.549  16.330  0.2006 -0.4034 -0.0912
  113CHL1  H12A14580   6.190   5.521  16.269 -0.5160 -0.5207 -1.0944
  113CHL1  H12B14581   6.108   5.643  16.388  0.7407 -1.3359  1.4146
  113CHL1   C1114582   6.091   5.450  16.453 -0.3072 -0.8299 -0.0214
  113CHL1  H11A14583   6.099   5.346  16.414 -1.6268 -0.7548 -0.5694
  113CHL1  H11B14584   6.178   5.479  16.515  1.7275  1.1839 -3.5333
  113CHL1    C914585   5.964   5.476  16.535 -0.7262 -0.0685 -0.6093
  113CHL1    H914586   5.984   5.581  16.565 -1.7778 -0.2884  0.9233
  113CHL1   C1014587   5.938   5.389  16.657 -0.1816 -0.0784 -0.5157
  113CHL1   C1914588   5.971   5.237  16.623 -0.3846  0.4446  0.1361
  113CHL1  H19A14589   6.080   5.229  16.601 -0.5710 -0.1703 -0.5832
  113CHL1  H19B14590   5.952   5.165  16.705 -0.7381 -2.0272 -2.0076
  113CHL1  H19C14591   5.908   5.188  16.546  0.0475 -1.2255  0.8142
  113CHL1    C114592   6.041   5.433  16.775  0.8831 -0.3404  0.5466
  113CHL1   H1A14593   6.142   5.430  16.728  1.0175 -0.5404  0.8494
  113CHL1   H1B14594   6.014   5.538  16.799  0.9706 -0.0619 -0.5207
  113CHL1    C214595   6.030   5.353  16.903  0.2299  0.5956 -0.3362
  113CHL1   H2A14596   6.103   5.398  16.974 -1.7291 -0.9349  2.8648
  113CHL1   H2B14597   6.047   5.244  16.892  0.2786  0.4985  0.6453
  113CHL1   C2014598   6.047   5.612  15.993  0.0415  0.8196 -0.1183
  113CHL1   H2014599   6.039   5.505  15.968  3.3695  0.2554  0.8321
  113CHL1   C2114600   6.201   5.629  16.032 -0.0845 -0.2948 -0.3600
  113CHL1  H21A14601   6.226   5.712  16.101 -0.4271  2.8393 -3.6693
  113CHL1  H21B14602   6.245   5.653  15.933 -1.6277 -0.5646 -1.1486
  113CHL1  H21C14603   6.247   5.530  16.055  0.5610 -0.2720 -1.4696
  113CHL1   C2214604   6.015   5.695  15.869 -0.2440 -0.1785  0.2419
  113CHL1  H22A14605   5.905   5.709  15.862 -0.4599 -0.8904  1.6846
  113CHL1  H22B14606   6.070   5.791  15.883  4.9761 -2.9366  1.2532
  113CHL1   C2314607   6.064   5.620  15.743 -0.4543 -0.8721  0.5867
  113CHL1  H23A14608   6.173   5.600  15.746 -0.4069 -0.4687  2.8359
  113CHL1  H23B14609   6.013   5.522  15.741 -0.8760 -0.6605 -1.4669
  113CHL1   C2414610   6.024   5.692  15.615 -0.2990 -0.3573  0.1452
  113CHL1  H24A14611   5.927   5.647  15.586 -1.7382  3.6775 -2.1030
  113CHL1  H24B14612   5.993   5.796  15.637 -0.7230 -0.7154  1.2888
  113CHL1   C2514613   6.126   5.689  15.500  0.3341 -0.3274  0.0120
  113CHL1   H2514614   6.214   5.752  15.524 -0.1328  0.6410 -0.7310
  113CHL1   C2614615   6.167   5.550  15.458  0.5162  0.2297 -0.4913
  113CHL1  H26A14616   6.215   5.503  15.546 -2.4509 -2.6382 -0.2121
  113CHL1  H26B14617   6.082   5.479  15.450  2.3055 -1.9164 -1.3174
  113CHL1  H26C14618   6.226   5.537  15.364  1.4525 -1.0136  0.2479
  113CHL1   C2714619   6.048   5.759  15.385  0.2876 -0.0714  0.0736
  113CHL1  H27A14620   6.102   5.762  15.287  0.3392  2.0632  0.1237
  113CHL1  H27B14621   5.942   5.727  15.377  0.2531 -0.3964  1.5671
  113CHL1  H27C14622   6.041   5.869  15.398 -0.5412  0.0429 -1.1772
  114CHL1    C314623   3.710   0.202  16.709 -0.5481 -0.0726  0.5046
  114CHL1    H314624   3.706   0.312  16.692  0.5207  0.1326  1.4377
  114CHL1    O314625   3.647   0.184  16.835  0.9341  0.0355  0.4956
  114CHL1   H3'14626   3.649   0.092  16.862 -1.6412 -0.2980 -0.2106
  114CHL1    C414627   3.612   0.131  16.608  0.7629 -0.3082 -0.2050
  114CHL1   H4A14628   3.580   0.034  16.651  1.5898  0.3172  1.9943
  114CHL1   H4B14629   3.527   0.204  16.605 -0.7832 -1.9405  1.1965
  114CHL1    C514630   3.676   0.108  16.472 -0.0751  0.0721  0.2212
  114CHL1    C614631   3.624   0.155  16.361 -0.4176  0.3529 -0.4304
  114CHL1    H614632   3.527   0.205  16.366 -0.5139  0.1152  0.1899
  114CHL1    C714633   3.681   0.131  16.227  0.8904 -0.0454  0.0840
  114CHL1   H7A14634   3.598   0.104  16.158  0.1497  2.9205 -0.3069
  114CHL1   H7B14635   3.733   0.218  16.182 -2.1106  0.3328 -3.0196
  114CHL1    C814636   3.789   0.020  16.229 -0.3860  0.5089  0.0443
  114CHL1    H814637   3.737  -0.075  16.253  0.9338 -0.3664 -0.4442
  114CHL1   C1414638   3.852   0.005  16.091 -0.1818  0.0768 -0.2883
  114CHL1   H1414639   3.906   0.100  16.072  1.2571 -1.0924 -2.4752
  114CHL1   C1514640   3.762  -0.000  15.971 -0.5013 -0.3881  0.2237
  114CHL1  H15A14641   3.673  -0.066  15.975 -1.6325  0.9920 -1.0877
  114CHL1  H15B14642   3.717   0.097  15.942 -0.9380 -1.0779 -1.5379
  114CHL1   C1614643   3.866  -0.042  15.863 -0.6729 -0.2016  0.1189
  114CHL1  H16A14644   3.821  -0.131  15.813 -0.9529 -0.5700  0.9890
  114CHL1  H16B14645   3.895   0.039  15.794 -1.1635 -1.1008 -1.1723
  114CHL1   C1714646   4.001  -0.082  15.931 -0.1655 -0.2385 -0.3051
  114CHL1   H1714647   4.057   0.014  15.928 -3.2944  1.7133  0.1340
  114CHL1   C1314648   3.962  -0.099  16.077 -0.0366  0.8610 -0.2179
  114CHL1   C1814649   3.903  -0.247  16.088 -0.3729  0.0582 -0.0131
  114CHL1  H18A14650   3.826  -0.260  16.167 -0.4912 -1.8796 -0.3865
  114CHL1  H18B14651   3.843  -0.275  15.999 -4.3227  0.5969  2.2295
  114CHL1  H18C14652   3.981  -0.326  16.101 -0.1208  0.0006 -1.6828
  114CHL1   C1214653   4.068  -0.083  16.186  0.5490 -0.2736 -0.3361
  114CHL1  H12A14654   4.139  -0.169  16.183 -1.1776 -1.7310 -2.2423
  114CHL1  H12B14655   4.122   0.010  16.158  0.7689 -0.2959  0.0041
  114CHL1   C1114656   4.009  -0.064  16.328  0.1187 -0.5135 -0.2278
  114CHL1  H11A14657   3.964  -0.164  16.348  0.6381 -0.6006  0.5655
  114CHL1  H11B14658   4.093  -0.042  16.397 -0.1029 -1.8813  0.5279
  114CHL1    C914659   3.890   0.043  16.344  0.4314 -0.4282  0.7191
  114CHL1    H914660   3.933   0.144  16.330 -0.3231  0.0951  2.0857
  114CHL1   C1014661   3.811   0.040  16.477 -0.1280  0.2226 -0.6478
  114CHL1   C1914662   3.790  -0.109  16.520 -0.1909 -0.3240 -0.0444
  114CHL1  H19A14663   3.695  -0.121  16.576 -0.6435 -1.4789 -1.0182
  114CHL1  H19B14664   3.774  -0.175  16.432  0.0194 -0.4112 -0.0185
  114CHL1  H19C14665   3.877  -0.143  16.580  0.9260  1.4653 -0.5533
  114CHL1    C114666   3.907   0.119  16.583  0.4317 -0.0896 -0.2804
  114CHL1   H1A14667   4.009   0.075  16.586  0.7359  0.6361  0.2565
  114CHL1   H1B14668   3.907   0.215  16.527 -1.1536 -0.2779 -0.6435
  114CHL1    C214669   3.849   0.139  16.717 -0.4890  0.6119  0.2880
  114CHL1   H2A14670   3.916   0.203  16.777 -0.7731  0.3115  0.9269
  114CHL1   H2B14671   3.831   0.039  16.761  0.5127 -0.8078 -2.2872
  114CHL1   C2014672   4.082  -0.191  15.861 -0.4464  0.8898 -0.7640
  114CHL1   H2014673   4.030  -0.289  15.869  0.8162  0.3387  2.0272
  114CHL1   C2114674   4.220  -0.218  15.934 -0.3954 -0.0368 -0.2344
  114CHL1  H21A14675   4.276  -0.123  15.943 -0.4102  0.0127 -0.6350
  114CHL1  H21B14676   4.282  -0.289  15.874 -0.1202 -0.9533  1.0922
  114CHL1  H21C14677   4.213  -0.257  16.037  0.8033  0.0785 -0.0935
  114CHL1   C2214678   4.115  -0.167  15.716 -0.5581  0.3221  0.5247
  114CHL1  H22A14679   4.180  -0.246  15.673  0.7677  1.1786  0.9036
  114CHL1  H22B14680   4.017  -0.173  15.664  0.7389 -2.1015 -1.9343
  114CHL1   C2314681   4.180  -0.037  15.679  0.0217 -0.3268 -0.0738
  114CHL1  H23A14682   4.127   0.047  15.730 -0.7960 -0.4924 -0.6212
  114CHL1  H23B14683   4.288  -0.038  15.705  0.5506  2.7735 -1.6127
  114CHL1   C2414684   4.153  -0.007  15.528 -0.2972 -1.1919 -0.0416
  114CHL1  H24A14685   4.181  -0.099  15.473  2.2125 -1.7630  1.9491
  114CHL1  H24B14686   4.045   0.009  15.513 -0.2824  0.9874  1.6050
  114CHL1   C2514687   4.238   0.113  15.477  0.2779 -0.7165  0.0827
  114CHL1   H2514688   4.240   0.185  15.562 -4.3293 -0.4196  0.2044
  114CHL1   C2614689   4.385   0.064  15.454  0.2637 -1.0976  0.2371
  114CHL1  H26A14690   4.393   0.008  15.358 -0.9349 -0.2001 -0.4184
  114CHL1  H26B14691   4.456   0.149  15.454  0.2680 -0.9625  3.7152
  114CHL1  H26C14692   4.418  -0.005  15.534 -2.1539 -1.9203  0.6154
  114CHL1   C2714693   4.184   0.182  15.349 -0.3181  0.5481 -0.3114
  114CHL1  H27A14694   4.184   0.099  15.275 -2.7018 -0.0426  0.2476
  114CHL1  H27B14695   4.082   0.223  15.370 -0.0135  1.5444 -0.7547
  114CHL1  H27C14696   4.250   0.266  15.322 -0.1157  1.0065  1.4699
  115CHL1    C314697   1.186   2.023  17.205  0.2879 -0.4532  0.8653
  115CHL1    H314698   1.123   1.932  17.212 -3.9814  2.1707 -0.0032
  115CHL1    O314699   1.214   2.072  17.332  0.0160  0.3492  0.0298
  115CHL1   H3'14700   1.266   2.148  17.306  1.7576 -0.7642  0.1374
  115CHL1    C414701   1.322   1.999  17.138 -0.1524  0.0554  0.3517
  115CHL1   H4A14702   1.384   2.087  17.163 -0.6139  0.1121  1.3232
  115CHL1   H4B14703   1.378   1.923  17.196 -0.3539  0.1787  0.7127
  115CHL1    C514704   1.310   1.961  16.991 -0.5468 -0.1823 -0.1420
  115CHL1    C614705   1.357   1.843  16.939  0.3974  0.0405  0.6370
  115CHL1    H614706   1.414   1.770  16.999  0.2927 -1.2636 -0.7988
  115CHL1    C714707   1.352   1.807  16.794 -0.3370  0.4367 -0.1050
  115CHL1   H7A14708   1.457   1.785  16.767 -0.9201 -1.3030 -1.0483
  115CHL1   H7B14709   1.304   1.709  16.775  0.9648 -0.1561 -0.3839
  115CHL1    C814710   1.301   1.917  16.705 -0.1614 -0.3364 -0.2198
  115CHL1    H814711   1.388   1.986  16.690 -0.6671  0.3173 -0.1902
  115CHL1   C1414712   1.258   1.865  16.572  0.4070  0.7184 -0.0037
  115CHL1   H1414713   1.166   1.808  16.595 -0.0524  1.9381  1.3389
  115CHL1   C1514714   1.351   1.774  16.492  0.2850 -0.2863  0.9866
  115CHL1  H15A14715   1.455   1.810  16.483  1.0713 -2.7544 -1.1848
  115CHL1  H15B14716   1.352   1.670  16.531  0.2488 -0.6116  0.1384
  115CHL1   C1614717   1.319   1.785  16.340  0.1350  0.2918 -0.3681
  115CHL1  H16A14718   1.409   1.828  16.290  0.8342  0.3958  0.9304
  115CHL1  H16B14719   1.282   1.689  16.300 -1.3879  0.1711  1.2015
  115CHL1   C1714720   1.197   1.885  16.343  0.0141 -0.1963 -0.6397
  115CHL1   H1714721   1.112   1.816  16.362  0.0678 -0.6066 -1.8147
  115CHL1   C1314722   1.210   1.966  16.472 -0.0251 -0.0149  0.1276
  115CHL1   C1814723   1.328   2.063  16.448  0.2482  0.5082 -0.1982
  115CHL1  H18A14724   1.416   2.003  16.417 -0.5987 -0.4723 -0.7755
  115CHL1  H18B14725   1.308   2.133  16.364  1.2852  0.9975 -0.0488
  115CHL1  H18C14726   1.369   2.124  16.531 -1.4265  1.4973 -0.0490
  115CHL1   C1214727   1.085   2.027  16.529  0.1099  0.4905  0.0474
  115CHL1  H12A14728   1.031   2.104  16.468 -0.4646 -0.9973 -1.3976
  115CHL1  H12B14729   1.012   1.946  16.545  0.5873  0.2378  0.9866
  115CHL1   C1114730   1.125   2.101  16.661  0.0093 -0.0624  0.2013
  115CHL1  H11A14731   1.179   2.197  16.657 -1.5901  0.8908  0.3363
  115CHL1  H11B14732   1.029   2.136  16.705  0.4534  1.2862  0.1419
  115CHL1    C914733   1.188   2.001  16.768  0.2562 -0.5277 -0.0253
  115CHL1    H914734   1.102   1.931  16.774 -1.0277  1.0232  0.4406
  115CHL1   C1014735   1.225   2.060  16.909 -0.1277 -0.1578  0.4327
  115CHL1   C1914736   1.313   2.187  16.882  0.1145 -0.2891  1.1412
  115CHL1  H19A14737   1.374   2.174  16.791  0.2030  0.8215  1.0354
  115CHL1  H19B14738   1.243   2.270  16.856  0.0548 -1.2616 -2.1782
  115CHL1  H19C14739   1.388   2.206  16.962 -0.0759 -1.7450  1.6994
  115CHL1    C114740   1.094   2.105  16.979  0.3415 -0.8361 -0.1644
  115CHL1   H1A14741   1.056   2.196  16.929  0.8686 -1.1947 -1.2496
  115CHL1   H1B14742   1.017   2.027  16.964 -0.6273  0.6082 -3.5645
  115CHL1    C214743   1.112   2.140  17.133  0.5239  0.7647  0.0744
  115CHL1   H2A14744   1.016   2.150  17.188  0.2703  0.0578 -0.2250
  115CHL1   H2B14745   1.173   2.231  17.145  1.3653  0.2877 -0.5042
  115CHL1   C2014746   1.168   1.955  16.210  0.0319  0.1294  0.2713
  115CHL1   H2014747   1.241   2.038  16.195 -1.1779  1.3463  0.8486
  115CHL1   C2114748   1.024   1.999  16.209 -0.8369  0.4239  0.2143
  115CHL1  H21A14749   1.002   2.078  16.284  2.6669  5.0494 -3.0465
  115CHL1  H21B14750   0.961   1.910  16.234  1.3990 -1.2748  0.0457
  115CHL1  H21C14751   0.999   2.047  16.112  1.4706  1.5492  0.1161
  115CHL1   C2214752   1.203   1.859  16.091  0.0173 -0.4034  0.3329
  115CHL1  H22A14753   1.198   1.750  16.112  0.7848 -0.0654  2.5239
  115CHL1  H22B14754   1.121   1.869  16.017  2.7999 -1.0844 -3.0703
  115CHL1   C2314755   1.328   1.899  16.007 -0.7591  0.3595 -0.3818
  115CHL1  H23A14756   1.425   1.894  16.062 -0.6672  1.8835 -0.3536
  115CHL1  H23B14757   1.342   1.816  15.935  1.5978  1.4785 -1.3117
  115CHL1   C2414758   1.322   2.036  15.939 -0.1039 -0.1727  0.8096
  115CHL1  H24A14759   1.228   2.059  15.885 -0.7124 -0.5969  1.6719
  115CHL1  H24B14760   1.341   2.120  16.009  0.7617  1.0940 -0.8595
  115CHL1   C2514761   1.441   2.035  15.833  0.2084 -0.3616 -0.5219
  115CHL1   H2514762   1.436   1.947  15.766  0.7876  0.0368 -1.1017
  115CHL1   C2614763   1.447   2.164  15.744 -0.7163  0.6294  0.0122
  115CHL1  H26A14764   1.524   2.168  15.664  1.3292  0.7594  1.9096
  115CHL1  H26B14765   1.347   2.189  15.702 -1.3614 -0.1340  1.0530
  115CHL1  H26C14766   1.472   2.247  15.814  0.8723 -0.2327  0.5277
  115CHL1   C2714767   1.576   2.019  15.897 -0.2388 -0.4643 -0.0103
  115CHL1  H27A14768   1.603   2.103  15.966 -0.6465 -0.6854  0.4267
  115CHL1  H27B14769   1.582   1.927  15.958 -2.4188 -0.4496  0.3112
  115CHL1  H27C14770   1.662   2.026  15.827  1.3589  0.0954  1.8796
  116CHL1    C314771   3.397   1.563  16.605  0.5551  0.1030 -0.8970
  116CHL1    H314772   3.492   1.509  16.586 -0.2664 -2.9460  2.5660
  116CHL1    O314773   3.376   1.560  16.741  0.1934  0.8696 -0.1192
  116CHL1   H3'14774   3.459   1.582  16.785 -0.1141  2.9778 -0.5093
  116CHL1    C414775   3.407   1.713  16.551  0.5980  0.5950 -0.1885
  116CHL1   H4A14776   3.326   1.776  16.592  1.2836  0.2626  1.8053
  116CHL1   H4B14777   3.506   1.743  16.592  0.2947 -1.2605  2.1542
  116CHL1    C514778   3.408   1.712  16.400 -0.6626  0.2940  0.1474
  116CHL1    C614779   3.516   1.768  16.337  0.5573 -0.8886  0.9038
  116CHL1    H614780   3.585   1.829  16.397  1.7558 -1.2739 -0.0199
  116CHL1    C714781   3.539   1.772  16.189  0.1115  0.0733 -0.0908
  116CHL1   H7A14782   3.578   1.874  16.168  0.9975 -0.3354 -0.4914
  116CHL1   H7B14783   3.629   1.711  16.163 -1.9392 -2.1046 -2.7728
  116CHL1    C814784   3.414   1.736  16.111 -0.0815 -0.1827  0.2050
  116CHL1    H814785   3.338   1.817  16.120 -1.0791 -1.1765  1.0150
  116CHL1   C1414786   3.463   1.706  15.968  1.3114 -0.1123 -0.0892
  116CHL1   H1414787   3.527   1.616  15.986  0.6902 -0.1644  2.1859
  116CHL1   C1514788   3.545   1.805  15.896 -0.2787 -0.2440  0.3029
  116CHL1  H15A14789   3.503   1.907  15.909 -0.8182 -0.1247 -2.0437
  116CHL1  H15B14790   3.648   1.795  15.938 -0.2575 -0.6862  0.1485
  116CHL1   C1614791   3.543   1.762  15.753  0.0403  1.5016 -0.0543
  116CHL1  H16A14792   3.516   1.850  15.690 -3.8032 -0.6982 -1.8496
  116CHL1  H16B14793   3.639   1.721  15.716 -1.6246 -2.0336 -0.9652
  116CHL1   C1714794   3.430   1.649  15.746 -0.6121  0.7803  0.5396
  116CHL1   H1714795   3.482   1.551  15.759 -0.9306  0.7458  1.6410
  116CHL1   C1314796   3.347   1.663  15.878 -0.5772  0.3207  0.0638
  116CHL1   C1814797   3.248   1.775  15.858  0.5936 -0.0172 -0.5096
  116CHL1  H18A14798   3.201   1.800  15.955  0.2592 -1.1700 -0.3658
  116CHL1  H18B14799   3.302   1.871  15.838 -2.8818  1.8312 -1.8250
  116CHL1  H18C14800   3.159   1.754  15.795 -1.1194  2.2667  1.0058
  116CHL1   C1214801   3.289   1.534  15.933  0.3013  0.2787  0.3230
  116CHL1  H12A14802   3.205   1.489  15.876 -0.1429 -0.0185  1.1933
  116CHL1  H12B14803   3.359   1.449  15.944 -2.5516 -2.0363  2.0883
  116CHL1   C1114804   3.237   1.560  16.073 -0.3178  0.0294 -0.5005
  116CHL1  H11A14805   3.146   1.623  16.081 -0.1076  0.1937  0.9515
  116CHL1  H11B14806   3.204   1.459  16.106  0.6904 -0.0166  0.4450
  116CHL1    C914807   3.352   1.609  16.170 -0.8011 -0.2594  0.4445
  116CHL1    H914808   3.441   1.542  16.171 -0.6645 -0.0775  0.6612
  116CHL1   C1014809   3.312   1.628  16.320  0.0846  0.5171 -0.0954
  116CHL1   C1914810   3.184   1.705  16.322  0.2352 -0.1908 -0.3998
  116CHL1  H19A14811   3.097   1.661  16.269 -2.0914  3.7045 -0.2292
  116CHL1  H19B14812   3.153   1.733  16.425  0.1590 -1.1583 -0.1555
  116CHL1  H19C14813   3.202   1.800  16.267  3.7778 -1.6533 -2.1180
  116CHL1    C114814   3.294   1.483  16.379  0.1831  0.5504 -0.0199
  116CHL1   H1A14815   3.217   1.431  16.318 -1.1716  1.6036  0.7497
  116CHL1   H1B14816   3.387   1.428  16.352  0.1606  1.3070 -1.7767
  116CHL1    C214817   3.284   1.482  16.531  0.5038  0.1698  0.0798
  116CHL1   H2A14818   3.278   1.375  16.560 -2.5401  0.0201 -0.8017
  116CHL1   H2B14819   3.187   1.530  16.556 -0.1730  0.1437 -2.2606
  116CHL1   C2014820   3.359   1.649  15.606 -0.9336  0.1411 -0.4022
  116CHL1   H2014821   3.308   1.748  15.601 -0.0659  0.5873 -0.7035
  116CHL1   C2114822   3.268   1.534  15.591  0.0076 -0.0726 -0.4568
  116CHL1  H21A14823   3.313   1.433  15.601 -0.7954 -0.6720 -2.2875
  116CHL1  H21B14824   3.213   1.541  15.494  0.6877 -0.5887 -0.8951
  116CHL1  H21C14825   3.191   1.538  15.671 -0.8793  0.0593 -1.2861
  116CHL1   C2214826   3.462   1.637  15.494  0.2021  0.1768  0.3727
  116CHL1  H22A14827   3.545   1.711  15.498 -0.9280  1.5166 -0.1440
  116CHL1  H22B14828   3.515   1.539  15.489 -0.4770 -0.2651  1.5787
  116CHL1   C2314829   3.399   1.665  15.350  0.1847  0.3829 -0.4993
  116CHL1  H23A14830   3.332   1.582  15.318 -1.8607  1.8986 -0.3674
  116CHL1  H23B14831   3.341   1.760  15.349  0.7323  0.7291  0.1082
  116CHL1   C2414832   3.511   1.671  15.247  0.1809 -0.2342 -0.5981
  116CHL1  H24A14833   3.577   1.753  15.281 -0.4602 -1.1065  3.2214
  116CHL1  H24B14834   3.561   1.572  15.256 -0.7041 -0.7632 -1.1922
  116CHL1   C2514835   3.471   1.691  15.104  0.4019  0.5087  0.1932
  116CHL1   H2514836   3.562   1.687  15.041 -0.7964 -2.1470 -1.5375
  116CHL1   C2614837   3.391   1.567  15.051 -0.1067  0.4348  0.3486
  116CHL1  H26A14838   3.435   1.472  15.089  2.7310  1.3348 -0.4904
  116CHL1  H26B14839   3.284   1.572  15.081 -0.1595 -0.4448  0.3268
  116CHL1  H26C14840   3.403   1.561  14.941 -1.0405  1.6106  0.1603
  116CHL1   C2714841   3.390   1.827  15.086  0.4376  1.1920  0.1241
  116CHL1  H27A14842   3.291   1.819  15.137  0.0747  0.9040 -0.6006
  116CHL1  H27B14843   3.446   1.912  15.130  0.8153  0.9670  0.0784
  116CHL1  H27C14844   3.359   1.853  14.982  1.1106 -0.5280 -0.5453
  117CHL1    C314845   5.011   0.784  17.177  0.0544  0.3227  0.5419
  117CHL1    H314846   4.927   0.713  17.166  0.9602 -1.0650  2.1272
  117CHL1    O314847   5.049   0.778  17.310 -0.7651  0.0917  0.5565
  117CHL1   H3'14848   5.072   0.685  17.317  0.9530  0.3986 -0.4952
  117CHL1    C414849   5.129   0.745  17.083  0.0462  0.6497  0.4260
  117CHL1   H4A14850   5.207   0.821  17.104  1.0351 -0.1289 -0.2908
  117CHL1   H4B14851   5.177   0.655  17.126 -2.0825  0.7733  3.3707
  117CHL1    C514852   5.084   0.748  16.937 -0.0281  1.0566 -0.6980
  117CHL1    C614853   5.079   0.637  16.863 -0.1652  0.2992  0.8285
  117CHL1    H614854   5.107   0.541  16.909  0.7767  0.9075  1.5612
  117CHL1    C714855   5.045   0.636  16.720 -0.2418 -0.3791  0.1717
  117CHL1   H7A14856   5.102   0.561  16.663 -0.2067  0.9453 -1.6072
  117CHL1   H7B14857   4.938   0.611  16.703 -0.6897  2.0940 -1.0657
  117CHL1    C814858   5.053   0.779  16.656 -0.3553  0.1555 -0.0055
  117CHL1    H814859   5.161   0.802  16.641 -0.3860  1.1159  1.1081
  117CHL1   C1414860   4.982   0.774  16.523  0.4874 -0.1605 -0.0645
  117CHL1   H1414861   4.877   0.747  16.547 -0.3745  2.8463 -0.0085
  117CHL1   C1514862   5.027   0.675  16.414 -0.3987 -0.0059  0.8182
  117CHL1  H15A14863   5.137   0.685  16.426 -0.2001 -1.9895  1.1076
  117CHL1  H15B14864   4.995   0.571  16.440 -0.5227 -0.4724 -1.0487
  117CHL1   C1614865   4.973   0.726  16.289  0.7912  0.0007 -0.3649
  117CHL1  H16A14866   5.062   0.720  16.224  0.1215  2.2708 -1.6204
  117CHL1  H16B14867   4.897   0.652  16.257  1.7600  0.2599 -3.6022
  117CHL1   C1714868   4.908   0.864  16.318  0.2749 -0.5089  0.5122
  117CHL1   H1714869   4.802   0.837  16.337 -0.5727  1.8156 -0.5095
  117CHL1   C1314870   4.973   0.907  16.454 -0.2334 -0.0957 -0.2113
  117CHL1   C1814871   5.109   0.975  16.412 -0.1573  0.5672 -0.0832
  117CHL1  H18A14872   5.168   0.983  16.506  0.7460 -1.6988 -0.3908
  117CHL1  H18B14873   5.163   0.909  16.341  2.2404  1.9029  0.4034
  117CHL1  H18C14874   5.100   1.076  16.366  0.6474  0.5153 -0.3647
  117CHL1   C1214875   4.898   1.007  16.547  0.2305  1.0384 -0.0249
  117CHL1  H12A14876   4.900   1.109  16.501  1.4136  1.3176  0.6000
  117CHL1  H12B14877   4.799   0.975  16.584  0.6144  0.0992  0.2116
  117CHL1   C1114878   4.972   1.019  16.684  0.7374 -0.4365  0.1100
  117CHL1  H11A14879   5.064   1.078  16.664 -0.4858  0.4509 -3.7705
  117CHL1  H11B14880   4.911   1.087  16.747  2.2007  3.2397 -2.1383
  117CHL1    C914881   4.985   0.886  16.748 -0.7307 -0.0443  0.2825
  117CHL1    H914882   4.885   0.837  16.751  0.2844 -2.1915  0.8379
  117CHL1   C1014883   5.045   0.889  16.889  0.1791 -0.0857 -0.7417
  117CHL1   C1914884   5.175   0.978  16.891  0.4262 -0.1721  0.1565
  117CHL1  H19A14885   5.216   0.973  16.994  2.0759 -0.7790 -0.4920
  117CHL1  H19B14886   5.244   0.943  16.811 -0.0562  0.8041 -0.7221
  117CHL1  H19C14887   5.159   1.085  16.867  1.7964 -0.3591 -1.8987
  117CHL1    C114888   4.934   0.939  16.988 -0.2843  0.0134  0.5398
  117CHL1   H1A14889   4.917   1.046  16.964 -0.5616 -0.2141 -0.3092
  117CHL1   H1B14890   4.839   0.891  16.958  0.0579 -0.2173 -0.2221
  117CHL1    C214891   4.969   0.929  17.139  0.3336 -0.3766  0.3181
  117CHL1   H2A14892   4.884   0.965  17.202 -0.5265  0.8854 -1.4676
  117CHL1   H2B14893   5.051   0.999  17.166  1.3454 -0.2402 -2.7444
  117CHL1   C2014894   4.913   0.962  16.199  0.2309 -0.5077 -0.7588
  117CHL1   H2014895   5.015   1.006  16.190  0.9746 -1.4092  2.1908
  117CHL1   C2114896   4.825   1.083  16.229 -0.5489 -0.2491  0.0635
  117CHL1  H21A14897   4.805   1.144  16.139 -0.8153 -0.3939  0.0237
  117CHL1  H21B14898   4.867   1.158  16.300 -0.9387  1.2667 -1.2276
  117CHL1  H21C14899   4.727   1.044  16.266  0.2530 -3.5267 -0.9879
  117CHL1   C2214900   4.869   0.887  16.074 -0.1219  0.0594  0.5587
  117CHL1  H22A14901   4.950   0.815  16.049  0.1346  0.5679 -0.0999
  117CHL1  H22B14902   4.774   0.832  16.093  1.7407 -2.9998  1.6443
  117CHL1   C2314903   4.849   0.973  15.949  0.2003 -0.4402 -0.1432
  117CHL1  H23A14904   4.760   1.037  15.964  2.3782  2.7271  0.2159
  117CHL1  H23B14905   4.931   1.045  15.929 -0.8389  0.7455 -0.2329
  117CHL1   C2414906   4.828   0.896  15.811 -0.3252  0.1698 -0.0116
  117CHL1  H24A14907   4.902   0.813  15.812  0.8223  1.0969  2.9073
  117CHL1  H24B14908   4.730   0.846  15.798  0.6349 -1.2013 -2.6682
  117CHL1   C2514909   4.855   0.978  15.688  0.4916 -0.1845  0.2666
  117CHL1   H2514910   4.951   1.025  15.716  1.3738 -0.9159 -1.4340
  117CHL1   C2614911   4.894   0.893  15.560  0.3210 -0.2826  0.3238
  117CHL1  H26A14912   4.964   0.957  15.502  1.3333 -2.1791 -0.6253
  117CHL1  H26B14913   4.941   0.800  15.598  2.2134  0.4281 -0.1478
  117CHL1  H26C14914   4.804   0.872  15.499 -0.2062  0.4873  0.8098
  117CHL1   C2714915   4.751   1.088  15.652  0.7884  0.3628 -0.2193
  117CHL1  H27A14916   4.650   1.043  15.649  0.5619  0.7591  0.8584
  117CHL1  H27B14917   4.740   1.165  15.731  0.8900  0.8009 -0.6281
  117CHL1  H27C14918   4.763   1.147  15.559 -0.7846  2.1208  0.6145
  118CHL1    C314919   6.660   3.012  16.677  0.1838 -0.0275  0.1569
  118CHL1    H314920   6.762   2.979  16.646  0.2796  1.8532 -1.7262
  118CHL1    O314921   6.637   3.018  16.811  0.7143  0.4932  0.2977
  118CHL1   H3'14922   6.550   3.059  16.810  0.3833 -0.1882  0.2651
  118CHL1    C414923   6.647   3.156  16.623  1.3308 -0.0702 -0.4691
  118CHL1   H4A14924   6.546   3.193  16.652  1.5013 -0.1157  0.2042
  118CHL1   H4B14925   6.714   3.227  16.677  0.6430 -0.1946  0.5587
  118CHL1    C514926   6.671   3.160  16.470  0.5141 -0.9430 -0.2944
  118CHL1    C614927   6.756   3.243  16.408  0.5898  0.0673 -0.8412
  118CHL1    H614928   6.812   3.305  16.479  0.7853 -1.7917  0.7109
  118CHL1    C714929   6.770   3.259  16.259  0.4356  0.0424  0.7871
  118CHL1   H7A14930   6.754   3.364  16.226 -0.7190 -0.4714 -0.3621
  118CHL1   H7B14931   6.871   3.236  16.218 -0.2485 -1.9519  0.1255
  118CHL1    C814932   6.659   3.176  16.176 -0.4832  0.0622 -0.2764
  118CHL1    H814933   6.568   3.239  16.171 -0.2728  0.3563 -0.4778
  118CHL1   C1414934   6.709   3.158  16.028  0.6066  0.3698  0.5679
  118CHL1   H1414935   6.799   3.093  16.029 -0.2506 -0.8703  0.0513
  118CHL1   C1514936   6.744   3.286  15.947 -0.3126 -0.2955  0.2510
  118CHL1  H15A14937   6.673   3.372  15.944  0.7408  0.7068  2.1664
  118CHL1  H15B14938   6.841   3.326  15.984 -0.3378  0.0763 -0.0707
  118CHL1   C1614939   6.753   3.235  15.800 -0.0135 -0.5998 -0.2831
  118CHL1  H16A14940   6.732   3.317  15.729  3.3331 -0.3617 -1.1694
  118CHL1  H16B14941   6.857   3.206  15.775 -0.1265 -0.8102 -0.5048
  118CHL1   C1714942   6.670   3.101  15.793 -0.3796 -0.2357 -0.6392
  118CHL1   H1714943   6.743   3.017  15.784 -0.9359 -0.7708 -0.2838
  118CHL1   C1314944   6.605   3.091  15.938  0.5575 -0.0427  0.0545
  118CHL1   C1814945   6.465   3.172  15.922  0.1202  0.5000  0.2402
  118CHL1  H18A14946   6.402   3.110  15.853  2.1449  1.0980 -2.3103
  118CHL1  H18B14947   6.420   3.198  16.020  2.1454  0.3775  1.2379
  118CHL1  H18C14948   6.486   3.275  15.888  0.6409  0.6256  0.9184
  118CHL1   C1214949   6.579   2.952  16.002  0.3477 -0.0991 -0.1841
  118CHL1  H12A14950   6.504   2.898  15.940  1.9508  1.0548 -3.3282
  118CHL1  H12B14951   6.671   2.891  15.997  0.8838  0.6171  0.6721
  118CHL1   C1114952   6.530   2.961  16.148 -0.7736  0.1380 -0.6982
  118CHL1  H11A14953   6.428   3.005  16.153 -1.0824 -0.6755  0.3428
  118CHL1  H11B14954   6.516   2.858  16.187 -0.7865  0.8095  1.1541
  118CHL1    C914955   6.626   3.044  16.246 -0.1512  0.8563  0.0229
  118CHL1    H914956   6.718   2.982  16.253 -0.0406  0.8633 -1.1122
  118CHL1   C1014957   6.583   3.065  16.385 -0.4521 -0.3274 -0.0465
  118CHL1   C1914958   6.442   3.131  16.385 -0.3839 -0.1515 -0.0708
  118CHL1  H19A14959   6.368   3.068  16.331 -0.4335 -1.1838  1.1563
  118CHL1  H19B14960   6.398   3.154  16.485  1.9555  2.1447  0.5499
  118CHL1  H19C14961   6.445   3.231  16.336 -1.6429 -0.1298 -0.1545
  118CHL1    C114962   6.575   2.927  16.451 -0.1936  0.6367 -0.0974
  118CHL1   H1A14963   6.486   2.874  16.410 -0.5115  0.0294  1.3335
  118CHL1   H1B14964   6.671   2.881  16.418 -0.2229  1.3801 -1.3075
  118CHL1    C214965   6.559   2.914  16.606  0.0892 -0.2131  0.0195
  118CHL1   H2A14966   6.590   2.811  16.634 -2.3725 -0.4198  2.5007
  118CHL1   H2B14967   6.451   2.924  16.631  0.1785  1.5662 -0.1829
  118CHL1   C2014968   6.579   3.083  15.669 -0.7004  0.8970  0.5478
  118CHL1   H2014969   6.493   3.153  15.673  0.4386  2.3842 -0.0178
  118CHL1   C2114970   6.512   2.943  15.666 -0.0695  0.2212  0.7396
  118CHL1  H21A14971   6.438   2.948  15.749 -4.3258  1.1687 -2.7227
  118CHL1  H21B14972   6.573   2.850  15.667 -1.1850 -0.5366  0.2191
  118CHL1  H21C14973   6.446   2.936  15.577  0.7538 -0.2774  0.1616
  118CHL1   C2214974   6.663   3.104  15.538  0.3712  0.8544 -0.0180
  118CHL1  H22A14975   6.722   3.198  15.539  2.3691 -0.2643 -2.5743
  118CHL1  H22B14976   6.748   3.033  15.536  1.2758  1.8717 -3.4066
  118CHL1   C2314977   6.591   3.101  15.411  0.7270 -0.1708  0.6521
  118CHL1  H23A14978   6.521   3.016  15.396 -2.2803  1.8425  2.3352
  118CHL1  H23B14979   6.524   3.189  15.402  0.6261 -0.2019  1.0960
  118CHL1   C2414980   6.691   3.103  15.283  0.4909 -0.4751  0.5351
  118CHL1  H24A14981   6.745   3.199  15.297  0.2694 -0.2380 -0.1840
  118CHL1  H24B14982   6.758   3.014  15.286  0.0615 -0.8490 -0.3276
  118CHL1   C2514983   6.614   3.113  15.146  0.6575  0.4171 -0.1018
  118CHL1   H2514984   6.529   3.183  15.159 -0.2176 -0.1879 -2.1216
  118CHL1   C2614985   6.708   3.175  15.036 -0.3719  0.6475  0.2018
  118CHL1  H26A14986   6.656   3.203  14.942 -1.7793 -0.7196  0.5211
  118CHL1  H26B14987   6.758   3.268  15.067 -1.7771  0.8050  2.1313
  118CHL1  H26C14988   6.782   3.095  15.014  1.7915  2.5894  0.0324
  118CHL1   C2714989   6.549   2.977  15.106  0.1624  0.0160  0.3688
  118CHL1  H27A14990   6.555   2.900  15.186 -0.5894  0.6315  1.0340
  118CHL1  H27B14991   6.445   2.986  15.069  0.6694  0.4176 -1.0046
  118CHL1  H27C14992   6.599   2.932  15.018 -2.6294  0.3644 -1.5188
  119CHL1    C314993   6.120   2.192  16.860  0.6103  0.1189 -0.6561
  119CHL1    H314994   6.030   2.126  16.862  0.2543  0.3856 -3.9014
  119CHL1    O314995   6.173   2.206  16.992  0.1258 -0.1951  0.2946
  119CHL1   H3'14996   6.257   2.250  16.976 -0.8141  0.9394 -2.0073
  119CHL1    C414997   6.226   2.130  16.770  0.1905  0.1713  0.3845
  119CHL1   H4A14998   6.322   2.184  16.770  1.4250 -1.8818  1.6411
  119CHL1   H4B14999   6.251   2.026  16.801  1.7945  0.5324  0.3667
  119CHL1    C515000   6.183   2.133  16.623 -0.4203  0.0360  0.7946
  119CHL1    C615001   6.182   2.022  16.551  0.1646  0.0104 -0.2761
  119CHL1    H615002   6.223   1.930  16.595 -0.0173  0.0276 -0.0675
  119CHL1    C715003   6.147   2.008  16.405 -0.1430 -0.7082  0.1938
  119CHL1   H7A15004   6.228   1.957  16.349 -0.3059  0.5417 -1.2435
  119CHL1   H7B15005   6.063   1.942  16.374  1.0596 -2.4439  0.4706
  119CHL1    C815006   6.140   2.157  16.340  0.2621  0.5921  0.1026
  119CHL1    H815007   6.246   2.188  16.332  0.5311 -0.0495  0.9950
  119CHL1   C1415008   6.061   2.148  16.209 -0.6881 -0.3667 -0.6019
  119CHL1   H1415009   5.954   2.124  16.229 -1.0908  0.0862 -2.0764
  119CHL1   C1515010   6.111   2.038  16.106  0.3679  0.1064 -0.6631
  119CHL1  H15A15011   6.222   2.037  16.108  0.4111  1.6465  1.8160
  119CHL1  H15B15012   6.075   1.935  16.129  4.9171 -1.3170  1.1223
  119CHL1   C1615013   6.064   2.089  15.972  1.1413 -0.3255  0.3441
  119CHL1  H16A15014   6.144   2.093  15.895 -0.5808 -0.4275 -1.5433
  119CHL1  H16B15015   5.976   2.042  15.924 -0.2413  1.4726  1.0109
  119CHL1   C1715016   6.009   2.234  15.997  0.6054  0.4556 -0.4562
  119CHL1   H1715017   5.900   2.218  16.016  0.7885 -1.1456 -0.6091
  119CHL1   C1315018   6.069   2.278  16.135 -0.5211 -0.0876  0.3208
  119CHL1   C1815019   6.213   2.327  16.100 -0.2767 -0.0449  0.4321
  119CHL1  H18A15020   6.253   2.261  16.021  0.8198 -0.6026  1.4087
  119CHL1  H18B15021   6.205   2.426  16.049  0.2708 -0.5823 -0.7351
  119CHL1  H18C15022   6.279   2.335  16.190 -3.0430 -0.5779  2.6643
  119CHL1   C1215023   5.993   2.378  16.217  0.6346  0.0296  0.7161
  119CHL1  H12A15024   5.982   2.481  16.176 -0.5080 -1.0801 -1.9709
  119CHL1  H12B15025   5.891   2.336  16.227 -0.1819  1.9458  1.0257
  119CHL1   C1115026   6.052   2.396  16.354 -0.6473  0.7269 -0.2266
  119CHL1  H11A15027   6.156   2.433  16.337 -0.4047 -0.5598 -1.8689
  119CHL1  H11B15028   5.990   2.459  16.420  0.0257  0.9754  0.1798
  119CHL1    C915029   6.070   2.261  16.424  0.1174  0.2731 -0.4359
  119CHL1    H915030   5.965   2.225  16.432  0.6269 -1.5175 -1.3219
  119CHL1   C1015031   6.130   2.269  16.565 -0.5429 -0.0432 -0.9390
  119CHL1   C1915032   6.250   2.359  16.562 -0.5321 -0.4298 -0.4204
  119CHL1  H19A15033   6.305   2.362  16.659 -1.8520 -1.2622  0.3766
  119CHL1  H19B15034   6.318   2.319  16.484 -0.8604 -0.1778 -0.8346
  119CHL1  H19C15035   6.215   2.461  16.533 -0.1986 -0.4088 -0.7657
  119CHL1    C115036   6.017   2.315  16.668 -0.7312 -0.8194  0.3941
  119CHL1   H1A15037   5.988   2.417  16.635  0.4458 -0.4422  0.4611
  119CHL1   H1B15038   5.933   2.247  16.645 -0.0279 -1.6262  0.1642
  119CHL1    C215039   6.065   2.330  16.811 -0.1987  0.0130  0.2126
  119CHL1   H2A15040   5.977   2.363  16.871  0.8485  1.5253  0.9870
  119CHL1   H2B15041   6.137   2.414  16.824 -0.3777  0.1268  0.4877
  119CHL1   C2015042   6.000   2.331  15.877 -0.6917 -0.0218 -0.1578
  119CHL1   H2015043   6.105   2.355  15.851 -1.1180 -0.2119 -2.2339
  119CHL1   C2115044   5.925   2.459  15.912  0.0575 -0.0642  0.0163
  119CHL1  H21A15045   5.822   2.436  15.947 -0.7326  0.4601 -1.8187
  119CHL1  H21B15046   5.919   2.526  15.823  0.6041  0.8971  0.6771
  119CHL1  H21C15047   5.961   2.530  15.989  0.8250  2.5246 -2.5434
  119CHL1   C2215048   5.938   2.272  15.744 -0.2508  0.4667 -0.0133
  119CHL1  H22A15049   5.971   2.166  15.732  1.4542  0.8792  0.6828
  119CHL1  H22B15050   5.828   2.270  15.751 -0.2160 -0.3097  0.4238
  119CHL1   C2315051   5.983   2.339  15.612 -0.0159 -0.2272  0.2376
  119CHL1  H23A15052   5.957   2.447  15.612 -1.8436 -0.6356 -0.5925
  119CHL1  H23B15053   6.094   2.334  15.620  0.0214 -0.6325 -0.4611
  119CHL1   C2415054   5.947   2.273  15.485  0.4269  0.3307  0.2302
  119CHL1  H24A15055   5.987   2.334  15.401 -2.3371 -0.7449 -2.0150
  119CHL1  H24B15056   5.986   2.169  15.474  0.2918 -0.1270  3.2087
  119CHL1   C2515057   5.805   2.266  15.448 -0.9164  0.2199  0.3239
  119CHL1   H2515058   5.752   2.191  15.510 -0.6251 -0.9415 -0.8100
  119CHL1   C2615059   5.720   2.398  15.454 -0.3051 -0.2069 -0.5056
  119CHL1  H26A15060   5.777   2.483  15.409  2.5006 -1.1106  1.0830
  119CHL1  H26B15061   5.626   2.394  15.396 -0.7463 -0.8747  0.2367
  119CHL1  H26C15062   5.694   2.430  15.557  0.2614 -1.4203  0.0290
  119CHL1   C2715063   5.801   2.221  15.299 -0.3981 -0.1921  0.7710
  119CHL1  H27A15064   5.817   2.302  15.225  2.2615 -1.8180 -0.6083
  119CHL1  H27B15065   5.873   2.143  15.264  1.2403  2.2617 -1.7815
  119CHL1  H27C15066   5.699   2.179  15.286  0.3172 -1.6489 -0.6231
  120CHL1    C315067   0.440   0.545  16.632 -1.3371 -0.0004  0.5900
  120CHL1    H315068   0.332   0.532  16.609 -1.0391  0.2670 -1.1283
  120CHL1    O315069   0.448   0.538  16.772 -0.2633  0.0374 -0.4083
  120CHL1   H3'15070   0.388   0.466  16.789 -2.9604  2.2618  0.2220
  120CHL1    C415071   0.536   0.428  16.571  0.9501 -0.0190  0.2746
  120CHL1   H4A15072   0.637   0.451  16.610  1.6960 -0.1345 -1.5115
  120CHL1   H4B15073   0.502   0.332  16.614  0.9472  0.5368  1.5430
  120CHL1    C515074   0.522   0.435  16.420 -0.0856 -0.7051 -0.1211
  120CHL1    C615075   0.494   0.327  16.357 -0.1699 -0.2257 -0.2674
  120CHL1    H615076   0.487   0.239  16.422  2.2575  1.7586  2.9782
  120CHL1    C715077   0.480   0.319  16.206  0.4389  0.0776  0.5938
  120CHL1   H7A15078   0.529   0.231  16.160 -0.5993 -1.0833  1.6352
  120CHL1   H7B15079   0.371   0.321  16.182  0.4437 -1.1021  0.4411
  120CHL1    C815080   0.535   0.448  16.130  0.1552  1.4325 -0.5622
  120CHL1    H815081   0.646   0.441  16.123 -0.0013  0.0868 -3.3024
  120CHL1   C1415082   0.483   0.443  15.985 -0.2744  0.3239 -0.2786
  120CHL1   H1415083   0.374   0.462  15.987 -0.3912 -0.3471  0.4611
  120CHL1   C1515084   0.501   0.317  15.892 -0.1123 -0.7941  0.2569
  120CHL1  H15A15085   0.607   0.284  15.895  1.0759  2.6879  0.7035
  120CHL1  H15B15086   0.436   0.232  15.924 -2.7054  0.9785  0.0516
  120CHL1   C1615087   0.467   0.377  15.753  0.0970  0.3686 -0.1817
  120CHL1  H16A15088   0.538   0.329  15.682  0.4612  0.1778  0.3076
  120CHL1  H16B15089   0.361   0.347  15.736 -0.1811  0.5363  1.1333
  120CHL1   C1715090   0.477   0.534  15.758  0.8608  0.4669 -0.8919
  120CHL1   H1715091   0.373   0.573  15.767  0.4497 -0.9431  1.1132
  120CHL1   C1315092   0.533   0.568  15.902 -0.2208  0.3252 -0.3838
  120CHL1   C1815093   0.689   0.563  15.893 -0.3045 -0.0594  0.6562
  120CHL1  H18A15094   0.724   0.653  15.837 -1.7428 -1.4162 -2.7077
  120CHL1  H18B15095   0.731   0.552  15.995 -1.7756 -0.1061  1.2834
  120CHL1  H18C15096   0.720   0.473  15.837  2.5311  0.1528  1.7517
  120CHL1   C1215097   0.485   0.693  15.975  1.1899 -0.7356 -0.5932
  120CHL1  H12A15098   0.524   0.782  15.920  1.0204 -0.7770 -0.7846
  120CHL1  H12B15099   0.374   0.691  15.976  1.1181  0.6601  1.9082
  120CHL1   C1115100   0.525   0.701  16.123 -0.0005 -0.1690 -0.0546
  120CHL1  H11A15101   0.630   0.738  16.131 -0.5311  1.0905  1.3821
  120CHL1  H11B15102   0.460   0.781  16.163  0.8706  0.1540  0.7683
  120CHL1    C915103   0.492   0.572  16.204  0.5974  0.2871  0.0457
  120CHL1    H915104   0.381   0.572  16.206  0.5324 -0.0287 -2.1025
  120CHL1   C1015105   0.540   0.577  16.350  0.3539 -0.1829  0.7151
  120CHL1   C1915106   0.690   0.610  16.352 -0.1683  0.3934  0.1422
  120CHL1  H19A15107   0.725   0.709  16.317  1.6300 -0.2094  0.1531
  120CHL1  H19B15108   0.726   0.613  16.457 -0.3376 -1.5935  0.2911
  120CHL1  H19C15109   0.744   0.536  16.289 -1.1264 -0.1567 -0.0534
  120CHL1    C115110   0.466   0.691  16.422 -0.1126  0.2847  0.0568
  120CHL1   H1A15111   0.492   0.793  16.385 -1.1861  1.3624  2.0746
  120CHL1   H1B15112   0.361   0.671  16.393 -0.9014  1.8499  1.6556
  120CHL1    C215113   0.485   0.685  16.576  1.1291  0.5001 -0.5045
  120CHL1   H2A15114   0.413   0.757  16.622 -0.2125  0.0297 -1.7995
  120CHL1   H2B15115   0.594   0.699  16.596  1.5544 -1.4869 -1.2016
  120CHL1   C2015116   0.532   0.596  15.625 -0.1643  0.3651 -0.0137
  120CHL1   H2015117   0.640   0.568  15.622 -0.7205 -1.9208 -3.5171
  120CHL1   C2115118   0.524   0.749  15.635  0.6606 -0.1279  0.8543
  120CHL1  H21A15119   0.563   0.798  15.544 -0.1548  0.0618  0.5930
  120CHL1  H21B15120   0.574   0.785  15.727  1.9687 -1.1095  0.5452
  120CHL1  H21C15121   0.421   0.791  15.641  1.5419  2.2127  0.3594
  120CHL1   C2215122   0.460   0.542  15.501 -0.1436 -0.1353  0.4244
  120CHL1  H22A15123   0.503   0.599  15.415  1.3994  0.3819  1.5091
  120CHL1  H22B15124   0.486   0.436  15.482 -0.1177 -0.1016  0.2683
  120CHL1   C2315125   0.307   0.564  15.500 -0.1662 -0.0656  0.9292
  120CHL1  H23A15126   0.269   0.538  15.601  2.0571 -0.9860  1.5994
  120CHL1  H23B15127   0.278   0.669  15.481 -2.1020 -0.6224  0.5774
  120CHL1   C2415128   0.242   0.480  15.391  0.1409  0.1492  0.7787
  120CHL1  H24A15129   0.291   0.527  15.302 -0.9636  0.2706  0.2148
  120CHL1  H24B15130   0.262   0.372  15.403  0.1479 -0.0078 -0.4605
  120CHL1   C2515131   0.086   0.505  15.379  1.1013  0.4767  0.9547
  120CHL1   H2515132   0.044   0.511  15.481  1.9156  3.8428  1.2168
  120CHL1   C2615133   0.056   0.642  15.310  0.2580 -0.7958 -0.3344
  120CHL1  H26A15134  -0.054   0.650  15.294  0.1990  3.5458  0.9117
  120CHL1  H26B15135   0.078   0.727  15.379  0.9287 -1.3148  0.0966
  120CHL1  H26C15136   0.103   0.644  15.209  1.1976 -4.1210 -0.0887
  120CHL1   C2715137   0.020   0.387  15.300 -0.0807 -0.9347 -0.5362
  120CHL1  H27A15138  -0.090   0.395  15.282  0.0085  1.3413 -0.3288
  120CHL1  H27B15139   0.070   0.384  15.200 -0.2972 -0.8717 -0.6475
  120CHL1  H27C15140   0.042   0.290  15.350  0.7239 -1.2331 -1.4427
  121CHL1    C315141   2.907   4.509  13.131 -0.9519  0.9150  0.5529
  121CHL1    H315142   2.829   4.432  13.148  0.6779 -1.0345 -0.4531
  121CHL1    O315143   2.920   4.536  12.993 -0.1467  0.0832 -0.4131
  121CHL1   H3'15144   2.955   4.453  12.960 -1.3382 -0.2659 -0.8705
  121CHL1    C415145   2.866   4.634  13.201  0.5209 -0.6097  0.2368
  121CHL1   H4A15146   2.940   4.707  13.160  0.3215 -0.8644 -0.6060
  121CHL1   H4B15147   2.768   4.671  13.163  0.6958  1.6463  1.7920
  121CHL1    C515148   2.876   4.628  13.353  0.2730 -0.1757  0.4384
  121CHL1    C615149   2.762   4.638  13.425 -0.2631 -0.0585  0.1592
  121CHL1    H615150   2.674   4.675  13.370  2.2104  2.1555 -2.7176
  121CHL1    C715151   2.753   4.635  13.578 -0.4312 -0.1941 -0.0218
  121CHL1   H7A15152   2.711   4.730  13.619 -1.7351 -1.3340  1.3791
  121CHL1   H7B15153   2.696   4.546  13.612 -0.3700  0.3988  1.7833
  121CHL1    C815154   2.898   4.625  13.638  0.0888  0.7548 -0.2512
  121CHL1    H815155   2.934   4.729  13.658 -0.5907  0.4265  3.5986
  121CHL1   C1415156   2.879   4.565  13.782 -0.3633 -0.2099 -0.1085
  121CHL1   H1415157   2.832   4.465  13.767 -1.6304  0.4399 -0.5917
  121CHL1   C1515158   2.791   4.640  13.878  0.1401 -0.1796 -0.1765
  121CHL1  H15A15159   2.812   4.749  13.874 -3.1295  0.5214 -1.6943
  121CHL1  H15B15160   2.687   4.635  13.837  0.6835  0.6920 -1.7602
  121CHL1   C1615161   2.826   4.588  14.014 -0.0580  0.6662  0.3660
  121CHL1  H16A15162   2.859   4.674  14.077  1.1749  0.6375 -0.2097
  121CHL1  H16B15163   2.755   4.523  14.069 -0.7588  0.3333 -0.8901
  121CHL1   C1715164   2.952   4.498  13.991  0.4156 -0.3956  0.5559
  121CHL1   H1715165   2.911   4.397  13.967  0.0483  0.0555 -0.8018
  121CHL1   C1315166   3.012   4.539  13.856  0.0821  0.3745  0.6124
  121CHL1   C1815167   3.086   4.671  13.879  0.1699  0.2351  0.3241
  121CHL1  H18A15168   3.191   4.650  13.910  0.7810  0.2962 -1.5746
  121CHL1  H18B15169   3.080   4.729  13.785 -2.8965 -0.3331  0.0581
  121CHL1  H18C15170   3.031   4.738  13.948 -0.7468  0.3538 -0.4873
  121CHL1   C1215171   3.099   4.445  13.774  0.8683 -0.8270 -0.0955
  121CHL1  H12A15172   3.202   4.441  13.817  0.4930  1.1879  1.1521
  121CHL1  H12B15173   3.052   4.345  13.773 -1.5067  0.2212 -1.3782
  121CHL1   C1115174   3.112   4.487  13.631 -0.6145 -0.5840  0.1660
  121CHL1  H11A15175   3.178   4.576  13.634 -0.9920 -0.3237  1.0189
  121CHL1  H11B15176   3.164   4.406  13.576  0.3412 -0.1812  0.4521
  121CHL1    C915177   2.982   4.529  13.556  0.5952  0.0287  0.5404
  121CHL1    H915178   2.926   4.433  13.562  0.2514  0.3101  2.0327
  121CHL1   C1015179   3.010   4.578  13.412 -0.8433 -0.4041  0.2308
  121CHL1   C1915180   3.117   4.695  13.401  0.2761  0.1702 -0.7908
  121CHL1  H19A15181   3.130   4.737  13.300 -1.0457  0.2173 -0.9682
  121CHL1  H19B15182   3.092   4.781  13.468  2.4415  1.3792 -1.4676
  121CHL1  H19C15183   3.218   4.659  13.428  0.6744  0.0368 -2.3823
  121CHL1    C115184   3.056   4.456  13.324  0.3319 -0.6514 -0.2379
  121CHL1   H1A15185   3.159   4.424  13.353  0.0796 -1.7105 -0.4597
  121CHL1   H1B15186   2.980   4.378  13.343  2.6309 -2.8651  0.4836
  121CHL1    C215187   3.047   4.469  13.172 -0.4369 -0.2662 -0.0653
  121CHL1   H2A15188   3.081   4.376  13.122 -0.1092 -0.6367  0.8242
  121CHL1   H2B15189   3.120   4.550  13.148 -1.5335  0.9706  0.6298
  121CHL1   C2015190   3.044   4.491  14.114  0.1960  0.1518  0.2688
  121CHL1   H2015191   3.111   4.579  14.116 -0.8513  0.9639  0.9694
  121CHL1   C2115192   3.128   4.365  14.089 -0.0011  0.1777 -0.3890
  121CHL1  H21A15193   3.203   4.383  14.009  1.5069 -2.0116  0.4382
  121CHL1  H21B15194   3.070   4.280  14.047  1.8674 -2.6319  2.2463
  121CHL1  H21C15195   3.189   4.330  14.175  1.2179  1.0292 -0.8832
  121CHL1   C2215196   2.961   4.472  14.239 -0.0730  0.0979 -0.4755
  121CHL1  H22A15197   2.888   4.555  14.250 -0.8758 -0.7351  0.6019
  121CHL1  H22B15198   2.899   4.381  14.224  3.1519 -1.9959 -2.2921
  121CHL1   C2315199   3.037   4.460  14.371 -0.1445 -0.3537  0.6186
  121CHL1  H23A15200   3.094   4.365  14.366  1.7868  0.8071 -1.1925
  121CHL1  H23B15201   3.115   4.538  14.368  0.0666 -0.5715  0.3724
  121CHL1   C2415202   2.941   4.461  14.493 -0.1535 -0.0382  0.2107
  121CHL1  H24A15203   2.899   4.564  14.491  1.9172  0.8562  0.5281
  121CHL1  H24B15204   2.858   4.388  14.477  0.7393 -0.8714 -0.7697
  121CHL1   C2515205   3.008   4.443  14.631 -0.0613 -0.8103 -0.2505
  121CHL1   H2515206   3.091   4.517  14.632  0.1011 -0.9831 -0.7898
  121CHL1   C2615207   2.903   4.485  14.737 -0.0723 -0.2605 -0.0294
  121CHL1  H26A15208   2.937   4.443  14.833  0.2888  1.2956  0.5610
  121CHL1  H26B15209   2.915   4.595  14.748  2.7876 -0.3056 -1.7617
  121CHL1  H26C15210   2.801   4.446  14.719  0.3699 -0.7676 -1.6694
  121CHL1   C2715211   3.054   4.297  14.662 -0.5778 -0.6832  0.7991
  121CHL1  H27A15212   2.968   4.233  14.691 -0.5615 -0.4161  1.4628
  121CHL1  H27B15213   3.118   4.258  14.580  1.8628  2.7321  0.8798
  121CHL1  H27C15214   3.123   4.302  14.750  0.7118 -1.3904 -0.1331
  122CHL1    C315215   2.199   3.888  13.450  0.7447  0.0931  0.2870
  122CHL1    H315216   2.122   3.814  13.480  2.8120 -1.3253  2.5547
  122CHL1    O315217   2.194   3.923  13.312  0.0882 -0.1001 -0.7488
  122CHL1   H3'15218   2.262   3.878  13.262  0.7903  0.9606 -0.7718
  122CHL1    C415219   2.187   4.004  13.540 -0.4831  0.1604 -0.5948
  122CHL1   H4A15220   2.262   4.078  13.505 -1.2611  1.8934  1.2233
  122CHL1   H4B15221   2.095   4.064  13.523  0.5723  2.2542  0.7376
  122CHL1    C515222   2.200   3.971  13.686  0.1706  0.7039  0.1847
  122CHL1    C615223   2.108   4.001  13.779  0.1454  0.1149 -0.1916
  122CHL1    H615224   2.012   4.042  13.744 -0.6259 -0.1394  1.5333
  122CHL1    C715225   2.115   3.978  13.925 -0.9209  0.6718 -0.2121
  122CHL1   H7A15226   2.085   4.074  13.972 -1.1342  0.5954 -0.1935
  122CHL1   H7B15227   2.046   3.894  13.944 -0.8694  0.9645  1.4412
  122CHL1    C815228   2.258   3.932  13.974 -0.1343  0.0603 -0.4433
  122CHL1    H815229   2.329   4.018  13.979  1.7991 -1.5289  0.8640
  122CHL1   C1415230   2.255   3.882  14.119  0.7738 -0.1282  0.0498
  122CHL1   H1415231   2.168   3.813  14.113 -0.8439  1.8119 -0.1224
  122CHL1   C1515232   2.203   3.981  14.226 -0.4381 -0.1098 -0.0024
  122CHL1  H15A15233   2.222   4.090  14.218  0.0705 -0.2952 -1.6741
  122CHL1  H15B15234   2.093   3.971  14.238 -0.7021  3.0340  1.0830
  122CHL1   C1615235   2.256   3.914  14.357  0.2172  0.0436 -0.1416
  122CHL1  H16A15236   2.304   3.987  14.426 -0.1421 -1.0198  1.2724
  122CHL1  H16B15237   2.171   3.876  14.417  1.4768  0.4601  2.0190
  122CHL1   C1715238   2.344   3.794  14.317  0.1696 -0.9861 -0.6762
  122CHL1   H1715239   2.273   3.708  14.321 -0.5576 -0.3496  0.9138
  122CHL1   C1315240   2.376   3.811  14.169 -0.5675  0.4551 -0.2515
  122CHL1   C1815241   2.501   3.909  14.160 -0.0155  1.1212  0.1181
  122CHL1  H18A15242   2.590   3.860  14.207 -0.3129 -0.5569 -0.9776
  122CHL1  H18B15243   2.519   3.948  14.058 -2.6201  2.1959  0.0008
  122CHL1  H18C15244   2.478   4.001  14.219  0.6778  1.5920 -0.3372
  122CHL1   C1215245   2.402   3.691  14.074 -0.4131  0.6297 -0.1820
  122CHL1  H12A15246   2.498   3.644  14.105 -0.5011  0.5496 -0.0257
  122CHL1  H12B15247   2.325   3.610  14.071 -0.8946  1.1021 -2.1222
  122CHL1   C1115248   2.415   3.730  13.925  0.0959  0.0796  1.1711
  122CHL1  H11A15249   2.520   3.765  13.920  0.9903 -2.5124  0.3886
  122CHL1  H11B15250   2.411   3.642  13.857  1.1709  0.4993  0.5423
  122CHL1    C915251   2.311   3.829  13.869 -0.0035 -0.2410  0.0408
  122CHL1    H915252   2.223   3.760  13.867  1.0310 -1.6632  1.0471
  122CHL1   C1015253   2.326   3.887  13.723  0.1273  0.5346 -0.0457
  122CHL1   C1915254   2.445   3.984  13.721 -0.7870 -0.1076 -0.0835
  122CHL1  H19A15255   2.415   4.052  13.803  0.1616 -1.1079  1.1407
  122CHL1  H19B15256   2.534   3.936  13.768 -1.6457 -1.2127  0.4640
  122CHL1  H19C15257   2.461   4.043  13.629 -1.6016  0.6550  0.2570
  122CHL1    C115258   2.342   3.768  13.616  0.0595 -0.6122 -0.0836
  122CHL1   H1A15259   2.438   3.716  13.640 -0.4616 -1.8831 -0.6778
  122CHL1   H1B15260   2.261   3.694  13.632  1.1726 -1.8062  0.2482
  122CHL1    C215261   2.334   3.815  13.473  0.2146  0.1730  0.0751
  122CHL1   H2A15262   2.346   3.729  13.403 -1.3198 -0.8795  1.0323
  122CHL1   H2B15263   2.416   3.885  13.447  1.2762 -0.6337  1.1420
  122CHL1   C2015264   2.459   3.774  14.424  0.0537  0.5742 -0.2796
  122CHL1   H2015265   2.535   3.854  14.413 -0.7425  1.1918 -1.4731
  122CHL1   C2115266   2.528   3.639  14.389  0.1056 -0.2506 -0.8432
  122CHL1  H21A15267   2.591   3.650  14.299 -0.1295  0.6296 -0.9083
  122CHL1  H21B15268   2.447   3.563  14.387 -1.4006  1.1727  1.3195
  122CHL1  H21C15269   2.591   3.609  14.476 -1.4616  0.6579  0.6698
  122CHL1   C2215270   2.416   3.776  14.574 -0.0173 -0.2162  0.3720
  122CHL1  H22A15271   2.496   3.742  14.643  2.6122  3.3400 -0.5912
  122CHL1  H22B15272   2.397   3.881  14.607  3.7157  0.1185  1.9506
  122CHL1   C2315273   2.289   3.693  14.612  0.5330  0.2659  0.6052
  122CHL1  H23A15274   2.205   3.746  14.561  0.2270 -0.5434  0.2480
  122CHL1  H23B15275   2.288   3.587  14.578  3.2724 -0.3105  2.0369
  122CHL1   C2415276   2.262   3.704  14.765  0.2723 -0.6084  0.1254
  122CHL1  H24A15277   2.199   3.622  14.807 -0.8258  0.8960  1.5378
  122CHL1  H24B15278   2.363   3.683  14.806  0.8605  0.4407 -0.7164
  122CHL1   C2515279   2.197   3.834  14.824 -0.2791 -0.1109 -0.1344
  122CHL1   H2515280   2.274   3.914  14.819 -0.5488  0.3481  2.0130
  122CHL1   C2615281   2.082   3.891  14.743 -0.5261  0.3308 -0.4791
  122CHL1  H26A15282   2.120   3.950  14.657 -2.5632  0.6997 -1.1628
  122CHL1  H26B15283   2.023   3.812  14.693  1.9475 -2.3425  0.5511
  122CHL1  H26C15284   2.013   3.948  14.808  1.3043 -0.5009  2.3765
  122CHL1   C2715285   2.165   3.811  14.971 -0.7476 -0.0169  0.1129
  122CHL1  H27A15286   2.255   3.769  15.020 -0.5350 -1.4575 -1.4260
  122CHL1  H27B15287   2.143   3.908  15.021 -2.2637 -1.2894  2.0567
  122CHL1  H27C15288   2.084   3.737  14.989  0.9632 -1.2693  3.4215
  123CHL1    C315289   3.339   3.709  12.837  0.2745 -0.1442  0.2073
  123CHL1    H315290   3.263   3.784  12.867  1.9353  1.0986  1.5300
  123CHL1    O315291   3.345   3.691  12.695 -0.1676 -0.1117  0.0299
  123CHL1   H3'15292   3.378   3.602  12.677  2.2096  0.9452 -1.1801
  123CHL1    C415293   3.477   3.762  12.883  0.1250 -0.3020  0.4269
  123CHL1   H4A15294   3.560   3.705  12.836  1.0904  0.9454  0.5558
  123CHL1   H4B15295   3.479   3.869  12.851 -2.6751  0.5188  2.6185
  123CHL1    C515296   3.484   3.758  13.033  0.0089  0.6930 -0.4608
  123CHL1    C615297   3.521   3.867  13.109 -0.3607 -0.3352  0.2648
  123CHL1    H615298   3.538   3.962  13.056 -0.6299 -1.5372 -2.1269
  123CHL1    C715299   3.550   3.863  13.254 -0.4784  0.3008 -0.9123
  123CHL1   H7A15300   3.650   3.908  13.270 -1.0148  1.3146 -0.2458
  123CHL1   H7B15301   3.475   3.934  13.297 -0.2267 -0.2531  0.4884
  123CHL1    C815302   3.543   3.721  13.322  0.3590  0.8243  0.7697
  123CHL1    H815303   3.644   3.679  13.299 -0.1425 -1.0707  1.8182
  123CHL1   C1415304   3.519   3.727  13.475 -0.4377  0.2990  0.2702
  123CHL1   H1415305   3.417   3.768  13.490 -0.7795 -0.4036 -0.1077
  123CHL1   C1515306   3.607   3.821  13.556  0.6465  0.7679  0.9498
  123CHL1  H15A15307   3.707   3.813  13.509 -1.2069  2.3291 -3.9417
  123CHL1  H15B15308   3.576   3.927  13.560  0.1096  0.6934 -0.5404
  123CHL1   C1615309   3.595   3.759  13.699  1.0477  0.5504 -0.3287
  123CHL1  H16A15310   3.695   3.730  13.739  0.3704 -0.9995  0.2675
  123CHL1  H16B15311   3.541   3.834  13.761 -2.7216 -0.9422 -1.5447
  123CHL1   C1715312   3.515   3.625  13.692 -0.4202 -0.0658  0.0049
  123CHL1   H1715313   3.412   3.656  13.720  0.2574  0.7059  1.8172
  123CHL1   C1315314   3.517   3.584  13.545  0.0047 -1.4524 -0.3863
  123CHL1   C1815315   3.658   3.516  13.522  0.5813 -0.1817 -0.2734
  123CHL1  H18A15316   3.684   3.515  13.414  0.5891  0.2112 -0.2759
  123CHL1  H18B15317   3.739   3.572  13.573  0.3976  1.7218 -1.9759
  123CHL1  H18C15318   3.654   3.411  13.558  1.5348 -1.5441 -3.7317
  123CHL1   C1215319   3.399   3.505  13.482  0.3823  0.1816  0.2251
  123CHL1  H12A15320   3.383   3.407  13.531 -1.8302 -0.1857 -1.1096
  123CHL1  H12B15321   3.304   3.557  13.504 -0.4388 -1.4862  0.8192
  123CHL1   C1115322   3.421   3.499  13.331  0.1086  0.0528 -0.1047
  123CHL1  H11A15323   3.519   3.450  13.312 -0.2220 -0.4901 -0.4513
  123CHL1  H11B15324   3.344   3.437  13.279  0.4258  0.2625 -0.8438
  123CHL1    C915325   3.433   3.639  13.257 -0.4210  0.5834 -0.6820
  123CHL1    H915326   3.339   3.692  13.285  0.1957  1.8110 -0.8915
  123CHL1   C1015327   3.449   3.622  13.106  0.5421 -0.1316 -0.0382
  123CHL1   C1915328   3.556   3.519  13.063 -0.2124 -0.6791 -0.0983
  123CHL1  H19A15329   3.574   3.529  12.954  0.9725 -0.0178  0.1396
  123CHL1  H19B15330   3.651   3.540  13.117 -0.4893 -0.7595  0.4308
  123CHL1  H19C15331   3.542   3.410  13.078  1.8231 -1.0141 -0.3664
  123CHL1    C115332   3.313   3.577  13.045 -0.6624 -0.2935 -0.0403
  123CHL1   H1A15333   3.284   3.473  13.071  0.4629 -0.9341 -1.2603
  123CHL1   H1B15334   3.230   3.643  13.079 -1.1919 -0.6308 -0.6520
  123CHL1    C215335   3.305   3.577  12.892  0.5484  0.3857 -0.1722
  123CHL1   H2A15336   3.209   3.536  12.856  1.0864  0.4199 -1.7325
  123CHL1   H2B15337   3.379   3.502  12.858  1.5188  1.1812  0.1110
  123CHL1   C2015338   3.554   3.523  13.814 -0.9901  0.3521 -0.4646
  123CHL1   H2015339   3.639   3.455  13.790 -0.6653  0.9248 -0.9681
  123CHL1   C2115340   3.424   3.446  13.829  0.1741  0.0247  0.3787
  123CHL1  H21A15341   3.342   3.519  13.846  0.5506  0.2192  1.3909
  123CHL1  H21B15342   3.425   3.381  13.919 -0.2686 -0.2174  0.2138
  123CHL1  H21C15343   3.405   3.379  13.742  1.4215  0.5853 -0.3531
  123CHL1   C2215344   3.594   3.599  13.939  0.2952  0.1000  0.8367
  123CHL1  H22A15345   3.697   3.637  13.925 -0.1845  2.5223  2.9593
  123CHL1  H22B15346   3.526   3.687  13.948 -0.4625 -0.5025  1.1576
  123CHL1   C2315347   3.570   3.531  14.078 -0.6078 -0.0599 -0.2975
  123CHL1  H23A15348   3.461   3.525  14.098 -0.4669  1.1342  0.9508
  123CHL1  H23B15349   3.627   3.435  14.073  1.1076  0.9811 -1.9337
  123CHL1   C2415350   3.647   3.608  14.189 -0.3612  0.2244 -0.0885
  123CHL1  H24A15351   3.746   3.643  14.152  0.3353  0.6053  2.0055
  123CHL1  H24B15352   3.588   3.697  14.218 -0.9357  0.0510 -0.7012
  123CHL1   C2515353   3.658   3.530  14.324 -0.3017 -0.2465  0.0428
  123CHL1   H2515354   3.744   3.460  14.315 -0.6021 -0.7659  1.1213
  123CHL1   C2615355   3.702   3.620  14.440  0.2340 -0.6315  0.0669
  123CHL1  H26A15356   3.796   3.672  14.409  1.2346 -2.4669 -0.1129
  123CHL1  H26B15357   3.619   3.689  14.465  0.0188 -0.4159 -1.1698
  123CHL1  H26C15358   3.734   3.556  14.525  3.3165  3.1916  2.1424
  123CHL1   C2715359   3.532   3.446  14.356 -1.3574 -0.5963  1.1649
  123CHL1  H27A15360   3.490   3.388  14.272  0.1698  1.3741 -1.1090
  123CHL1  H27B15361   3.539   3.379  14.444 -1.4754 -1.0535  0.8240
  123CHL1  H27C15362   3.443   3.513  14.364 -1.8000 -0.2864 -3.3876
  124CHL1    C315363   2.201   4.949  13.763  0.1637  0.0852  0.1200
  124CHL1    H315364   2.264   5.040  13.753  0.8673 -0.6430 -2.9239
  124CHL1    O315365   2.135   4.914  13.641  0.0499 -0.1063 -0.2736
  124CHL1   H3'15366   2.048   4.955  13.637 -0.1485 -0.6449 -1.7762
  124CHL1    C415367   2.302   4.840  13.807  0.0871 -0.1110 -0.3149
  124CHL1   H4A15368   2.236   4.751  13.798 -0.8362  0.5587 -0.1692
  124CHL1   H4B15369   2.381   4.833  13.728  1.1296 -1.0612  0.7561
  124CHL1    C515370   2.364   4.846  13.941  0.1473  0.0223 -0.8095
  124CHL1    C615371   2.495   4.837  13.970 -0.4589  0.5131  0.4938
  124CHL1    H615372   2.560   4.806  13.888 -1.0331  1.4088 -0.3281
  124CHL1    C715373   2.554   4.833  14.107  0.2005 -0.7691 -0.1857
  124CHL1   H7A15374   2.635   4.756  14.105 -1.1783 -2.3003  0.4443
  124CHL1   H7B15375   2.598   4.934  14.118 -0.8284 -0.2860 -0.4981
  124CHL1    C815376   2.451   4.820  14.224 -0.5848 -0.6537  1.0502
  124CHL1    H815377   2.424   4.712  14.227  0.9725 -1.2152 -1.5802
  124CHL1   C1415378   2.518   4.839  14.351  0.0629 -0.4344 -0.2392
  124CHL1   H1415379   2.553   4.944  14.337 -1.1789 -0.1997 -1.8910
  124CHL1   C1515380   2.643   4.767  14.383 -0.0338 -0.9119 -0.6415
  124CHL1  H15A15381   2.640   4.656  14.379 -1.5191 -1.0741  2.2312
  124CHL1  H15B15382   2.731   4.800  14.324  2.4483 -0.5297  2.9214
  124CHL1   C1615383   2.665   4.808  14.535  0.4896  0.1245  0.1322
  124CHL1  H16A15384   2.691   4.712  14.584  0.6325 -0.0917 -0.3635
  124CHL1  H16B15385   2.752   4.875  14.550 -0.5455  1.1514  1.8719
  124CHL1   C1715386   2.525   4.874  14.583  0.2732 -0.0484 -1.0157
  124CHL1   H1715387   2.534   4.984  14.571 -1.7253  0.0189 -2.5494
  124CHL1   C1315388   2.424   4.836  14.468 -0.3678  0.1904 -0.1528
  124CHL1   C1815389   2.371   4.698  14.489  0.2290  0.4348 -0.8070
  124CHL1  H18A15390   2.325   4.655  14.397  0.9540 -1.4375 -0.3492
  124CHL1  H18B15391   2.451   4.625  14.514  1.6761  1.9830 -0.7537
  124CHL1  H18C15392   2.295   4.682  14.568  0.3899 -4.0193 -1.3008
  124CHL1   C1215393   2.311   4.938  14.449  0.3849 -0.7751  0.1182
  124CHL1  H12A15394   2.231   4.934  14.526  0.5811  0.8709  0.4502
  124CHL1  H12B15395   2.352   5.042  14.452 -1.6533  0.0749  0.3451
  124CHL1   C1115396   2.233   4.930  14.320 -0.5222 -0.2308  0.1143
  124CHL1  H11A15397   2.170   4.842  14.343 -0.4305  0.2383  2.3995
  124CHL1  H11B15398   2.174   5.023  14.302 -0.1547  0.0979  0.5839
  124CHL1    C915399   2.332   4.915  14.193  0.2726 -0.2783  0.4280
  124CHL1    H915400   2.380   5.013  14.169 -1.5465  0.3540 -0.8091
  124CHL1   C1015401   2.254   4.877  14.062  0.8030  0.0598  0.7492
  124CHL1   C1915402   2.176   4.742  14.073  0.2280  0.5222 -0.3682
  124CHL1  H19A15403   2.246   4.663  14.108 -0.3634 -0.3233 -1.0481
  124CHL1  H19B15404   2.090   4.744  14.143  0.0048 -0.5599 -0.6034
  124CHL1  H19C15405   2.132   4.713  13.976 -1.3697 -2.7814  1.1888
  124CHL1    C115406   2.169   4.997  14.016  0.1855 -0.2399  0.4275
  124CHL1   H1A15407   2.092   5.015  14.094 -0.3321 -0.6102  0.0051
  124CHL1   H1B15408   2.227   5.091  14.003 -0.2766  0.1204  0.9349
  124CHL1    C215409   2.100   4.969  13.873 -0.2571  0.4417  0.3058
  124CHL1   H2A15410   2.031   5.051  13.842 -0.6207 -0.1742 -0.5355
  124CHL1   H2B15411   2.038   4.878  13.884  3.4890 -2.1606  1.9731
  124CHL1   C2015412   2.497   4.850  14.736  0.0344  0.2085  0.2754
  124CHL1   H2015413   2.475   4.742  14.743 -0.0800  0.2384  0.3888
  124CHL1   C2115414   2.377   4.930  14.781 -0.0903  0.7260  0.1295
  124CHL1  H21A15415   2.339   4.921  14.886 -0.9531 -0.7788 -0.2809
  124CHL1  H21B15416   2.283   4.911  14.725 -0.8874 -1.2903  1.9583
  124CHL1  H21C15417   2.422   5.031  14.778  0.8719  0.2779 -1.2192
  124CHL1   C2215418   2.621   4.873  14.826  0.1163  0.6857 -0.3973
  124CHL1  H22A15419   2.709   4.812  14.796  0.5306  1.7248 -1.3865
  124CHL1  H22B15420   2.646   4.981  14.827  2.0170  0.4380  4.1463
  124CHL1   C2315421   2.608   4.837  14.977  0.2583 -0.3518  0.7445
  124CHL1  H23A15422   2.694   4.881  15.033  3.0807 -3.2747 -0.9749
  124CHL1  H23B15423   2.517   4.881  15.023  0.3005  1.0700 -0.4529
  124CHL1   C2415424   2.630   4.681  15.002 -0.0625  0.6106  0.2217
  124CHL1  H24A15425   2.547   4.611  14.977 -1.7992  1.2101  3.7888
  124CHL1  H24B15426   2.731   4.661  14.960  0.1103  4.6647 -1.7836
  124CHL1   C2515427   2.643   4.659  15.152  0.4186 -0.1223  0.3892
  124CHL1   H2515428   2.715   4.738  15.183  0.1954 -0.0920  0.8369
  124CHL1   C2615429   2.504   4.691  15.221 -1.0095  0.4191 -0.3025
  124CHL1  H26A15430   2.503   4.659  15.327 -3.2646 -2.5801 -1.0814
  124CHL1  H26B15431   2.485   4.800  15.213 -2.4203  0.3385  1.4870
  124CHL1  H26C15432   2.426   4.631  15.169  0.7353 -0.8928 -1.5266
  124CHL1   C2715433   2.703   4.522  15.197  0.8395  0.0091  0.5933
  124CHL1  H27A15434   2.698   4.517  15.308 -0.4795  1.2452  0.6176
  124CHL1  H27B15435   2.635   4.445  15.157 -0.8840  1.5783  0.3873
  124CHL1  H27C15436   2.808   4.508  15.161  0.3555 -0.1016 -0.8237
  125CHL1    C315437   2.675   5.844  13.776 -0.6906  0.2223  0.4009
  125CHL1    H315438   2.580   5.806  13.819 -0.9644 -1.5873 -1.5978
  125CHL1    O315439   2.660   5.859  13.637 -0.1359  0.0120  0.1992
  125CHL1   H3'15440   2.565   5.849  13.629 -0.3216  0.8749  1.1310
  125CHL1    C415441   2.722   5.978  13.829 -0.3699  0.6449  0.0499
  125CHL1   H4A15442   2.812   6.014  13.773 -1.5175  0.7797 -1.7772
  125CHL1   H4B15443   2.649   6.055  13.796 -0.1813  1.6112  1.7611
  125CHL1    C515444   2.756   5.968  13.980 -0.0053 -0.2536 -0.2657
  125CHL1    C615445   2.691   6.047  14.069 -0.3339  0.2559 -0.2897
  125CHL1    H615446   2.612   6.106  14.022 -0.0396 -0.7712 -2.1707
  125CHL1    C715447   2.724   6.047  14.213 -0.8213 -0.4676 -0.1230
  125CHL1   H7A15448   2.739   6.154  14.237 -0.7103 -0.2859 -0.9624
  125CHL1   H7B15449   2.639   6.014  14.276  0.3201  0.6588  2.1268
  125CHL1    C815450   2.852   5.972  14.246  0.7459 -0.3711 -0.2155
  125CHL1    H815451   2.939   6.040  14.233  1.3338 -0.4635  2.6316
  125CHL1   C1415452   2.855   5.932  14.397 -0.2732  0.3687  0.5110
  125CHL1   H1415453   2.767   5.865  14.414 -0.3185  0.4281  0.5126
  125CHL1   C1515454   2.840   6.044  14.500  0.6099 -0.9214  0.2000
  125CHL1  H15A15455   2.892   6.135  14.466  0.2037 -0.7858 -0.0698
  125CHL1  H15B15456   2.733   6.074  14.511  1.1767  0.7722  1.5408
  125CHL1   C1615457   2.907   5.987  14.630 -0.1145 -0.4303 -0.3751
  125CHL1  H16A15458   2.992   6.049  14.663 -3.4497  4.5601 -0.0223
  125CHL1  H16B15459   2.840   5.966  14.717 -1.1664 -1.2513 -1.3435
  125CHL1   C1715460   2.962   5.848  14.589  0.2027 -0.6185 -0.2154
  125CHL1   H1715461   2.877   5.778  14.605 -0.5455  0.5720  1.3282
  125CHL1   C1315462   2.984   5.860  14.442 -0.2027  0.6471  0.3618
  125CHL1   C1815463   3.111   5.942  14.402  0.0905 -0.6503 -0.5490
  125CHL1  H18A15464   3.098   6.045  14.444  1.2559 -0.3346 -0.9159
  125CHL1  H18B15465   3.204   5.903  14.449  0.0972 -0.6680 -0.5763
  125CHL1  H18C15466   3.136   5.940  14.294  0.7338 -1.0410 -0.3983
  125CHL1   C1215467   2.982   5.726  14.363 -0.8613  0.7929  0.8931
  125CHL1  H12A15468   3.069   5.658  14.374 -2.1778 -0.9127  1.0144
  125CHL1  H12B15469   2.890   5.671  14.390 -0.1900  0.1306  1.8944
  125CHL1   C1115470   2.965   5.739  14.208  0.3235 -0.3929  0.0222
  125CHL1  H11A15471   3.064   5.773  14.173 -0.0124 -0.0558 -0.6143
  125CHL1  H11B15472   2.948   5.639  14.162 -1.7580 -0.8541  1.6123
  125CHL1    C915473   2.853   5.838  14.169 -0.5677 -0.1154  0.2385
  125CHL1    H915474   2.762   5.776  14.187  0.5304 -2.3302 -1.2509
  125CHL1   C1015475   2.861   5.857  14.017 -0.3951  0.0668 -0.8573
  125CHL1   C1915476   3.000   5.915  13.968  0.3055  0.0930  0.4154
  125CHL1  H19A15477   2.991   5.959  13.866  1.1486  0.5420  0.5281
  125CHL1  H19B15478   3.036   5.993  14.038  3.6469 -1.2051  0.3322
  125CHL1  H19C15479   3.075   5.833  13.964  0.3926  0.2036 -1.0426
  125CHL1    C115480   2.826   5.729  13.934 -0.2322  0.4711 -0.0546
  125CHL1   H1A15481   2.907   5.654  13.946 -0.2974  0.4903  0.5715
  125CHL1   H1B15482   2.734   5.685  13.979  1.6168 -0.9615  2.6387
  125CHL1    C215483   2.795   5.749  13.789  0.4685  0.0506 -0.3512
  125CHL1   H2A15484   2.788   5.651  13.736  2.3645 -0.6520  0.6333
  125CHL1   H2B15485   2.887   5.789  13.743  0.4624  1.8450  1.1052
  125CHL1   C2015486   3.077   5.805  14.681  0.2193  0.2461 -0.6724
  125CHL1   H2015487   3.153   5.886  14.684 -1.0511  1.5724 -2.1494
  125CHL1   C2115488   3.135   5.675  14.633 -0.3923 -0.5469 -0.3178
  125CHL1  H21A15489   3.057   5.599  14.607 -0.1981 -0.0552 -2.5447
  125CHL1  H21B15490   3.208   5.631  14.704 -0.7550  0.5476  0.7566
  125CHL1  H21C15491   3.188   5.695  14.538 -0.3997  2.2820  0.1788
  125CHL1   C2215492   3.037   5.784  14.830  1.0884 -0.5605 -0.1420
  125CHL1  H22A15493   2.988   5.874  14.872  2.8937  1.2297 -1.7148
  125CHL1  H22B15494   2.953   5.713  14.847  1.1219 -0.3736  0.8917
  125CHL1   C2315495   3.145   5.756  14.936  0.0355  0.3211 -0.4313
  125CHL1  H23A15496   3.206   5.667  14.910 -0.9761 -0.6234  0.3763
  125CHL1  H23B15497   3.221   5.837  14.932  0.2333  0.1817  0.3346
  125CHL1   C2415498   3.095   5.749  15.077  1.2864 -0.5349 -0.3518
  125CHL1  H24A15499   3.054   5.847  15.109  0.1735 -0.8738 -0.7027
  125CHL1  H24B15500   3.005   5.685  15.073 -0.3887  1.6091  0.9057
  125CHL1   C2515501   3.195   5.699  15.175 -0.4500  0.0081  1.0031
  125CHL1   H2515502   3.233   5.600  15.144  1.0696  1.0092 -0.5381
  125CHL1   C2615503   3.321   5.791  15.199  0.1208 -0.2545  0.1363
  125CHL1  H26A15504   3.292   5.884  15.251  2.3180  0.3605  0.3566
  125CHL1  H26B15505   3.405   5.746  15.256  0.7509 -0.3135 -0.8089
  125CHL1  H26C15506   3.365   5.816  15.100  1.0657 -0.9098  0.3744
  125CHL1   C2715507   3.130   5.664  15.308 -0.1759  0.2660  0.0472
  125CHL1  H27A15508   3.200   5.637  15.389 -0.3007  1.1781  0.4699
  125CHL1  H27B15509   3.056   5.743  15.333 -0.6043 -0.1223  0.0172
  125CHL1  H27C15510   3.064   5.577  15.286  0.4522  0.2733 -2.1417
  126CHL1    C315511   1.315   6.347  13.675  0.1363 -0.1835 -0.4947
  126CHL1    H315512   1.267   6.448  13.682  1.5126  0.4480  0.2586
  126CHL1    O315513   1.326   6.303  13.544 -0.5813 -0.2812 -0.9710
  126CHL1   H3'15514   1.403   6.245  13.551 -1.1428 -0.9166  0.3234
  126CHL1    C415515   1.449   6.355  13.745 -0.3478  0.0588 -0.9750
  126CHL1   H4A15516   1.498   6.255  13.746  0.3836  0.4097 -0.7413
  126CHL1   H4B15517   1.515   6.424  13.687  1.8573  0.8792  2.2238
  126CHL1    C515518   1.428   6.404  13.885 -0.1539 -0.2423 -0.6914
  126CHL1    C615519   1.478   6.524  13.923  0.3269 -0.3548  0.2906
  126CHL1    H615520   1.521   6.587  13.843 -0.9260 -0.3695 -0.4182
  126CHL1    C715521   1.466   6.581  14.061  0.1303  0.4522  0.3629
  126CHL1   H7A15522   1.565   6.620  14.091  0.5095 -0.8756  0.8978
  126CHL1   H7B15523   1.391   6.663  14.058  0.6757  0.9381 -2.3954
  126CHL1    C815524   1.412   6.469  14.158  0.3947  0.3025  0.4942
  126CHL1    H815525   1.498   6.400  14.173  0.6132  0.7671  1.4924
  126CHL1   C1415526   1.376   6.523  14.288  0.4592  0.0647 -0.4620
  126CHL1   H1415527   1.292   6.591  14.264  0.2856 -0.0602 -0.2127
  126CHL1   C1515528   1.479   6.607  14.357 -0.3622  0.1975  0.0192
  126CHL1  H15A15529   1.570   6.544  14.353 -0.4951 -0.0414  0.5750
  126CHL1  H15B15530   1.496   6.701  14.300 -1.5365  1.4970  1.7082
  126CHL1   C1615531   1.434   6.610  14.503  0.1076  0.2370  0.1338
  126CHL1  H16A15532   1.523   6.581  14.562  1.9429 -0.1832 -2.6158
  126CHL1  H16B15533   1.404   6.712  14.535  0.1621  0.7789 -1.4550
  126CHL1   C1715534   1.308   6.520  14.516 -0.3591  0.8101  0.0703
  126CHL1   H1715535   1.224   6.587  14.487 -1.1678  0.4431  1.4624
  126CHL1   C1315536   1.323   6.427  14.398  0.1438 -0.1525 -0.3502
  126CHL1   C1815537   1.416   6.296  14.428 -0.0372 -0.4136 -0.8775
  126CHL1  H18A15538   1.370   6.219  14.494  1.0375 -0.8352 -0.6056
  126CHL1  H18B15539   1.458   6.254  14.334  1.2495 -1.4627  0.1326
  126CHL1  H18C15540   1.506   6.327  14.484  0.8028 -2.3385 -1.0806
  126CHL1   C1215541   1.190   6.376  14.333 -0.1615 -0.5382  0.0765
  126CHL1  H12A15542   1.139   6.307  14.404 -0.5727 -1.3021 -0.9346
  126CHL1  H12B15543   1.127   6.466  14.319 -0.6321 -0.7917  0.5171
  126CHL1   C1115544   1.214   6.310  14.204  0.5925 -0.5386 -0.0100
  126CHL1  H11A15545   1.259   6.211  14.224  0.2976 -0.9695 -1.3825
  126CHL1  H11B15546   1.113   6.290  14.163  0.3583  0.1471  0.2235
  126CHL1    C915547   1.293   6.396  14.100  0.8277 -0.7267 -0.2203
  126CHL1    H915548   1.223   6.479  14.076  0.3879 -0.7560  0.8973
  126CHL1   C1015549   1.333   6.319  13.975 -1.1854 -0.1210 -0.1877
  126CHL1   C1915550   1.417   6.200  14.014  0.0382 -0.1405 -0.3619
  126CHL1  H19A15551   1.473   6.161  13.926  1.1123  0.3188  0.1096
  126CHL1  H19B15552   1.485   6.219  14.099 -0.7511  1.7052 -0.1042
  126CHL1  H19C15553   1.347   6.121  14.050 -0.6818  0.6531  0.0354
  126CHL1    C115554   1.205   6.280  13.898 -0.4378  0.1539  0.1813
  126CHL1   H1A15555   1.144   6.204  13.951 -3.6643  2.1475 -0.3675
  126CHL1   H1B15556   1.142   6.371  13.900  1.0832  1.2533 -0.0392
  126CHL1    C215557   1.229   6.245  13.751  0.1803  0.0129 -0.2263
  126CHL1   H2A15558   1.132   6.232  13.698  1.1104  1.4527 -2.4118
  126CHL1   H2B15559   1.287   6.151  13.740  1.6190  1.0646 -2.4230
  126CHL1   C2015560   1.270   6.464  14.657  0.1175 -0.7564  0.1105
  126CHL1   H2015561   1.325   6.369  14.675  1.8188  0.1404 -0.1742
  126CHL1   C2115562   1.124   6.449  14.668 -0.1330 -0.3670  0.0991
  126CHL1  H21A15563   1.100   6.431  14.775  1.9977  1.8025  1.0424
  126CHL1  H21B15564   1.084   6.375  14.595 -1.7310  0.9747 -0.4563
  126CHL1  H21C15565   1.082   6.547  14.638  0.3796 -0.3799 -0.7004
  126CHL1   C2215566   1.317   6.561  14.773 -0.3995  0.2762 -0.6756
  126CHL1  H22A15567   1.287   6.509  14.867 -1.6457  0.0010 -1.2130
  126CHL1  H22B15568   1.425   6.587  14.772 -0.5428  1.0729  1.0384
  126CHL1   C2315569   1.242   6.696  14.783  0.2911 -0.5976  0.0195
  126CHL1  H23A15570   1.241   6.736  14.679 -2.9574  0.6074  0.4163
  126CHL1  H23B15571   1.142   6.674  14.827 -0.0239 -0.2586 -0.5168
  126CHL1   C2415572   1.329   6.796  14.862  0.1626  0.1011  0.0722
  126CHL1  H24A15573   1.375   6.740  14.946  0.1454  2.2142  1.5744
  126CHL1  H24B15574   1.414   6.834  14.801  1.8785  0.4872  2.5037
  126CHL1   C2515575   1.266   6.928  14.911  0.0920  0.2971  0.0943
  126CHL1   H2515576   1.208   6.969  14.825 -2.6177  0.3963  1.8643
  126CHL1   C2615577   1.166   6.908  15.026  0.1408  0.5424  0.0132
  126CHL1  H26A15578   1.088   6.840  14.986  0.3984  1.4581 -2.1755
  126CHL1  H26B15579   1.212   6.869  15.119 -1.4558  1.9007  1.4552
  126CHL1  H26C15580   1.137   7.012  15.053 -0.4556  0.3585  0.1028
  126CHL1   C2715581   1.375   7.030  14.947  0.7638 -0.4224  0.4267
  126CHL1  H27A15582   1.430   6.981  15.030 -0.3122 -1.9723  0.2764
  126CHL1  H27B15583   1.446   7.052  14.864  2.1143  0.1594  1.6809
  126CHL1  H27C15584   1.335   7.129  14.977 -0.6827 -0.8290 -0.1006
  127CHL1    C315585   2.188   6.077  13.779  0.8560  0.9913 -0.3853
  127CHL1    H315586   2.297   6.093  13.771  1.0050 -0.1673 -0.9317
  127CHL1    O315587   2.117   6.097  13.657  0.1929  0.9703 -0.2873
  127CHL1   H3'15588   2.154   6.024  13.606 -0.3007 -0.1245  0.8573
  127CHL1    C415589   2.177   5.933  13.817  0.3579 -0.5900 -0.3756
  127CHL1   H4A15590   2.070   5.915  13.839  0.6678  0.9235  3.2051
  127CHL1   H4B15591   2.214   5.870  13.734  1.4059  0.3403 -0.6329
  127CHL1    C515592   2.250   5.897  13.947 -0.5450 -0.4857  0.9668
  127CHL1    C615593   2.340   5.802  13.957 -0.0955  0.5898 -0.5982
  127CHL1    H615594   2.355   5.748  13.862 -1.2001  3.6253 -2.6638
  127CHL1    C715595   2.407   5.757  14.085  0.3086 -0.6226  0.1070
  127CHL1   H7A15596   2.400   5.647  14.096  0.2292 -0.6653 -0.3340
  127CHL1   H7B15597   2.514   5.788  14.087 -1.0445  5.2915 -0.7409
  127CHL1    C815598   2.333   5.809  14.210  0.5318 -0.0288 -0.3551
  127CHL1    H815599   2.245   5.745  14.230  0.0337  0.9256  0.5955
  127CHL1   C1415600   2.422   5.796  14.335  0.3251  0.5004  0.2287
  127CHL1   H1415601   2.512   5.848  14.296 -0.1749 -0.4306 -2.3602
  127CHL1   C1515602   2.469   5.656  14.373 -0.7049 -0.4245  0.1007
  127CHL1  H15A15603   2.381   5.588  14.371 -3.2641  2.6996 -0.4953
  127CHL1  H15B15604   2.554   5.633  14.305 -1.7946 -0.4752 -1.2719
  127CHL1   C1615605   2.518   5.681  14.519  0.0954  0.2135  0.0710
  127CHL1  H16A15606   2.480   5.594  14.577 -1.7082  1.3349  0.6502
  127CHL1  H16B15607   2.629   5.670  14.523  0.0792 -1.5325 -2.3593
  127CHL1   C1715608   2.471   5.823  14.556  0.2957  0.1662 -0.1290
  127CHL1   H1715609   2.548   5.897  14.527  1.4426 -1.5553 -1.6619
  127CHL1   C1315610   2.364   5.856  14.455  0.2770 -0.6645 -0.1345
  127CHL1   C1815611   2.236   5.778  14.496 -0.0641  0.0371 -0.3986
  127CHL1  H18A15612   2.258   5.675  14.531  2.3365  0.0753 -1.5771
  127CHL1  H18B15613   2.184   5.825  14.582 -1.1042 -1.7740  0.0032
  127CHL1  H18C15614   2.160   5.778  14.415  0.4864 -0.8740 -0.9249
  127CHL1   C1215615   2.335   6.011  14.434  0.0867  0.5627  0.0417
  127CHL1  H12A15616   2.299   6.059  14.528 -0.8755  1.7754 -0.9255
  127CHL1  H12B15617   2.431   6.062  14.410  1.2216 -0.3324  2.3091
  127CHL1   C1115618   2.244   6.040  14.317  0.7382  0.0587  0.5116
  127CHL1  H11A15619   2.142   5.998  14.332  0.1942  0.7427 -1.0291
  127CHL1  H11B15620   2.236   6.149  14.302 -1.0814  0.4665  3.7242
  127CHL1    C915621   2.292   5.959  14.188  0.1277  0.4898  0.1156
  127CHL1    H915622   2.390   6.009  14.172  0.1875 -0.1511 -1.7876
  127CHL1   C1015623   2.202   5.978  14.065 -0.7482 -0.1411  0.3222
  127CHL1   C1915624   2.054   5.942  14.099  0.8386  0.4867 -0.2873
  127CHL1  H19A15625   2.004   6.016  14.166 -0.1886  0.9959 -1.5781
  127CHL1  H19B15626   1.989   5.933  14.010 -0.1975 -1.7237  0.5931
  127CHL1  H19C15627   2.047   5.848  14.158  0.1650  0.1304 -0.9258
  127CHL1    C115628   2.202   6.129  14.018 -0.3644 -0.6040 -0.2293
  127CHL1   H1A15629   2.151   6.183  14.101  1.8544  1.1399  0.1025
  127CHL1   H1B15630   2.308   6.160  14.011  0.2401 -2.4124  0.4000
  127CHL1    C215631   2.136   6.174  13.889  0.2748  1.2456 -0.0551
  127CHL1   H2A15632   2.151   6.282  13.868  0.8994  0.9181 -1.3988
  127CHL1   H2B15633   2.025   6.165  13.893  0.1564  2.4299 -0.3546
  127CHL1   C2015634   2.438   5.852  14.707  0.1245  0.3401  0.5055
  127CHL1   H2015635   2.362   5.933  14.710 -0.9816 -0.5635 -1.0708
  127CHL1   C2115636   2.569   5.906  14.762 -0.2039  0.2846 -0.2951
  127CHL1  H21A15637   2.612   5.974  14.685 -2.2706  2.5634  0.4346
  127CHL1  H21B15638   2.645   5.824  14.763 -1.9930 -1.5499 -2.7266
  127CHL1  H21C15639   2.563   5.957  14.861  0.2489  0.5023 -0.3720
  127CHL1   C2215640   2.384   5.734  14.786  0.2500  0.5867 -0.2044
  127CHL1  H22A15641   2.315   5.672  14.725  0.5807  0.8072 -0.8128
  127CHL1  H22B15642   2.472   5.666  14.793 -2.3372 -3.2422 -1.6109
  127CHL1   C2315643   2.298   5.779  14.901 -0.5903  0.3377 -0.2954
  127CHL1  H23A15644   2.358   5.835  14.976 -0.3597 -3.5028  2.7421
  127CHL1  H23B15645   2.216   5.847  14.870 -0.6393  0.3795 -0.0769
  127CHL1   C2415646   2.247   5.652  14.976 -0.1024  0.2369 -0.6759
  127CHL1  H24A15647   2.195   5.601  14.892  0.4499 -0.9071 -0.3457
  127CHL1  H24B15648   2.335   5.586  14.995  0.3883  1.1197  0.2142
  127CHL1   C2515649   2.140   5.692  15.088 -0.0214  0.0083 -0.2151
  127CHL1   H2515650   2.075   5.768  15.038 -1.2953 -1.5779 -1.0609
  127CHL1   C2615651   2.049   5.575  15.112 -0.4107 -0.3342 -0.1797
  127CHL1  H26A15652   2.103   5.482  15.140 -2.0894 -0.7206  2.0971
  127CHL1  H26B15653   1.977   5.595  15.194 -1.2556 -0.7997 -0.7889
  127CHL1  H26C15654   1.984   5.549  15.026 -1.5305 -0.9664  0.8135
  127CHL1   C2715655   2.212   5.736  15.215 -0.2287  0.2955  0.3507
  127CHL1  H27A15656   2.132   5.765  15.287 -0.8483  2.1190 -0.9940
  127CHL1  H27B15657   2.283   5.666  15.264 -0.6932  1.5668  3.0038
  127CHL1  H27C15658   2.260   5.836  15.205 -0.0478  0.4150  2.0629
  128CHL1    C315659   1.632   2.341  13.003  0.4420  0.9361 -1.0913
  128CHL1    H315660   1.552   2.404  13.047  0.5766 -1.1021  2.3757
  128CHL1    O315661   1.627   2.353  12.860 -0.0074  0.0572 -0.0475
  128CHL1   H3'15662   1.682   2.286  12.819  0.4722  1.5312 -1.9306
  128CHL1    C415663   1.763   2.389  13.061 -0.5080 -0.1278  1.0583
  128CHL1   H4A15664   1.835   2.313  13.024 -1.0490  0.9540 -2.6663
  128CHL1   H4B15665   1.791   2.490  13.025 -0.6229  0.0185  1.3751
  128CHL1    C515666   1.767   2.379  13.209 -0.8010  0.2564 -0.0197
  128CHL1    C615667   1.767   2.494  13.276 -0.3201  0.2874 -0.2843
  128CHL1    H615668   1.765   2.581  13.209  1.4945 -1.4135 -2.7231
  128CHL1    C715669   1.758   2.499  13.425 -0.5335 -0.1313  0.0225
  128CHL1   H7A15670   1.840   2.570  13.447 -0.6058 -0.1747  0.4338
  128CHL1   H7B15671   1.667   2.547  13.467  0.1196 -1.2009  2.8930
  128CHL1    C815672   1.791   2.358  13.491 -0.1648 -0.2344 -0.0989
  128CHL1    H815673   1.899   2.338  13.474 -0.1785  0.5752 -1.2763
  128CHL1   C1415674   1.766   2.368  13.639  0.2256  0.6885 -0.3086
  128CHL1   H1415675   1.656   2.379  13.652  0.3265  1.0542  0.2954
  128CHL1   C1515676   1.836   2.476  13.714  0.7184 -0.4226 -0.0841
  128CHL1  H15A15677   1.945   2.461  13.702  0.6417 -0.9540 -0.1333
  128CHL1  H15B15678   1.807   2.580  13.689  0.5553 -0.6187 -0.7403
  128CHL1   C1615679   1.810   2.429  13.861  0.0286 -0.2764  0.4601
  128CHL1  H16A15680   1.906   2.418  13.915  0.7504  0.5243 -0.6336
  128CHL1  H16B15681   1.749   2.509  13.908 -1.8627 -0.4895 -1.4555
  128CHL1   C1715682   1.741   2.289  13.857 -0.0320 -0.4724  0.5012
  128CHL1   H1715683   1.630   2.289  13.847  0.1394 -0.3236 -1.8227
  128CHL1   C1315684   1.782   2.234  13.714 -0.5431 -0.5754 -0.7639
  128CHL1   C1815685   1.933   2.179  13.721 -0.0481  0.1306 -0.1658
  128CHL1  H18A15686   1.944   2.091  13.788 -2.0157  0.4459  0.6669
  128CHL1  H18B15687   1.958   2.151  13.617  0.4307 -1.9432  0.4714
  128CHL1  H18C15688   1.995   2.262  13.762 -0.2718 -1.0406  2.8399
  128CHL1   C1215689   1.687   2.130  13.645  0.1238  0.2618  0.4046
  128CHL1  H12A15690   1.690   2.030  13.694 -0.4852 -0.4756 -0.9932
  128CHL1  H12B15691   1.586   2.173  13.659  0.3512  1.2871 -0.8402
  128CHL1   C1115692   1.729   2.107  13.499 -0.1259 -0.0711  0.1038
  128CHL1  H11A15693   1.834   2.069  13.494 -0.0523  0.0594  0.6531
  128CHL1  H11B15694   1.663   2.032  13.452 -2.1182  0.0834  2.4895
  128CHL1    C915695   1.713   2.245  13.422  0.1904  0.4686  0.7964
  128CHL1    H915696   1.603   2.258  13.427  0.2197  1.0763 -0.1160
  128CHL1   C1015697   1.745   2.238  13.270 -0.0304  0.5693 -0.3567
  128CHL1   C1915698   1.866   2.140  13.257 -0.1031 -0.4623  0.3382
  128CHL1  H19A15699   1.848   2.034  13.284 -0.0731 -0.6370 -0.3171
  128CHL1  H19B15700   1.893   2.135  13.149 -0.8015  2.0236 -0.0316
  128CHL1  H19C15701   1.944   2.187  13.321  1.2892 -3.1372  0.7323
  128CHL1    C115702   1.629   2.163  13.196  0.2797  0.3561 -0.5579
  128CHL1   H1A15703   1.616   2.056  13.220  0.4152  0.5299  0.3492
  128CHL1   H1B15704   1.544   2.212  13.249  0.3397 -0.9728  0.8382
  128CHL1    C215705   1.614   2.194  13.046 -0.1657 -0.4012  0.5715
  128CHL1   H2A15706   1.515   2.161  13.008 -0.0748 -0.7822  0.6630
  128CHL1   H2B15707   1.694   2.133  12.997 -1.1983 -1.9889  0.7922
  128CHL1   C2015708   1.787   2.204  13.977 -0.0248 -0.3173 -0.2390
  128CHL1   H2015709   1.895   2.181  13.985 -0.8143 -4.0925  2.4324
  128CHL1   C2115710   1.713   2.072  13.975  0.1021 -0.1612  0.2610
  128CHL1  H21A15711   1.743   2.024  13.880  1.4145 -1.1858  1.1577
  128CHL1  H21B15712   1.604   2.092  13.976 -0.1154 -1.2063 -0.8151
  128CHL1  H21C15713   1.745   2.007  14.059  0.6690  0.1202  0.2668
  128CHL1   C2215714   1.744   2.272  14.118 -0.2713 -0.6952 -0.4416
  128CHL1  H22A15715   1.793   2.371  14.129 -1.8069 -0.1184  2.1239
  128CHL1  H22B15716   1.633   2.280  14.120 -0.2666 -0.3955 -1.0909
  128CHL1   C2315717   1.797   2.192  14.243  0.0471  0.4641  0.1124
  128CHL1  H23A15718   1.716   2.119  14.264 -0.8700  1.8284  1.5633
  128CHL1  H23B15719   1.893   2.144  14.213 -0.1523  0.9323 -1.3692
  128CHL1   C2415720   1.799   2.279  14.371 -0.2580 -0.1070  0.6331
  128CHL1  H24A15721   1.856   2.374  14.358 -0.1722 -0.2723 -0.2277
  128CHL1  H24B15722   1.694   2.314  14.381 -0.7956 -0.8457 -1.7447
  128CHL1   C2515723   1.843   2.216  14.506 -0.5367 -0.0420  0.4202
  128CHL1   H2515724   1.860   2.298  14.578  0.1351  1.6465 -1.5686
  128CHL1   C2615725   1.736   2.124  14.558 -0.2709  0.1496  0.3233
  128CHL1  H26A15726   1.761   2.101  14.663  1.4808  2.6187  0.5372
  128CHL1  H26B15727   1.635   2.171  14.566 -1.2364 -1.9992  1.8341
  128CHL1  H26C15728   1.727   2.038  14.488  1.9977 -0.3960  0.6363
  128CHL1   C2715729   1.971   2.139  14.485  0.3137 -0.3114 -0.4649
  128CHL1  H27A15730   1.954   2.039  14.440  0.3868 -0.4894 -0.0967
  128CHL1  H27B15731   2.046   2.193  14.424  1.1754  0.2217  1.0138
  128CHL1  H27C15732   2.014   2.123  14.586  0.8088  1.7268 -0.3107
  129CHL1    C315733   3.785   5.361  13.027  0.4615  0.6696 -0.1368
  129CHL1    H315734   3.686   5.311  13.025  0.1272  1.3349 -0.7448
  129CHL1    O315735   3.830   5.389  12.890  0.0092 -0.3630 -0.1323
  129CHL1   H3'15736   3.914   5.436  12.897  1.7962 -3.6100  2.8833
  129CHL1    C415737   3.769   5.495  13.103 -0.0333  0.5333 -0.3511
  129CHL1   H4A15738   3.864   5.550  13.084  0.7960 -1.1382 -1.1945
  129CHL1   H4B15739   3.683   5.546  13.056  1.0060  2.0364 -0.7155
  129CHL1    C515740   3.762   5.494  13.255  0.0039  0.5700 -0.0708
  129CHL1    C615741   3.666   5.560  13.318  0.3281 -0.4180 -0.1057
  129CHL1    H615742   3.599   5.623  13.258  0.5330  0.2107  0.3128
  129CHL1    C715743   3.649   5.571  13.470  0.0903  0.2325 -0.5673
  129CHL1   H7A15744   3.621   5.673  13.503 -0.2385  0.6132 -1.9796
  129CHL1   H7B15745   3.557   5.514  13.496  0.6901 -0.3024  0.4562
  129CHL1    C815746   3.770   5.496  13.544  0.2172  0.0697  0.0696
  129CHL1    H815747   3.858   5.562  13.531  0.1786 -0.2802 -2.7491
  129CHL1   C1415748   3.736   5.470  13.689 -0.6256  0.8410  0.2962
  129CHL1   H1415749   3.650   5.400  13.687 -0.3531  0.3223  2.9408
  129CHL1   C1515750   3.679   5.585  13.770 -0.3622  0.4176  0.6156
  129CHL1  H15A15751   3.741   5.676  13.752  1.1046 -0.9831 -2.1398
  129CHL1  H15B15752   3.573   5.603  13.743  0.5745  2.4659 -2.1347
  129CHL1   C1615753   3.713   5.543  13.914 -0.6081  0.3468 -0.3772
  129CHL1  H16A15754   3.761   5.621  13.977 -0.9467 -2.9822  4.5591
  129CHL1  H16B15755   3.620   5.506  13.962 -0.5997 -0.8420 -1.2385
  129CHL1   C1715756   3.788   5.404  13.908  1.0940 -0.1627  0.2572
  129CHL1   H1715757   3.706   5.329  13.905  3.1959 -2.5867  0.3355
  129CHL1   C1315758   3.844   5.398  13.765 -0.7909  0.2315 -0.5441
  129CHL1   C1815759   3.983   5.478  13.762  0.0133 -0.1682  0.3876
  129CHL1  H18A15760   4.070   5.435  13.816  0.6014  2.4419  1.6665
  129CHL1  H18B15761   4.012   5.490  13.656 -0.0841  1.4113  0.5177
  129CHL1  H18C15762   3.956   5.575  13.809 -0.1375 -0.4099  0.8045
  129CHL1   C1215763   3.864   5.267  13.697 -0.5011  0.6578  0.3534
  129CHL1  H12A15764   3.943   5.207  13.747 -0.9078  0.8561  1.2565
  129CHL1  H12B15765   3.770   5.211  13.714 -1.4585  2.1615  0.1491
  129CHL1   C1115766   3.903   5.285  13.551 -0.2265  0.3800 -0.1074
  129CHL1  H11A15767   4.006   5.323  13.533  0.0125 -0.4084 -0.4654
  129CHL1  H11B15768   3.902   5.184  13.505 -0.0558  0.0833  0.5144
  129CHL1    C915769   3.804   5.367  13.466 -0.1150  0.0504  0.4485
  129CHL1    H915770   3.717   5.299  13.452 -0.8696  0.9488  0.6332
  129CHL1   C1015771   3.851   5.396  13.326  0.1799 -0.4186  0.0653
  129CHL1   C1915772   3.993   5.457  13.329  0.2547 -0.0869 -0.0681
  129CHL1  H19A15773   4.003   5.537  13.406  1.0527 -0.6390  0.4184
  129CHL1  H19B15774   4.071   5.379  13.344  2.3610  1.7317 -0.9959
  129CHL1  H19C15775   4.017   5.499  13.229  0.3779 -2.5755 -1.1590
  129CHL1    C115776   3.854   5.263  13.244  1.0588  0.0796  0.7096
  129CHL1   H1A15777   3.928   5.197  13.295  2.6546  0.9436 -0.4031
  129CHL1   H1B15778   3.752   5.219  13.252  0.3110  0.9179 -2.6503
  129CHL1    C215779   3.895   5.278  13.098 -0.0991  0.8437 -0.2110
  129CHL1   H2A15780   3.902   5.174  13.059 -2.0107 -0.5603  2.8121
  129CHL1   H2B15781   3.996   5.321  13.086  1.8415 -2.8738  1.2075
  129CHL1   C2015782   3.874   5.369  14.038  0.2933 -0.1347 -0.2540
  129CHL1   H2015783   3.957   5.442  14.038 -0.9165  1.2841 -0.0487
  129CHL1   C2115784   3.930   5.225  14.026 -0.0736 -0.4002  0.9153
  129CHL1  H21A15785   3.848   5.151  14.011 -1.2394  1.1837 -1.0311
  129CHL1  H21B15786   3.985   5.196  14.118  0.7020 -1.0035  0.2825
  129CHL1  H21C15787   4.005   5.217  13.944  0.3109  0.1947  1.1996
  129CHL1   C2215788   3.799   5.389  14.167 -0.0833  0.2950 -0.1368
  129CHL1  H22A15789   3.781   5.497  14.183  0.4909  0.5702 -1.2245
  129CHL1  H22B15790   3.702   5.335  14.164  0.4623 -0.7701  0.6104
  129CHL1   C2315791   3.862   5.344  14.301 -0.0393 -0.1877 -0.2434
  129CHL1  H23A15792   3.874   5.234  14.301 -0.0030 -0.2329 -2.3853
  129CHL1  H23B15793   3.962   5.392  14.298  0.3579 -1.0584 -1.8411
  129CHL1   C2415794   3.781   5.403  14.418 -0.1742  0.0657  0.4827
  129CHL1  H24A15795   3.777   5.513  14.405 -2.8536 -0.1637 -1.5575
  129CHL1  H24B15796   3.677   5.363  14.419 -1.4773  3.1789  0.1778
  129CHL1   C2515797   3.845   5.365  14.554  0.1479  0.1738 -0.2569
  129CHL1   H2515798   3.956   5.370  14.546  0.2348 -2.2186 -1.2266
  129CHL1   C2615799   3.790   5.455  14.660  0.2398  0.0764  0.3085
  129CHL1  H26A15800   3.833   5.430  14.759  1.2233 -0.0999 -0.1561
  129CHL1  H26B15801   3.822   5.560  14.645  1.3590 -0.1229  1.2181
  129CHL1  H26C15802   3.680   5.442  14.655  0.1237  1.2626 -2.1747
  129CHL1   C2715803   3.804   5.226  14.595  0.1251  0.3052  0.5987
  129CHL1  H27A15804   3.856   5.157  14.525  0.0091  0.9871 -0.1787
  129CHL1  H27B15805   3.821   5.180  14.694  0.6206  0.8457  0.7655
  129CHL1  H27C15806   3.694   5.212  14.582  0.0661 -0.5028  1.8391
  130CHL1    C315807   0.135   5.853  13.096  0.4342 -0.2661  0.0538
  130CHL1    H315808   0.079   5.948  13.109  3.3013  1.2689  1.9895
  130CHL1    O315809   0.169   5.849  12.961 -0.2655 -0.4370  0.0504
  130CHL1   H3'15810   0.226   5.773  12.950 -0.5506 -0.4958 -1.1286
  130CHL1    C415811   0.252   5.858  13.195  0.1238  0.2357 -0.8152
  130CHL1   H4A15812   0.304   5.760  13.204  0.4615  0.5236  0.6950
  130CHL1   H4B15813   0.330   5.933  13.169 -0.5553  1.8521  1.5073
  130CHL1    C515814   0.189   5.880  13.333 -0.3413 -0.2145 -0.4053
  130CHL1    C615815   0.226   5.993  13.404  0.1466 -0.2083 -0.2641
  130CHL1    H615816   0.311   6.053  13.368  3.6573 -5.3766 -1.7510
  130CHL1    C715817   0.179   6.026  13.540 -0.2114  0.1535  0.4007
  130CHL1   H7A15818   0.270   6.055  13.597  0.0587  0.2688 -0.0834
  130CHL1   H7B15819   0.101   6.105  13.537 -1.9424 -1.4776  0.5012
  130CHL1    C815820   0.114   5.900  13.601  0.3795 -0.1972 -0.1293
  130CHL1    H815821   0.197   5.829  13.619  0.3736 -0.5975 -1.5659
  130CHL1   C1415822   0.028   5.942  13.719  0.9968  0.0752 -0.3158
  130CHL1   H1415823  -0.066   5.990  13.686  1.4241  1.4801  0.4306
  130CHL1   C1515824   0.094   6.040  13.813 -0.2926  0.3368 -0.7346
  130CHL1  H15A15825   0.198   6.007  13.832 -0.8658 -0.4775  1.2274
  130CHL1  H15B15826   0.086   6.147  13.783  0.5217  0.2765 -1.1912
  130CHL1   C1615827   0.023   6.019  13.947 -0.0869 -0.5842 -0.3584
  130CHL1  H16A15828   0.097   5.994  14.026 -0.7371  0.3069  0.5446
  130CHL1  H16B15829  -0.026   6.111  13.985  1.2939 -0.1748  0.5281
  130CHL1   C1715830  -0.083   5.907  13.920 -0.6358  0.1911  0.2448
  130CHL1   H1715831  -0.162   5.976  13.884  1.6022  1.7156 -2.0483
  130CHL1   C1315832  -0.027   5.823  13.799 -0.2907 -0.0897  0.5439
  130CHL1   C1815833   0.099   5.745  13.852 -0.4622  0.0603 -0.4023
  130CHL1  H18A15834   0.150   5.710  13.759  0.6933  1.1797 -0.2135
  130CHL1  H18B15835   0.164   5.804  13.920 -1.7437  0.4428  0.5271
  130CHL1  H18C15836   0.064   5.652  13.902  0.1756  1.4848  2.9060
  130CHL1   C1215837  -0.125   5.736  13.717  0.1252  0.3560  0.3051
  130CHL1  H12A15838  -0.139   5.639  13.769 -2.1534  0.9493  0.9058
  130CHL1  H12B15839  -0.223   5.780  13.690  0.2906  0.8874  0.5563
  130CHL1   C1115840  -0.058   5.708  13.579  0.5287  0.5368 -0.2226
  130CHL1  H11A15841   0.023   5.638  13.609  0.9525  1.5718  1.1551
  130CHL1  H11B15842  -0.138   5.664  13.517  1.3316  0.4057 -1.1863
  130CHL1    C915843   0.013   5.825  13.506 -0.3644 -0.4561  0.0542
  130CHL1    H915844  -0.060   5.903  13.476 -0.5933 -0.3668  0.8139
  130CHL1   C1015845   0.082   5.777  13.378  0.2799 -1.0033 -0.2411
  130CHL1   C1915846   0.160   5.645  13.398  0.1320  0.1215 -0.1919
  130CHL1  H19A15847   0.197   5.598  13.305 -1.6793 -1.3386 -0.2383
  130CHL1  H19B15848   0.231   5.664  13.481 -1.2536  0.4066  0.9722
  130CHL1  H19C15849   0.093   5.564  13.435 -0.4413  1.3151  1.5322
  130CHL1    C115850  -0.025   5.764  13.268 -0.1038  0.2331  0.2211
  130CHL1   H1A15851  -0.097   5.682  13.290 -3.0421  2.6377  0.2600
  130CHL1   H1B15852  -0.079   5.861  13.255 -1.5269 -0.3641  1.3806
  130CHL1    C215853   0.045   5.737  13.126 -0.2075 -0.1633 -0.6008
  130CHL1   H2A15854  -0.031   5.727  13.045 -0.4175 -0.9563 -0.3069
  130CHL1   H2B15855   0.106   5.645  13.135 -0.8575 -0.8633 -2.7406
  130CHL1   C2015856  -0.129   5.834  14.052  0.0367  0.1646 -0.2482
  130CHL1   H2015857  -0.052   5.759  14.079 -1.7531 -1.6477  0.0565
  130CHL1   C2115858  -0.266   5.779  14.014 -0.0873 -0.2872  0.4225
  130CHL1  H21A15859  -0.315   5.730  14.101  0.6786 -2.3286 -0.2287
  130CHL1  H21B15860  -0.257   5.704  13.933  0.9755  1.6614 -1.3577
  130CHL1  H21C15861  -0.320   5.871  13.982 -0.5803 -0.8956 -0.5414
  130CHL1   C2215862  -0.145   5.934  14.173 -0.0387 -0.0959  0.5034
  130CHL1  H22A15863  -0.047   5.983  14.188  0.1657 -0.3803  0.1273
  130CHL1  H22B15864  -0.224   6.010  14.153 -0.8598 -0.9538  0.4100
  130CHL1   C2315865  -0.181   5.872  14.312  0.7874  0.1224  0.5818
  130CHL1  H23A15866  -0.284   5.832  14.299  1.1323 -0.3443 -0.8355
  130CHL1  H23B15867  -0.119   5.780  14.324 -0.3037 -0.5550  1.2837
  130CHL1   C2415868  -0.148   5.964  14.432  0.9700  0.6227  0.3123
  130CHL1  H24A15869  -0.134   5.902  14.523 -0.3913 -0.5593 -0.2415
  130CHL1  H24B15870  -0.060   6.028  14.408 -0.3239  2.4555  0.2379
  130CHL1   C2515871  -0.269   6.057  14.452  0.2727  0.1925  0.5324
  130CHL1   H2515872  -0.313   6.095  14.357 -1.3871  3.1036  2.3237
  130CHL1   C2615873  -0.388   5.985  14.512  0.3233  0.1544  0.1457
  130CHL1  H26A15874  -0.350   5.946  14.609  1.5143  2.4186  0.6567
  130CHL1  H26B15875  -0.474   6.053  14.532  0.7090  0.4845  0.7373
  130CHL1  H26C15876  -0.418   5.894  14.456  0.4222 -0.9017  1.7285
  130CHL1   C2715877  -0.232   6.181  14.532 -0.5640  0.1374 -0.2938
  130CHL1  H27A15878  -0.201   6.267  14.469 -3.6298  0.3990 -1.6201
  130CHL1  H27B15879  -0.323   6.228  14.575  0.2429  0.1093  1.5055
  130CHL1  H27C15880  -0.161   6.154  14.613  0.4346  2.4416 -0.3118
  131CHL1    C315881   1.976   5.390  13.526 -0.2246  0.5414  0.2431
  131CHL1    H315882   1.962   5.281  13.512  3.8256  0.0334 -1.1992
  131CHL1    O315883   1.979   5.455  13.398 -0.2061 -0.5995 -0.4488
  131CHL1   H3'15884   2.018   5.540  13.422  0.9888 -1.8064  2.2078
  131CHL1    C415885   1.867   5.461  13.611  0.9297 -0.1279  0.2061
  131CHL1   H4A15886   1.886   5.570  13.605 -1.5947  0.3450 -0.2640
  131CHL1   H4B15887   1.766   5.445  13.568  1.3031 -1.9327 -0.0971
  131CHL1    C515888   1.871   5.416  13.758 -0.3360 -0.0834  0.5500
  131CHL1    C615889   1.769   5.349  13.810 -0.3834  0.3003 -0.0080
  131CHL1    H615890   1.679   5.339  13.747 -0.0296  2.0511 -0.8369
  131CHL1    C715891   1.774   5.289  13.949 -0.6186 -0.3309 -0.2782
  131CHL1   H7A15892   1.676   5.304  13.999 -0.5507  1.1315 -0.5343
  131CHL1   H7B15893   1.804   5.183  13.952  0.8869  0.0780 -0.1371
  131CHL1    C815894   1.877   5.358  14.041  0.5214 -0.1323  0.7090
  131CHL1    H815895   1.839   5.462  14.052 -0.1829 -0.4418  1.2769
  131CHL1   C1415896   1.892   5.305  14.185  0.2644 -0.0940 -0.1347
  131CHL1   H1415897   1.924   5.200  14.165 -1.3147 -0.7791  0.7861
  131CHL1   C1515898   1.762   5.288  14.259  0.6925 -1.0481 -0.0783
  131CHL1  H15A15899   1.713   5.388  14.261  2.2203 -0.2633 -0.1418
  131CHL1  H15B15900   1.692   5.212  14.219 -1.4119  1.5740 -1.7303
  131CHL1   C1615901   1.820   5.258  14.404  0.6966 -0.3536  0.5062
  131CHL1  H16A15902   1.757   5.315  14.476 -0.6259 -2.7974  1.3810
  131CHL1  H16B15903   1.815   5.150  14.427  1.2405 -1.3509 -3.2828
  131CHL1   C1715904   1.970   5.304  14.409  0.7570 -0.0181 -0.3053
  131CHL1   H1715905   2.023   5.207  14.409 -0.8330 -0.9369 -1.4174
  131CHL1   C1315906   1.991   5.380  14.278 -0.2000 -0.0934 -0.1198
  131CHL1   C1815907   1.946   5.529  14.297  0.1555  0.1155 -0.7337
  131CHL1  H18A15908   1.927   5.572  14.197 -4.7140 -0.8019 -0.4733
  131CHL1  H18B15909   1.851   5.528  14.356  0.7573  1.1776  0.2965
  131CHL1  H18C15910   2.023   5.592  14.346  0.9036 -1.4233  0.1647
  131CHL1   C1215911   2.130   5.371  14.203  0.0757  0.1213 -0.1578
  131CHL1  H12A15912   2.214   5.410  14.265 -0.3368  0.0675  0.4502
  131CHL1  H12B15913   2.152   5.263  14.194 -0.0676  0.2368 -2.6921
  131CHL1   C1115914   2.123   5.427  14.061  0.3014  0.0980  0.0778
  131CHL1  H11A15915   2.120   5.538  14.064 -1.3888  0.0779  2.0083
  131CHL1  H11B15916   2.221   5.406  14.013 -0.6206  0.7529 -2.2227
  131CHL1    C915917   2.007   5.368  13.971  0.0382  0.4945 -0.2421
  131CHL1    H915918   2.038   5.263  13.948 -1.7772 -1.0808  3.5781
  131CHL1   C1015919   2.006   5.440  13.830 -0.3618  0.0243 -0.2135
  131CHL1   C1915920   2.046   5.590  13.833 -0.3245  0.3818  0.0779
  131CHL1  H19A15921   2.019   5.644  13.740 -1.3094 -2.1945 -1.2305
  131CHL1  H19B15922   1.993   5.635  13.920 -0.4003 -2.2344  1.4997
  131CHL1  H19C15923   2.156   5.602  13.842  0.0153 -2.0215 -0.1025
  131CHL1    C115924   2.107   5.371  13.734  0.3730 -0.1118  0.6965
  131CHL1   H1A15925   2.210   5.390  13.771  1.3504 -1.1208 -1.3404
  131CHL1   H1B15926   2.087   5.261  13.732 -0.7085  0.0514 -1.8381
  131CHL1    C215927   2.107   5.415  13.583  0.0420  0.2976 -0.1821
  131CHL1   H2A15928   2.194   5.366  13.533 -0.2250  0.0437 -0.4018
  131CHL1   H2B15929   2.124   5.525  13.582 -1.7665  0.6768  2.1243
  131CHL1   C2015930   2.004   5.372  14.537  1.0237  0.3123 -0.4176
  131CHL1   H2015931   1.943   5.463  14.554  2.1946  1.0866 -0.2481
  131CHL1   C2115932   2.149   5.419  14.546 -0.7113  0.4107 -0.5080
  131CHL1  H21A15933   2.178   5.484  14.461  1.4934  0.5882  0.3298
  131CHL1  H21B15934   2.217   5.332  14.547 -0.4413  0.6181 -0.6184
  131CHL1  H21C15935   2.163   5.484  14.636 -3.1446  2.4940 -1.4838
  131CHL1   C2215936   1.975   5.277  14.660  0.1761  0.1064  0.1033
  131CHL1  H22A15937   1.870   5.243  14.653  0.6283 -1.0664 -1.9118
  131CHL1  H22B15938   2.037   5.185  14.659  0.4329  0.2318  2.0359
  131CHL1   C2315939   2.005   5.340  14.799  0.2945  0.4630 -0.7358
  131CHL1  H23A15940   2.113   5.344  14.823  0.1706  0.2488 -0.1200
  131CHL1  H23B15941   1.976   5.448  14.795 -0.9009  0.2463  0.9314
  131CHL1   C2415942   1.932   5.281  14.925  0.2962 -0.6490 -0.3749
  131CHL1  H24A15943   1.978   5.321  15.019  0.5190 -2.2521  0.2198
  131CHL1  H24B15944   1.823   5.302  14.922  0.1898 -0.7592  1.5390
  131CHL1   C2515945   1.930   5.132  14.924  0.0546 -0.1802 -0.7196
  131CHL1   H2515946   1.882   5.112  14.826 -0.2554  0.9871 -0.8246
  131CHL1   C2615947   2.072   5.080  14.936  0.3552 -0.6964  0.2644
  131CHL1  H26A15948   2.145   5.115  14.860  1.4156  0.0968  1.5937
  131CHL1  H26B15949   2.111   5.118  15.033 -1.4965  0.3358  0.6446
  131CHL1  H26C15950   2.076   4.969  14.947 -0.8846 -0.7636  0.1309
  131CHL1   C2715951   1.839   5.068  15.037  0.5694  0.0637  0.2806
  131CHL1  H27A15952   1.741   5.120  15.029 -0.7779 -1.7888  3.0701
  131CHL1  H27B15953   1.831   4.960  15.013 -1.4548  0.2944 -0.2985
  131CHL1  H27C15954   1.879   5.093  15.137 -0.3643 -0.7355  0.8664
  132CHL1    C315955   2.489   0.968  13.378 -0.7116  0.4894  0.7059
  132CHL1    H315956   2.381   0.943  13.377 -0.6516  0.1570  1.7853
  132CHL1    O315957   2.529   1.006  13.247 -0.0110 -0.6242 -0.5046
  132CHL1   H3'15958   2.623   1.020  13.256  0.0501 -1.0926 -0.3749
  132CHL1    C415959   2.529   1.073  13.477 -0.2871 -0.2175 -1.1363
  132CHL1   H4A15960   2.636   1.096  13.455  0.2092 -0.6531  0.6555
  132CHL1   H4B15961   2.462   1.161  13.470 -1.6171 -0.9302  1.5821
  132CHL1    C515962   2.518   1.026  13.621 -1.0434 -1.1136  0.8702
  132CHL1    C615963   2.457   1.097  13.717  0.3935  0.5256  0.4651
  132CHL1    H615964   2.413   1.195  13.696  0.6952  0.2007 -1.8773
  132CHL1    C715965   2.431   1.042  13.854  0.0137  0.4951 -0.3564
  132CHL1   H7A15966   2.426   1.125  13.928  1.2073  0.8446 -0.6431
  132CHL1   H7B15967   2.329   0.998  13.852  0.4204 -0.4472 -0.4978
  132CHL1    C815968   2.531   0.939  13.905 -0.3239 -0.6192 -0.1474
  132CHL1    H815969   2.634   0.981  13.911 -1.1292  1.4257  0.1358
  132CHL1   C1415970   2.476   0.870  14.034 -0.4736 -0.1567  0.2903
  132CHL1   H1415971   2.380   0.829  13.997  0.5698 -1.6699 -0.9203
  132CHL1   C1515972   2.439   0.951  14.161 -0.6136  0.0653  0.4894
  132CHL1  H15A15973   2.529   1.011  14.187 -1.3625  1.5275 -0.1819
  132CHL1  H15B15974   2.346   1.011  14.152 -2.2485 -2.1478  1.7818
  132CHL1   C1615975   2.415   0.838  14.258  0.2950  0.8141  0.3992
  132CHL1  H16A15976   2.484   0.849  14.345 -0.1581 -1.2359  1.0728
  132CHL1  H16B15977   2.308   0.839  14.288 -0.7746  0.8125 -3.0155
  132CHL1   C1715978   2.450   0.697  14.190 -0.5140 -0.3308 -0.1364
  132CHL1   H1715979   2.359   0.663  14.136  0.3721 -0.4351 -1.6437
  132CHL1   C1315980   2.540   0.732  14.072 -0.3349 -0.1780  0.0920
  132CHL1   C1815981   2.687   0.752  14.113 -0.4168  0.1566 -0.0519
  132CHL1  H18A15982   2.745   0.660  14.136 -0.1946 -0.0284 -1.2958
  132CHL1  H18B15983   2.741   0.796  14.027 -1.1629  0.9345 -0.1342
  132CHL1  H18C15984   2.709   0.824  14.194 -1.3000  1.3987 -0.8753
  132CHL1   C1215985   2.525   0.644  13.954  0.3600  0.4676 -0.1015
  132CHL1  H12A15986   2.567   0.546  13.985 -0.9710 -0.0053  0.2461
  132CHL1  H12B15987   2.421   0.613  13.933  0.0487 -1.4917  3.5812
  132CHL1   C1115988   2.589   0.694  13.826 -0.2161 -0.2158 -0.6419
  132CHL1  H11A15989   2.697   0.708  13.846 -0.3894  1.3407 -0.7025
  132CHL1  H11B15990   2.572   0.612  13.753 -0.6184 -1.6767  1.0164
  132CHL1    C915991   2.532   0.835  13.791  0.0611  0.3754 -0.0080
  132CHL1    H915992   2.424   0.815  13.771  0.8985 -2.0604 -2.6985
  132CHL1   C1015993   2.579   0.888  13.654  0.0319 -0.2817 -0.0468
  132CHL1   C1915994   2.728   0.916  13.660 -0.4220 -0.3094 -0.4554
  132CHL1  H19A15995   2.750   0.996  13.734 -2.8976  0.1809 -0.1508
  132CHL1  H19B15996   2.787   0.824  13.680  0.6302  0.4692  0.1019
  132CHL1  H19C15997   2.768   0.950  13.562  2.0400  0.4929  0.7643
  132CHL1    C115998   2.550   0.794  13.540  0.4126 -0.1678 -0.2196
  132CHL1   H1A15999   2.580   0.689  13.561  0.4779  0.0082  0.6148
  132CHL1   H1B16000   2.442   0.778  13.559  0.3414  0.7859  0.1937
  132CHL1    C216001   2.566   0.840  13.398  0.1831  0.9859 -0.3481
  132CHL1   H2A16002   2.507   0.775  13.330 -0.8483 -0.5180  1.8447
  132CHL1   H2B16003   2.673   0.849  13.372  0.0334  0.7295 -1.0781
  132CHL1   C2016004   2.492   0.598  14.303  0.2655 -0.5299  0.1392
  132CHL1   H2016005   2.593   0.638  14.327  0.8182 -0.4893 -2.0202
  132CHL1   C2116006   2.503   0.459  14.254 -0.6873  0.1885 -0.2862
  132CHL1  H21A16007   2.553   0.455  14.155 -2.1684 -0.1223 -1.0456
  132CHL1  H21B16008   2.407   0.404  14.252 -1.0891  0.8326 -3.0542
  132CHL1  H21C16009   2.567   0.399  14.322 -1.8918  0.0484  0.7610
  132CHL1   C2216010   2.399   0.605  14.431 -0.4039  0.6564 -0.0900
  132CHL1  H22A16011   2.373   0.703  14.477 -0.6602 -0.2934  1.9037
  132CHL1  H22B16012   2.310   0.552  14.391  0.2594 -0.8227  0.3097
  132CHL1   C2316013   2.449   0.523  14.551  0.5469  0.4862 -0.9653
  132CHL1  H23A16014   2.469   0.418  14.521  1.8428  0.8182 -1.3259
  132CHL1  H23B16015   2.550   0.565  14.575  0.3999  1.1348 -1.4351
  132CHL1   C2416016   2.342   0.522  14.666 -0.5614 -0.3071 -0.8165
  132CHL1  H24A16017   2.311   0.623  14.699  0.7962 -0.1841  0.1530
  132CHL1  H24B16018   2.250   0.473  14.629 -1.0645  1.5834 -2.2607
  132CHL1   C2516019   2.374   0.443  14.800  0.6162  0.4288 -0.3395
  132CHL1   H2516020   2.365   0.334  14.780 -0.3861  0.0586  1.7802
  132CHL1   C2616021   2.525   0.461  14.840 -0.2717 -0.0608  0.0281
  132CHL1  H26A16022   2.548   0.399  14.929 -1.3198 -1.1966 -0.4749
  132CHL1  H26B16023   2.591   0.430  14.756 -0.0620 -3.0545  1.1609
  132CHL1  H26C16024   2.537   0.567  14.872 -1.7759  0.0605  0.2313
  132CHL1   C2716025   2.270   0.482  14.901 -0.8000  0.4012 -0.7355
  132CHL1  H27A16026   2.278   0.420  14.993  0.2654  1.9433  0.2877
  132CHL1  H27B16027   2.293   0.586  14.935 -0.6799 -0.2199  1.1865
  132CHL1  H27C16028   2.166   0.484  14.862 -0.6624 -1.4788 -1.2605
  133CHL1    C316029   6.483   2.827  13.212  0.7603  0.0390 -0.3666
  133CHL1    H316030   6.435   2.927  13.217  0.9782  0.2432 -1.8051
  133CHL1    O316031   6.504   2.802  13.072  0.0109  0.2367  0.2129
  133CHL1   H3'16032   6.512   2.706  13.067  0.8550  0.1231  2.4633
  133CHL1    C416033   6.616   2.843  13.283 -0.2531 -0.1060 -0.4638
  133CHL1   H4A16034   6.675   2.749  13.271  0.3924  0.3318 -0.7475
  133CHL1   H4B16035   6.675   2.927  13.240  0.0480 -1.0668 -2.0142
  133CHL1    C516036   6.597   2.868  13.430  0.2492 -1.0140 -0.0535
  133CHL1    C616037   6.658   2.974  13.489 -0.2807 -0.3110 -0.4665
  133CHL1    H616038   6.724   3.036  13.428 -1.3895  1.4620  0.0658
  133CHL1    C716039   6.655   2.996  13.640 -0.8900  0.3674  0.0597
  133CHL1   H7A16040   6.760   3.006  13.675  0.0489  0.5843 -2.6118
  133CHL1   H7B16041   6.608   3.097  13.638  1.6216  1.7005 -3.9799
  133CHL1    C816042   6.589   2.877  13.726 -0.4575  0.0838  0.2556
  133CHL1    H816043   6.664   2.794  13.720 -0.4736  0.1149 -0.5449
  133CHL1   C1416044   6.563   2.932  13.867 -0.3800 -0.2858 -0.5432
  133CHL1   H1416045   6.497   3.018  13.843 -0.9067 -0.9188 -1.4187
  133CHL1   C1516046   6.677   2.999  13.950 -0.1988 -0.1034  0.2238
  133CHL1  H15A16047   6.776   2.952  13.930  0.8548  1.0947  2.2714
  133CHL1  H15B16048   6.674   3.102  13.909 -1.3546 -0.0605  0.3814
  133CHL1   C1616049   6.620   2.984  14.092  0.0811  0.0944 -0.1623
  133CHL1  H16A16050   6.692   2.913  14.137 -1.3410 -1.2342  0.1037
  133CHL1  H16B16051   6.620   3.077  14.153 -0.2901  0.0126 -0.0358
  133CHL1   C1716052   6.483   2.918  14.085 -0.4671  0.1590 -0.1029
  133CHL1   H1716053   6.404   2.995  14.075 -1.9148 -1.1044  1.1304
  133CHL1   C1316054   6.478   2.837  13.951 -0.2458 -0.2830 -0.0385
  133CHL1   C1816055   6.551   2.693  13.959 -0.5078  0.6938 -0.0670
  133CHL1  H18A16056   6.646   2.707  14.015 -0.5696 -0.5594  0.3815
  133CHL1  H18B16057   6.491   2.620  14.017 -0.8645  1.0357  0.0005
  133CHL1  H18C16058   6.577   2.657  13.857  1.3795 -2.3749  1.3661
  133CHL1   C1216059   6.341   2.826  13.874  0.1216 -1.0801 -0.4499
  133CHL1  H12A16060   6.269   2.764  13.933  0.7248  0.4460  2.0600
  133CHL1  H12B16061   6.293   2.927  13.875 -0.4681 -1.3144  2.2621
  133CHL1   C1116062   6.359   2.768  13.735 -0.9202 -0.6337  0.3511
  133CHL1  H11A16063   6.385   2.661  13.752 -2.5129 -0.8909  1.4286
  133CHL1  H11B16064   6.267   2.764  13.673 -0.4014 -0.1956 -0.4554
  133CHL1    C916065   6.464   2.841  13.649 -0.2190  0.5615 -0.5875
  133CHL1    H916066   6.420   2.940  13.624 -0.7115  0.6577  0.5975
  133CHL1   C1016067   6.496   2.779  13.507  0.9422  0.0410 -0.2597
  133CHL1   C1916068   6.557   2.638  13.528  1.5753 -0.2419 -0.5545
  133CHL1  H19A16069   6.564   2.591  13.428  0.9977  1.1614 -1.2871
  133CHL1  H19B16070   6.642   2.633  13.599  0.5780  2.2626  0.9563
  133CHL1  H19C16071   6.470   2.583  13.570  0.6319  1.9912  0.5647
  133CHL1    C116072   6.367   2.759  13.423  0.1420 -0.0157 -0.1420
  133CHL1   H1A16073   6.290   2.692  13.467 -0.5800  1.5974  1.2093
  133CHL1   H1B16074   6.298   2.847  13.426 -0.6973 -0.4986 -2.8421
  133CHL1    C216075   6.394   2.720  13.272 -0.4705  0.2187 -1.1101
  133CHL1   H2A16076   6.301   2.732  13.212  0.1231  2.2125 -1.7173
  133CHL1   H2B16077   6.433   2.617  13.261 -1.3846 -0.2042 -0.4549
  133CHL1   C2016078   6.453   2.839  14.213 -0.0055  0.4043  0.6205
  133CHL1   H2016079   6.524   2.753  14.218  3.0088  2.4007 -2.9836
  133CHL1   C2116080   6.307   2.780  14.210 -0.5703 -0.0616 -0.6184
  133CHL1  H21A16081   6.264   2.767  14.311 -0.9356 -0.1030 -0.7784
  133CHL1  H21B16082   6.309   2.682  14.157  0.4778  0.2113 -1.1201
  133CHL1  H21C16083   6.244   2.863  14.172  2.2585  2.9218  0.6844
  133CHL1   C2216084   6.472   2.922  14.344  0.3250  0.3513 -0.4741
  133CHL1  H22A16085   6.430   2.868  14.432  1.6355 -0.3667 -0.2574
  133CHL1  H22B16086   6.580   2.917  14.370 -0.0714 -0.5623  1.1097
  133CHL1   C2316087   6.408   3.064  14.354  0.2455 -0.5635  0.6307
  133CHL1  H23A16088   6.457   3.137  14.287 -1.7226  0.8394  0.6653
  133CHL1  H23B16089   6.304   3.045  14.323  0.2026 -0.3454  0.6426
  133CHL1   C2416090   6.405   3.110  14.504  0.1093  0.3277 -0.4883
  133CHL1  H24A16091   6.349   3.206  14.504  0.3728  0.4831 -0.9241
  133CHL1  H24B16092   6.353   3.029  14.559  3.2262 -0.5069  1.4397
  133CHL1   C2516093   6.549   3.122  14.554  0.9962 -0.1294 -1.0593
  133CHL1   H2516094   6.609   3.031  14.536 -0.8969 -1.4817 -0.7510
  133CHL1   C2616095   6.632   3.242  14.489  0.8241  0.2962 -0.6620
  133CHL1  H26A16096   6.574   3.337  14.491 -2.0573 -1.3634  0.0704
  133CHL1  H26B16097   6.727   3.254  14.545 -0.5363 -0.6274  1.9943
  133CHL1  H26C16098   6.661   3.211  14.386  2.5346 -0.1665 -0.0652
  133CHL1   C2716099   6.537   3.145  14.707 -0.0948 -0.3632  0.3679
  133CHL1  H27A16100   6.634   3.152  14.761 -0.0876 -0.8774  0.4210
  133CHL1  H27B16101   6.481   3.236  14.739 -2.9763 -1.9166  0.0764
  133CHL1  H27C16102   6.487   3.059  14.756  0.3208  0.6282  2.6771
  134CHL1    C316103   4.649   4.202  12.780  1.1937  0.1746 -0.0685
  134CHL1    H316104   4.550   4.161  12.808  1.0160 -0.2981 -1.3265
  134CHL1    O316105   4.667   4.205  12.632  1.0452 -0.4037 -0.3628
  134CHL1   H3'16106   4.658   4.111  12.614  2.3146 -0.7513  0.6515
  134CHL1    C416107   4.666   4.335  12.834 -0.1804 -0.4705  0.2374
  134CHL1   H4A16108   4.761   4.376  12.795  0.0020 -0.8803  0.2474
  134CHL1   H4B16109   4.590   4.399  12.782  1.6282  2.1909  0.6684
  134CHL1    C516110   4.668   4.333  12.987 -0.0540 -0.1952 -0.4698
  134CHL1    C616111   4.578   4.407  13.054  0.1359 -0.2945 -0.5872
  134CHL1    H616112   4.516   4.474  12.993 -2.0593 -2.0881 -0.5052
  134CHL1    C716113   4.587   4.413  13.210  0.4123  0.1172  0.5186
  134CHL1   H7A16114   4.595   4.519  13.242  0.8444  1.1566 -2.7123
  134CHL1   H7B16115   4.503   4.372  13.270  0.2397  2.1542  1.7642
  134CHL1    C816116   4.715   4.360  13.276 -0.2789 -0.1223  0.1274
  134CHL1    H816117   4.796   4.433  13.257 -0.0307 -0.2016  0.8318
  134CHL1   C1416118   4.684   4.339  13.421  0.8788  0.0749 -0.3175
  134CHL1   H1416119   4.614   4.254  13.435 -0.2181  0.5159 -2.6397
  134CHL1   C1516120   4.618   4.456  13.494 -0.0838 -0.0959 -0.3397
  134CHL1  H15A16121   4.649   4.559  13.465  0.2028 -0.3441 -0.9309
  134CHL1  H15B16122   4.507   4.449  13.494 -0.1931  1.0965 -2.1382
  134CHL1   C1616123   4.654   4.427  13.642 -0.8458  0.2820 -0.2559
  134CHL1  H16A16124   4.697   4.511  13.702 -0.0452 -0.9932  1.0055
  134CHL1  H16B16125   4.569   4.414  13.711  0.4070 -0.3549  1.2291
  134CHL1   C1716126   4.744   4.302  13.650 -0.5922  0.2046 -0.4832
  134CHL1   H1716127   4.669   4.221  13.658 -1.4347  0.8823 -1.3163
  134CHL1   C1316128   4.806   4.292  13.506  1.0152  0.1642 -0.8987
  134CHL1   C1816129   4.920   4.391  13.507  0.2578 -0.4153  0.8284
  134CHL1  H18A16130   4.954   4.409  13.403  1.5394 -1.1351  1.1011
  134CHL1  H18B16131   4.897   4.489  13.554 -0.1031 -0.7592  1.3868
  134CHL1  H18C16132   5.003   4.343  13.564  1.1159 -1.2939 -1.0781
  134CHL1   C1216133   4.861   4.154  13.452  0.1734  0.7099 -0.1135
  134CHL1  H12A16134   4.957   4.127  13.501 -0.6776  1.2766  2.0169
  134CHL1  H12B16135   4.784   4.080  13.482 -0.2915  1.2074 -0.0700
  134CHL1   C1116136   4.874   4.162  13.298  0.0421 -0.5348 -0.0283
  134CHL1  H11A16137   4.967   4.219  13.274 -0.5437 -0.2155 -1.7222
  134CHL1  H11B16138   4.878   4.060  13.255 -2.6569 -0.0807 -1.5749
  134CHL1    C916139   4.755   4.225  13.218  0.1341 -0.0896  0.2855
  134CHL1    H916140   4.669   4.156  13.232 -0.3811 -0.1312 -2.5926
  134CHL1   C1016141   4.766   4.241  13.064 -0.3691  0.5072  0.4336
  134CHL1   C1916142   4.897   4.320  13.041 -0.8474  0.1642 -1.1000
  134CHL1  H19A16143   4.911   4.349  12.934 -4.0340  2.6480 -0.9971
  134CHL1  H19B16144   4.901   4.411  13.104  1.8301  0.2652 -1.3142
  134CHL1  H19C16145   4.982   4.259  13.078 -1.7639  0.3014  1.4450
  134CHL1    C116146   4.761   4.104  12.994  0.7999 -0.4400 -0.4276
  134CHL1   H1A16147   4.860   4.062  13.023  0.1399  0.0586  3.0276
  134CHL1   H1B16148   4.684   4.041  13.042 -0.3025  1.7139  0.8195
  134CHL1    C216149   4.749   4.105  12.846  0.2267 -0.5253 -0.3177
  134CHL1   H2A16150   4.733   4.009  12.794  2.2906 -1.2030  0.1935
  134CHL1   H2B16151   4.848   4.141  12.810  0.1889  0.0743  0.1446
  134CHL1   C2016152   4.841   4.295  13.764 -0.2946  0.8270 -0.5996
  134CHL1   H2016153   4.898   4.390  13.750 -1.7669  1.8606  0.0929
  134CHL1   C2116154   4.922   4.155  13.757 -0.2894  0.3681 -0.0218
  134CHL1  H21A16155   4.847   4.075  13.739  0.2377 -0.8409  2.6914
  134CHL1  H21B16156   4.979   4.136  13.850 -1.1300  1.2722  0.7064
  134CHL1  H21C16157   4.997   4.148  13.676 -1.9041  1.7873 -1.7402
  134CHL1   C2216158   4.769   4.302  13.904 -0.0832  0.4368 -0.4109
  134CHL1  H22A16159   4.724   4.404  13.900  0.2042  0.5452 -1.1152
  134CHL1  H22B16160   4.687   4.228  13.909 -0.5278  0.9806  3.0247
  134CHL1   C2316161   4.855   4.289  14.028  0.0295  0.2542 -0.8873
  134CHL1  H23A16162   4.909   4.192  14.031  0.0180  0.2686  0.1303
  134CHL1  H23B16163   4.930   4.370  14.034  0.0390  0.1760  0.6221
  134CHL1   C2416164   4.768   4.293  14.155 -0.1613 -0.3089 -0.3859
  134CHL1  H24A16165   4.744   4.400  14.176  0.9096  0.1175 -1.2561
  134CHL1  H24B16166   4.673   4.237  14.140 -0.6652  0.4603 -0.1291
  134CHL1   C2516167   4.841   4.225  14.275 -0.7204 -0.6220  0.2385
  134CHL1   H2516168   4.860   4.121  14.242 -2.1374 -0.5489 -0.9325
  134CHL1   C2616169   4.984   4.296  14.304 -0.2433  0.0696  0.4664
  134CHL1  H26A16170   5.048   4.342  14.225 -0.8797  2.5170  1.2636
  134CHL1  H26B16171   4.956   4.380  14.372  1.2435  0.7645  0.2780
  134CHL1  H26C16172   5.041   4.220  14.362 -1.4283 -0.4112  1.0302
  134CHL1   C2716173   4.749   4.222  14.398 -0.3668 -0.1500  0.2306
  134CHL1  H27A16174   4.730   4.322  14.443 -1.8064 -1.6038  3.1466
  134CHL1  H27B16175   4.653   4.171  14.375 -0.0789 -0.6372  0.0944
  134CHL1  H27C16176   4.802   4.167  14.478 -2.1621 -2.3233  0.0047
  135CHL1    C316177   6.293   3.398  12.907 -0.2898  0.3362  0.2457
  135CHL1    H316178   6.400   3.396  12.934 -0.5712  2.1753  1.6978
  135CHL1    O316179   6.286   3.375  12.765  0.1035  0.0368  0.0965
  135CHL1   H3'16180   6.193   3.389  12.743  0.0063 -0.2838  0.2912
  135CHL1    C416181   6.226   3.281  12.985  0.2549 -0.0567  0.6521
  135CHL1   H4A16182   6.119   3.283  12.954  0.7251  1.5115 -1.0145
  135CHL1   H4B16183   6.251   3.176  12.957  1.2033  0.5001 -0.6277
  135CHL1    C516184   6.238   3.295  13.132 -0.6198 -0.0748 -0.4133
  135CHL1    C616185   6.292   3.201  13.209  0.3071  0.4637 -0.0760
  135CHL1    H616186   6.321   3.108  13.157  0.9667  0.0799  0.9641
  135CHL1    C716187   6.307   3.203  13.358 -0.7067  0.4887  0.2682
  135CHL1   H7A16188   6.275   3.110  13.411 -0.4648 -0.1338 -0.6453
  135CHL1   H7B16189   6.414   3.217  13.382 -0.2687 -1.5116 -0.2836
  135CHL1    C816190   6.239   3.321  13.426 -0.2073  0.0305 -0.4394
  135CHL1    H816191   6.130   3.300  13.422 -0.4891  1.4988 -0.9935
  135CHL1   C1416192   6.297   3.337  13.561  0.3161  0.2930 -0.9113
  135CHL1   H1416193   6.404   3.363  13.545 -0.4238  2.3315 -3.1841
  135CHL1   C1516194   6.290   3.216  13.654 -0.0710 -0.1740 -1.0562
  135CHL1  H15A16195   6.204   3.148  13.636 -2.0762  1.8804  0.1678
  135CHL1  H15B16196   6.380   3.158  13.624 -0.9481 -1.9581 -0.3698
  135CHL1   C1616197   6.297   3.280  13.798  0.4690 -0.1078 -0.2169
  135CHL1  H16A16198   6.207   3.248  13.855  0.9576 -1.2336 -0.0539
  135CHL1  H16B16199   6.391   3.247  13.847 -0.4609 -3.2391 -0.3102
  135CHL1   C1716200   6.284   3.439  13.776 -0.2179  0.2466 -0.0453
  135CHL1   H1716201   6.385   3.485  13.775 -0.9428  1.9389  0.2036
  135CHL1   C1316202   6.231   3.448  13.636  0.4891  0.0490 -0.0571
  135CHL1   C1816203   6.076   3.427  13.661  0.1224  0.4921 -1.4064
  135CHL1  H18A16204   6.045   3.330  13.705  2.3656  0.5727  0.5387
  135CHL1  H18B16205   6.016   3.501  13.719 -0.9265 -2.1437  1.1296
  135CHL1  H18C16206   6.028   3.419  13.561 -0.6760 -1.6637 -0.8997
  135CHL1   C1216207   6.279   3.576  13.557 -0.0197  0.0852 -0.3241
  135CHL1  H12A16208   6.249   3.672  13.603 -1.9512 -1.1142  1.0604
  135CHL1  H12B16209   6.390   3.572  13.554 -0.0379 -1.2137  0.0467
  135CHL1   C1116210   6.220   3.574  13.416 -0.0728 -0.0268  0.3271
  135CHL1  H11A16211   6.111   3.596  13.427 -0.2207 -0.3404 -0.4722
  135CHL1  H11B16212   6.260   3.662  13.362  1.6750 -0.6944  0.4972
  135CHL1    C916213   6.249   3.447  13.338  0.0663 -0.9200  0.1465
  135CHL1    H916214   6.359   3.457  13.327  0.0451 -1.3481 -0.5200
  135CHL1   C1016215   6.199   3.436  13.188 -0.2874 -0.2243  0.0310
  135CHL1   C1916216   6.046   3.441  13.193  0.6236 -0.2221 -0.2574
  135CHL1  H19A16217   6.013   3.428  13.088  0.2497 -0.7977 -0.0762
  135CHL1  H19B16218   5.983   3.375  13.257 -0.9823  0.6124 -0.9361
  135CHL1  H19C16219   6.016   3.544  13.223  0.0801 -0.3469 -0.3680
  135CHL1    C116220   6.254   3.555  13.108  0.2353  0.5122 -0.4691
  135CHL1   H1A16221   6.225   3.656  13.142  0.0367  0.5929 -0.8715
  135CHL1   H1B16222   6.361   3.558  13.138 -0.1901 -1.6857  1.6346
  135CHL1    C216223   6.235   3.533  12.961  0.0376 -0.0699 -0.2277
  135CHL1   H2A16224   6.259   3.618  12.895 -1.3488  1.7701  1.5195
  135CHL1   H2B16225   6.130   3.520  12.927  0.3094 -2.3968 -0.3688
  135CHL1   C2016226   6.219   3.509  13.899  0.8628  0.3380  1.3693
  135CHL1   H2016227   6.115   3.472  13.897  0.3249  1.5331 -2.9054
  135CHL1   C2116228   6.228   3.662  13.878 -0.2842  0.0648 -0.4861
  135CHL1  H21A16229   6.333   3.691  13.856  0.7284 -1.3482  2.1051
  135CHL1  H21B16230   6.191   3.728  13.960 -0.1976  1.3379 -1.4455
  135CHL1  H21C16231   6.176   3.685  13.782  2.4792 -2.2858 -2.7303
  135CHL1   C2216232   6.277   3.465  14.034  0.2157  0.2644  0.2555
  135CHL1  H22A16233   6.272   3.354  14.040  2.0840  0.2023  1.2444
  135CHL1  H22B16234   6.382   3.497  14.022  0.1553  0.2664 -0.2708
  135CHL1   C2316235   6.225   3.523  14.170  0.3327  0.7258 -0.2403
  135CHL1  H23A16236   6.295   3.485  14.248  1.8235  1.6634 -1.0770
  135CHL1  H23B16237   6.218   3.634  14.178 -3.0702  0.5221  1.2474
  135CHL1   C2416238   6.088   3.463  14.200 -0.1875  0.3407 -0.2671
  135CHL1  H24A16239   6.007   3.524  14.155  1.0644  3.0426  0.9104
  135CHL1  H24B16240   6.074   3.360  14.162  0.5012  0.2515 -0.3010
  135CHL1   C2516241   6.064   3.463  14.351  0.4257  0.2014 -0.6540
  135CHL1   H2516242   6.142   3.400  14.398 -1.9218 -0.7468  2.3194
  135CHL1   C2616243   6.067   3.598  14.410 -0.1266  0.2969  0.3354
  135CHL1  H26A16244   5.988   3.656  14.358  1.3070 -0.1930 -2.5982
  135CHL1  H26B16245   6.051   3.596  14.520 -3.7770 -0.3060 -0.0729
  135CHL1  H26C16246   6.159   3.653  14.381 -0.8916  0.5109 -1.8318
  135CHL1   C2716247   5.928   3.389  14.393 -0.6922  0.1417 -0.4712
  135CHL1  H27A16248   5.929   3.365  14.502 -1.0417  0.3542 -0.4195
  135CHL1  H27B16249   5.836   3.447  14.374 -1.1966 -0.6556 -0.4916
  135CHL1  H27C16250   5.918   3.294  14.335 -1.2820 -0.2267  0.2197
  136CHL1    C316251   4.873   0.384  13.265  0.0433 -0.2885  0.3095
  136CHL1    H316252   4.984   0.375  13.272  0.4991  2.8870 -1.1691
  136CHL1    O316253   4.833   0.358  13.132  0.6807 -0.5708  0.5556
  136CHL1   H3'16254   4.791   0.272  13.125  0.9613 -0.6831  0.2146
  136CHL1    C416255   4.800   0.281  13.356 -0.1804  0.4922 -0.1407
  136CHL1   H4A16256   4.690   0.274  13.344 -0.0054 -0.3934 -1.2843
  136CHL1   H4B16257   4.842   0.179  13.348 -2.4051 -0.7341  2.2604
  136CHL1    C516258   4.814   0.313  13.507 -0.0876  0.3336  0.4103
  136CHL1    C616259   4.854   0.221  13.600  0.2064  0.1351  0.3807
  136CHL1    H616260   4.873   0.115  13.579 -0.8373 -0.3817  1.8201
  136CHL1    C716261   4.864   0.249  13.745  0.9369  0.6602  0.5396
  136CHL1   H7A16262   4.833   0.159  13.803 -0.8768  0.8204 -0.1329
  136CHL1   H7B16263   4.974   0.257  13.757  1.4845 -1.4295 -2.0027
  136CHL1    C816264   4.796   0.375  13.803  0.7437 -0.6824  0.6011
  136CHL1    H816265   4.686   0.362  13.804  0.7174 -0.5760 -0.3209
  136CHL1   C1416266   4.818   0.413  13.946 -0.1538  0.5047 -0.3655
  136CHL1   H1416267   4.924   0.440  13.966  0.0722 -0.3891 -0.3271
  136CHL1   C1516268   4.783   0.313  14.056 -0.2930  0.3494 -0.6612
  136CHL1  H15A16269   4.675   0.298  14.039 -0.0370 -0.0512 -2.0676
  136CHL1  H15B16270   4.835   0.214  14.060 -1.0859 -0.0363  0.8374
  136CHL1   C1616271   4.801   0.395  14.183  0.0923  0.4268 -0.1327
  136CHL1  H16A16272   4.719   0.363  14.252 -0.6110  0.9914 -0.6830
  136CHL1  H16B16273   4.898   0.379  14.235 -1.2584 -1.0970  2.1363
  136CHL1   C1716274   4.788   0.550  14.142 -0.1289  0.2546  0.4198
  136CHL1   H1716275   4.890   0.593  14.144 -0.9583  2.3411  2.5394
  136CHL1   C1316276   4.751   0.552  13.999  0.2567 -0.7656  0.8769
  136CHL1   C1816277   4.594   0.542  13.982  0.2731 -0.0392 -0.8915
  136CHL1  H18A16278   4.548   0.459  14.040 -2.2853  0.5550 -1.9666
  136CHL1  H18B16279   4.551   0.635  14.024 -1.0745 -1.1848  0.4156
  136CHL1  H18C16280   4.575   0.528  13.874  2.9868 -0.8029 -1.3610
  136CHL1   C1216281   4.812   0.665  13.908 -0.5336 -0.0389 -0.7014
  136CHL1  H12A16282   4.788   0.770  13.934  2.2721  0.0928  1.8897
  136CHL1  H12B16283   4.922   0.656  13.913 -0.5262 -0.6923 -1.7493
  136CHL1   C1116284   4.783   0.640  13.761 -0.0532  0.3989  0.0320
  136CHL1  H11A16285   4.675   0.664  13.757 -0.5456 -1.0639  2.4225
  136CHL1  H11B16286   4.835   0.718  13.701 -0.8884  0.5793 -0.4765
  136CHL1    C916287   4.829   0.499  13.705 -0.0268  0.2532  0.4617
  136CHL1    H916288   4.938   0.517  13.699 -0.2109  1.0993 -1.1508
  136CHL1   C1016289   4.790   0.463  13.553  0.1337 -0.7018  0.4807
  136CHL1   C1916290   4.637   0.483  13.553 -0.9286  0.9242  0.0503
  136CHL1  H19A16291   4.584   0.448  13.462 -0.1864 -1.9994  0.6411
  136CHL1  H19B16292   4.595   0.436  13.645  1.0525 -0.8524  0.1050
  136CHL1  H19C16293   4.618   0.593  13.558 -0.1719  1.0499  0.2492
  136CHL1    C116294   4.863   0.563  13.452 -1.1260  0.8863 -0.1428
  136CHL1   H1A16295   4.817   0.663  13.471 -1.1504  0.4173  2.6757
  136CHL1   H1B16296   4.973   0.566  13.470 -0.7959  0.0028 -1.8349
  136CHL1    C216297   4.837   0.528  13.302 -0.2702  0.1327 -0.3943
  136CHL1   H2A16298   4.889   0.606  13.243 -0.6192  3.1604  2.9033
  136CHL1   H2B16299   4.727   0.533  13.286 -0.0766  1.0610 -1.5392
  136CHL1   C2016300   4.713   0.628  14.253 -0.5435  0.1972 -0.2356
  136CHL1   H2016301   4.609   0.592  14.265 -0.5382  0.7570  1.7543
  136CHL1   C2116302   4.718   0.773  14.215 -0.4699  0.1603  0.2838
  136CHL1  H21A16303   4.663   0.844  14.281 -2.6250 -2.7204  1.7994
  136CHL1  H21B16304   4.660   0.777  14.121  1.5987  0.5708 -1.0391
  136CHL1  H21C16305   4.821   0.803  14.188 -0.8854 -1.1352 -3.2100
  136CHL1   C2216306   4.776   0.605  14.397 -0.5273 -0.1984 -0.6559
  136CHL1  H22A16307   4.797   0.497  14.415  2.1288  0.1182 -1.3251
  136CHL1  H22B16308   4.877   0.652  14.406 -0.9554  0.6302 -0.0167
  136CHL1   C2316309   4.682   0.662  14.505 -0.5426 -0.3166  0.1152
  136CHL1  H23A16310   4.701   0.771  14.510 -0.0385 -0.4455  1.3260
  136CHL1  H23B16311   4.576   0.640  14.483 -0.1810 -2.8258  0.5448
  136CHL1   C2416312   4.710   0.594  14.644  0.0319  1.0177  0.1128
  136CHL1  H24A16313   4.819   0.574  14.653 -0.1415  0.4501  1.0522
  136CHL1  H24B16314   4.690   0.660  14.731 -0.6171 -0.5355  1.1720
  136CHL1   C2516315   4.631   0.463  14.669  0.3301 -0.4820  0.7342
  136CHL1   H2516316   4.658   0.397  14.583  3.1900 -0.8090  1.7844
  136CHL1   C2616317   4.677   0.385  14.792  0.4285 -0.3522  0.0324
  136CHL1  H26A16318   4.640   0.444  14.879 -2.0363  0.4121 -1.4300
  136CHL1  H26B16319   4.621   0.289  14.800  0.6744 -0.7250 -2.1763
  136CHL1  H26C16320   4.786   0.370  14.804  0.6221 -1.0920 -2.2889
  136CHL1   C2716321   4.477   0.490  14.666  0.4403  0.4094  0.2458
  136CHL1  H27A16322   4.448   0.566  14.742  1.0971 -0.8687  1.8407
  136CHL1  H27B16323   4.441   0.520  14.565 -2.4812  0.3176  1.1450
  136CHL1  H27C16324   4.421   0.398  14.694 -1.8664  0.7879 -2.6046
  137CHL1    C316325   0.996   2.633  12.954 -0.0797  1.0507 -1.1853
  137CHL1    H316326   1.092   2.581  12.970 -0.7951 -0.3076 -1.1585
  137CHL1    O316327   0.968   2.648  12.818  0.1451 -0.4870  0.3617
  137CHL1   H3'16328   0.931   2.562  12.797  1.7981 -0.9981 -0.6256
  137CHL1    C416329   0.875   2.550  13.017 -0.2368 -0.5667 -0.2064
  137CHL1   H4A16330   0.786   2.609  12.987 -0.3768 -1.0361 -0.7314
  137CHL1   H4B16331   0.869   2.448  12.974 -0.0521  0.1590 -2.0395
  137CHL1    C516332   0.882   2.539  13.171  0.1276  0.2613  0.2651
  137CHL1    C616333   0.886   2.416  13.235 -0.1335  0.5767  0.3960
  137CHL1    H616334   0.880   2.324  13.175 -3.5735  0.7302  0.3052
  137CHL1    C716335   0.873   2.402  13.380  0.0443 -0.0084  0.4394
  137CHL1   H7A16336   0.803   2.323  13.415  0.5473 -0.0121  1.4744
  137CHL1   H7B16337   0.973   2.365  13.413 -0.7800 -2.5351  0.3599
  137CHL1    C816338   0.857   2.532  13.456  0.3068  0.1864 -0.3466
  137CHL1    H816339   0.749   2.558  13.452  0.0419 -0.6647  0.6444
  137CHL1   C1416340   0.903   2.512  13.603 -0.1358  0.4742 -0.0317
  137CHL1   H1416341   1.012   2.495  13.593  0.0531  1.0005  1.0051
  137CHL1   C1516342   0.854   2.389  13.681  0.2472 -0.3539  0.0381
  137CHL1  H15A16343   0.743   2.385  13.688  0.0773  2.0608 -0.5705
  137CHL1  H15B16344   0.891   2.291  13.644 -2.7716 -1.6978  0.3012
  137CHL1   C1616345   0.908   2.420  13.824  0.6198  0.5452 -0.2545
  137CHL1  H16A16346   0.830   2.405  13.901  0.3598 -0.6631 -0.7441
  137CHL1  H16B16347   0.997   2.357  13.847  0.8860  1.2247  0.6352
  137CHL1   C1716348   0.963   2.569  13.822  0.5067 -0.0701  0.3386
  137CHL1   H1716349   1.069   2.571  13.790  0.4874  0.0965  0.2824
  137CHL1   C1316350   0.899   2.633  13.697  0.7512 -0.0534  0.7549
  137CHL1   C1816351   0.752   2.661  13.724  0.2827  0.0894  0.1143
  137CHL1  H18A16352   0.706   2.658  13.623  0.8499  1.3731 -0.1931
  137CHL1  H18B16353   0.712   2.586  13.796  1.3304 -0.7463 -0.1454
  137CHL1  H18C16354   0.729   2.756  13.776 -0.2956  0.0863 -0.1256
  137CHL1   C1216355   0.973   2.750  13.625 -0.5139 -0.0053 -0.3120
  137CHL1  H12A16356   0.978   2.842  13.687 -0.9099  0.8246 -1.4767
  137CHL1  H12B16357   1.077   2.710  13.619 -1.0793 -1.5780 -0.1474
  137CHL1   C1116358   0.926   2.779  13.481 -0.6352  0.1522 -0.0377
  137CHL1  H11A16359   0.820   2.811  13.484 -0.0510  2.1343  1.2789
  137CHL1  H11B16360   0.993   2.860  13.445  0.0544  0.0676  1.0091
  137CHL1    C916361   0.938   2.649  13.390  0.3722 -0.3620  0.2102
  137CHL1    H916362   1.045   2.621  13.392  0.0946 -1.4689  0.7136
  137CHL1   C1016363   0.895   2.674  13.246 -0.2891  0.2160 -0.2468
  137CHL1   C1916364   0.752   2.735  13.242 -0.4061 -0.3225 -0.3113
  137CHL1  H19A16365   0.753   2.839  13.281  0.0698 -0.3399 -0.2640
  137CHL1  H19B16366   0.705   2.738  13.142 -0.8150  0.4343 -0.0989
  137CHL1  H19C16367   0.683   2.681  13.310  1.1801  0.8273  2.3712
  137CHL1    C116368   1.004   2.754  13.172  0.0380 -0.4566 -0.0558
  137CHL1   H1A16369   1.010   2.854  13.219 -0.3840  0.4053 -1.7443
  137CHL1   H1B16370   1.102   2.702  13.184  0.6801  0.9690  1.2861
  137CHL1    C216371   0.996   2.767  13.025  0.5662  0.2881 -0.2936
  137CHL1   H2A16372   1.074   2.838  12.991 -0.1311  0.9893 -0.4497
  137CHL1   H2B16373   0.898   2.813  13.001 -0.7733 -3.1684 -2.1788
  137CHL1   C2016374   0.957   2.639  13.959 -0.4572  0.0015 -0.4097
  137CHL1   H2016375   0.851   2.662  13.982 -0.0500  1.6157 -0.0484
  137CHL1   C2116376   1.036   2.771  13.943  0.4125  0.0440 -0.1712
  137CHL1  H21A16377   0.981   2.852  13.891  2.2446  2.0909  0.9081
  137CHL1  H21B16378   1.134   2.750  13.894  0.0877 -1.5952 -0.1732
  137CHL1  H21C16379   1.066   2.822  14.036  0.6816  1.7025 -1.1386
  137CHL1   C2216380   1.010   2.558  14.076 -0.0067  0.3713 -0.3309
  137CHL1  H22A16381   0.980   2.451  14.071  0.4181  0.2923 -1.5742
  137CHL1  H22B16382   1.119   2.565  14.056 -0.0848  0.6676 -0.6670
  137CHL1   C2316383   0.989   2.616  14.214 -0.2882 -0.6516 -0.9278
  137CHL1  H23A16384   1.028   2.720  14.213  1.6671 -1.3502 -1.8960
  137CHL1  H23B16385   0.878   2.624  14.225  0.0235  1.2262  1.7823
  137CHL1   C2416386   1.063   2.542  14.328  0.1122  1.0483  0.8148
  137CHL1  H24A16387   1.032   2.436  14.319 -0.0355  0.8396  3.2153
  137CHL1  H24B16388   1.173   2.544  14.315 -0.0321 -1.3976 -1.7419
  137CHL1   C2516389   1.043   2.600  14.473 -0.5953  0.6417 -0.1253
  137CHL1   H2516390   1.099   2.529  14.537  0.1854  0.7532 -0.6811
  137CHL1   C2616391   1.092   2.739  14.503  0.0928 -0.1484 -0.5066
  137CHL1  H26A16392   1.040   2.811  14.436 -1.5714 -1.3225 -0.5406
  137CHL1  H26B16393   1.067   2.774  14.605 -2.2936  0.0671 -1.1086
  137CHL1  H26C16394   1.200   2.733  14.478 -0.2500 -1.1487 -1.8729
  137CHL1   C2716395   0.891   2.595  14.518  0.3808 -0.2473  0.2421
  137CHL1  H27A16396   0.828   2.667  14.462  0.5620 -0.7619 -0.6512
  137CHL1  H27B16397   0.849   2.492  14.516 -1.5104  0.3520  2.8920
  137CHL1  H27C16398   0.891   2.617  14.627 -0.0539 -3.5975  1.0353
  138CHL1    C316399   5.753   1.000  13.381 -0.5431 -0.2898  0.0531
  138CHL1    H316400   5.809   0.906  13.400  1.7772  1.1268  0.4989
  138CHL1    O316401   5.729   1.011  13.237  0.4024  0.2123  0.4149
  138CHL1   H3'16402   5.686   1.094  13.216  0.0818  0.6696  2.5982
  138CHL1    C416403   5.613   0.987  13.447 -0.5952  0.1401  0.7155
  138CHL1   H4A16404   5.545   1.061  13.401 -0.9415  1.0031  2.5485
  138CHL1   H4B16405   5.584   0.888  13.404  2.4812  0.1355 -1.7268
  138CHL1    C516406   5.621   0.996  13.603 -0.1058  0.5888 -0.6381
  138CHL1    C616407   5.555   0.904  13.675  1.0620  0.0029 -0.1153
  138CHL1    H616408   5.517   0.814  13.625 -1.2062  0.2708  1.0263
  138CHL1    C716409   5.566   0.907  13.822  0.5606 -0.0951 -0.6231
  138CHL1   H7A16410   5.473   0.878  13.875 -0.3286  2.9078 -0.3634
  138CHL1   H7B16411   5.651   0.842  13.849 -1.6141 -2.2358  1.5735
  138CHL1    C816412   5.625   1.041  13.884  0.4774 -0.3137 -0.0848
  138CHL1    H816413   5.550   1.122  13.876  3.4430  2.5318 -1.6765
  138CHL1   C1416414   5.658   1.032  14.031 -0.3685 -0.3746  0.6645
  138CHL1   H1416415   5.741   0.958  14.032 -0.8953 -1.0498  3.6239
  138CHL1   C1516416   5.560   0.975  14.138 -0.0430 -0.5242  0.3479
  138CHL1  H15A16417   5.455   1.005  14.115 -0.2203 -0.7602  0.8330
  138CHL1  H15B16418   5.556   0.864  14.134  0.9246 -0.6109  1.5031
  138CHL1   C1616419   5.601   1.024  14.271  0.9260 -0.2427 -0.6596
  138CHL1  H16A16420   5.528   1.082  14.332 -1.6378 -3.3258 -0.5629
  138CHL1  H16B16421   5.634   0.943  14.340  0.7122  0.0184 -0.2438
  138CHL1   C1716422   5.726   1.119  14.246 -0.3862 -0.3657  0.8632
  138CHL1   H1716423   5.812   1.048  14.247  0.0740  0.1181 -0.7401
  138CHL1   C1316424   5.722   1.161  14.096  0.4559  0.1253  0.6957
  138CHL1   C1816425   5.611   1.269  14.086  0.4183 -0.3151 -0.0122
  138CHL1  H18A16426   5.637   1.353  14.154  0.6527 -0.7243  0.4098
  138CHL1  H18B16427   5.590   1.296  13.980  1.0853 -2.2495 -0.6748
  138CHL1  H18C16428   5.517   1.222  14.122 -0.1919  0.5387 -0.4381
  138CHL1   C1216429   5.848   1.204  14.023  0.9335  0.3809  0.2363
  138CHL1  H12A16430   5.881   1.307  14.052  0.0621  1.2555 -1.7272
  138CHL1  H12B16431   5.932   1.133  14.039 -0.6046 -1.6440 -0.2518
  138CHL1   C1116432   5.827   1.214  13.876 -0.5507  0.3730 -0.0587
  138CHL1  H11A16433   5.760   1.300  13.850 -0.3281  0.1293 -1.5122
  138CHL1  H11B16434   5.918   1.238  13.817 -1.8279 -2.0636 -3.2804
  138CHL1    C916435   5.751   1.088  13.809 -0.0952  0.7771  0.0424
  138CHL1    H916436   5.823   1.003  13.818  1.3146  1.9969  0.7107
  138CHL1   C1016437   5.713   1.118  13.660  0.9890  0.8335 -0.1126
  138CHL1   C1916438   5.632   1.250  13.630 -0.0803  0.4595  0.1452
  138CHL1  H19A16439   5.541   1.251  13.694  0.3935 -0.6494  0.8692
  138CHL1  H19B16440   5.705   1.329  13.658  1.1135 -0.3190 -0.6450
  138CHL1  H19C16441   5.611   1.256  13.521  2.5175  0.9554 -0.3981
  138CHL1    C116442   5.845   1.128  13.580  0.3441 -0.5725  0.4422
  138CHL1   H1A16443   5.894   1.226  13.601  1.4564 -0.3312 -2.7949
  138CHL1   H1B16444   5.911   1.046  13.616 -0.5946 -1.3312  0.4591
  138CHL1    C216445   5.826   1.117  13.422  0.1695  0.0219  0.1631
  138CHL1   H2A16446   5.919   1.117  13.361 -0.5126  2.3632 -0.9922
  138CHL1   H2B16447   5.772   1.210  13.392 -0.8341 -1.2076 -2.0198
  138CHL1   C2016448   5.751   1.226  14.358  0.7137  0.2137 -0.0396
  138CHL1   H2016449   5.679   1.309  14.345 -0.4382 -1.1424 -3.1545
  138CHL1   C2116450   5.888   1.303  14.332 -1.0873 -0.4869 -0.6657
  138CHL1  H21A16451   5.968   1.231  14.304 -1.5303 -1.2433 -0.0250
  138CHL1  H21B16452   5.927   1.343  14.428 -3.7474  1.2232 -0.2013
  138CHL1  H21C16453   5.879   1.381  14.253  0.3553  0.1094 -0.2737
  138CHL1   C2216454   5.738   1.161  14.499 -0.1574  0.1331 -0.0308
  138CHL1  H22A16455   5.636   1.119  14.507 -0.0236 -0.5765 -1.5914
  138CHL1  H22B16456   5.803   1.071  14.515  1.3874  1.2429  0.2159
  138CHL1   C2316457   5.751   1.264  14.616 -0.5015 -0.8642  0.2907
  138CHL1  H23A16458   5.851   1.310  14.635  0.1329 -2.1120  0.0934
  138CHL1  H23B16459   5.671   1.338  14.596 -1.4027 -2.3438 -1.9840
  138CHL1   C2416460   5.723   1.191  14.750 -0.3600 -0.4049  0.3482
  138CHL1  H24A16461   5.623   1.146  14.736 -0.6448  0.6429 -1.2429
  138CHL1  H24B16462   5.799   1.110  14.762  0.9979  0.9225  1.0045
  138CHL1   C2516463   5.725   1.277  14.881 -0.0061  0.1836 -0.4830
  138CHL1   H2516464   5.829   1.310  14.897  0.0834 -1.0423  1.7766
  138CHL1   C2616465   5.633   1.402  14.872 -0.1522 -0.3831 -0.0906
  138CHL1  H26A16466   5.660   1.465  14.785  1.4160 -1.3337 -0.3300
  138CHL1  H26B16467   5.527   1.373  14.880 -0.0711 -0.3424  1.4877
  138CHL1  H26C16468   5.651   1.467  14.961 -0.7682  0.5612 -0.6419
  138CHL1   C2716469   5.693   1.194  15.009  0.2709  0.3462 -0.1343
  138CHL1  H27A16470   5.764   1.118  15.047 -0.2971  0.3351  0.9281
  138CHL1  H27B16471   5.698   1.273  15.087 -1.1753  2.6189 -2.1932
  138CHL1  H27C16472   5.589   1.159  15.024  0.7797  0.0006  3.5380
  139CHL1    C316473   6.325   6.136  13.397  0.4167 -0.2553 -0.0372
  139CHL1    H316474   6.229   6.086  13.375  1.2637 -1.7217 -0.5224
  139CHL1    O316475   6.396   6.131  13.271  0.7449  0.6876  0.4499
  139CHL1   H3'16476   6.347   6.192  13.216 -0.4283 -1.0248 -0.5138
  139CHL1    C416477   6.288   6.280  13.441  0.3175  0.4276 -0.3400
  139CHL1   H4A16478   6.384   6.335  13.451  0.6755 -0.1636 -0.5324
  139CHL1   H4B16479   6.237   6.337  13.360  0.3623 -0.9163 -1.3398
  139CHL1    C516480   6.219   6.275  13.582 -0.3973  0.1352  0.2349
  139CHL1    C616481   6.099   6.331  13.598  0.1893  1.2694 -0.7601
  139CHL1    H616482   6.049   6.372  13.509 -0.6958  2.2452  0.1612
  139CHL1    C716483   6.020   6.344  13.728  0.7052  0.2041 -0.0268
  139CHL1   H7A16484   5.993   6.449  13.752  1.8775  0.4962  0.0866
  139CHL1   H7B16485   5.929   6.280  13.717 -0.5408  2.1743 -2.0588
  139CHL1    C816486   6.108   6.299  13.844 -0.4498 -0.1254 -0.7443
  139CHL1    H816487   6.168   6.385  13.878 -1.0352 -1.4381  4.3844
  139CHL1   C1416488   6.015   6.259  13.955  0.3613 -0.6333  0.0344
  139CHL1   H1416489   5.953   6.172  13.925 -0.2442  0.4825 -2.1979
  139CHL1   C1516490   5.905   6.366  13.992 -0.6589 -0.5716  0.1460
  139CHL1  H15A16491   5.952   6.466  14.004  1.1005 -1.5335  1.8951
  139CHL1  H15B16492   5.819   6.360  13.922 -1.1498 -1.5595  0.8107
  139CHL1   C1616493   5.876   6.332  14.137 -0.1492 -0.6404  0.1193
  139CHL1  H16A16494   5.898   6.413  14.210 -1.0720 -0.9947  0.8213
  139CHL1  H16B16495   5.769   6.303  14.151 -0.3148  0.1238  0.5053
  139CHL1   C1716496   5.952   6.201  14.180  0.5704 -0.1009  0.0116
  139CHL1   H1716497   5.882   6.121  14.147 -1.8940  1.9794 -0.1482
  139CHL1   C1316498   6.075   6.208  14.084  0.4265 -0.3918 -0.2204
  139CHL1   C1816499   6.174   6.309  14.144 -0.9821 -0.1121 -0.0362
  139CHL1  H18A16500   6.229   6.278  14.236 -0.1698  3.0090  0.6709
  139CHL1  H18B16501   6.258   6.320  14.072 -1.5185 -0.8155 -0.7719
  139CHL1  H18C16502   6.119   6.404  14.161  0.8026  0.8305  0.7666
  139CHL1   C1216503   6.153   6.078  14.045 -1.2902  0.3658 -0.1523
  139CHL1  H12A16504   6.194   6.032  14.138 -0.8826  1.7930  0.3982
  139CHL1  H12B16505   6.083   6.000  14.007 -2.2075  0.7385  0.7206
  139CHL1   C1116506   6.256   6.111  13.935 -0.3899  0.2378  0.3871
  139CHL1  H11A16507   6.346   6.170  13.962 -0.8611  0.4903  1.4727
  139CHL1  H11B16508   6.282   6.006  13.908 -0.6610  0.0924  0.6802
  139CHL1    C916509   6.195   6.175  13.808  0.9463  0.0454 -0.2841
  139CHL1    H916510   6.125   6.095  13.773  0.4368  0.3814 -0.0517
  139CHL1   C1016511   6.289   6.198  13.693 -0.2363 -0.6179  0.3790
  139CHL1   C1916512   6.413   6.280  13.741 -0.2699 -0.0301 -0.3432
  139CHL1  H19A16513   6.469   6.215  13.813 -1.2138  1.6773  2.0784
  139CHL1  H19B16514   6.487   6.295  13.659 -0.5803  0.4356 -0.5377
  139CHL1  H19C16515   6.387   6.372  13.798  3.0570 -0.0112  1.4653
  139CHL1    C116516   6.333   6.066  13.633 -0.1542  0.1876 -0.5435
  139CHL1   H1A16517   6.413   6.021  13.697 -1.6337 -1.3024  0.3322
  139CHL1   H1B16518   6.250   5.995  13.613  0.0249  0.2102 -1.4055
  139CHL1    C216519   6.413   6.074  13.500 -0.0162 -0.1518  0.1001
  139CHL1   H2A16520   6.435   5.970  13.466  1.5017 -0.8071  2.7953
  139CHL1   H2B16521   6.506   6.132  13.516 -0.2580  0.1912  0.2642
  139CHL1   C2016522   5.975   6.184  14.330  0.1091 -0.3856  0.2713
  139CHL1   H2016523   6.074   6.225  14.360  1.4309 -3.5777  0.6220
  139CHL1   C2116524   5.986   6.029  14.362 -0.2755 -0.9630  0.2640
  139CHL1  H21A16525   6.063   5.983  14.295  0.3520 -0.0634  0.3551
  139CHL1  H21B16526   5.880   5.996  14.354 -1.0838  0.8926  2.4599
  139CHL1  H21C16527   6.013   6.022  14.469 -1.3367  2.0078  0.8225
  139CHL1   C2216528   5.870   6.256  14.415 -0.0766  0.5448 -0.8502
  139CHL1  H22A16529   5.868   6.366  14.398 -3.0969  0.4185 -1.8597
  139CHL1  H22B16530   5.774   6.207  14.387 -0.3663  0.8014 -0.3288
  139CHL1   C2316531   5.899   6.238  14.564  0.2979  0.6128  0.3219
  139CHL1  H23A16532   5.865   6.142  14.608  0.6137  1.0731  1.6323
  139CHL1  H23B16533   6.010   6.243  14.570  0.6107 -0.5195 -2.9459
  139CHL1   C2416534   5.841   6.359  14.642  0.4207  0.5137  0.3347
  139CHL1  H24A16535   5.873   6.456  14.599 -4.9513  1.7224 -1.6613
  139CHL1  H24B16536   5.730   6.361  14.640  0.3597  2.2801  2.4031
  139CHL1   C2516537   5.886   6.372  14.791  0.3404 -0.3502  0.1805
  139CHL1   H2516538   5.857   6.285  14.855  1.1898  0.3004  1.4992
  139CHL1   C2616539   6.045   6.388  14.798  0.4258 -0.5127  0.7320
  139CHL1  H26A16540   6.067   6.414  14.904 -2.4268 -1.2980  1.5973
  139CHL1  H26B16541   6.085   6.289  14.769  0.0775 -0.7731  1.1397
  139CHL1  H26C16542   6.086   6.462  14.725 -0.5568 -1.3183 -0.6827
  139CHL1   C2716543   5.826   6.500  14.840  0.0608 -0.9213  0.5091
  139CHL1  H27A16544   5.864   6.541  14.936 -1.8643  0.0732  0.8955
  139CHL1  H27B16545   5.852   6.583  14.771  1.0942  0.1941  2.1752
  139CHL1  H27C16546   5.717   6.504  14.863  0.0631 -0.6381  0.4798
  140CHL1    C316547   5.439   0.329  13.221  0.0314  0.2445  0.7226
  140CHL1    H316548   5.417   0.222  13.242 -1.1068  0.5070  0.9551
  140CHL1    O316549   5.446   0.345  13.084 -0.5245  0.3751  0.0039
  140CHL1   H3'16550   5.451   0.440  13.074 -1.3356  0.6617  1.9018
  140CHL1    C416551   5.333   0.424  13.277  0.1523  0.1751 -0.4131
  140CHL1   H4A16552   5.362   0.529  13.255  2.5398 -0.3886 -0.2848
  140CHL1   H4B16553   5.236   0.406  13.228 -0.2348  0.4151  0.2547
  140CHL1    C516554   5.328   0.408  13.430  0.2279  0.0230 -0.3524
  140CHL1    C616555   5.220   0.368  13.499 -0.2270 -0.1741 -0.3424
  140CHL1    H616556   5.131   0.329  13.447  0.5996 -3.1871  0.2950
  140CHL1    C716557   5.215   0.365  13.655 -0.5415  0.1534  0.8688
  140CHL1   H7A16558   5.117   0.409  13.685 -0.6525 -0.4376  1.3857
  140CHL1   H7B16559   5.216   0.257  13.679  1.1751 -1.0762 -3.6017
  140CHL1    C816560   5.339   0.426  13.725  0.2090  0.2436 -0.1820
  140CHL1    H816561   5.331   0.537  13.722  3.0053  0.5282  0.0909
  140CHL1   C1416562   5.350   0.374  13.872  0.4140  0.3194  0.0355
  140CHL1   H1416563   5.367   0.266  13.852  0.2886  0.2880  0.0997
  140CHL1   C1516564   5.228   0.388  13.966  0.3963 -0.9972  0.4971
  140CHL1  H15A16565   5.168   0.481  13.957 -0.3837 -1.6176 -1.1410
  140CHL1  H15B16566   5.146   0.317  13.943 -0.3996  0.0843 -0.1012
  140CHL1   C1616567   5.273   0.385  14.112  0.7080  0.6332 -0.0500
  140CHL1  H16A16568   5.239   0.479  14.161 -1.7273 -0.6687  0.9145
  140CHL1  H16B16569   5.221   0.305  14.168  0.8766  0.2761 -0.3998
  140CHL1   C1716570   5.423   0.380  14.103  0.5390  0.3910  0.4703
  140CHL1   H1716571   5.446   0.272  14.104  1.7547  0.6390  0.7161
  140CHL1   C1316572   5.463   0.431  13.957 -0.4659 -0.1110  1.0882
  140CHL1   C1816573   5.470   0.584  13.966  0.4387 -0.1201  0.4380
  140CHL1  H18A16574   5.569   0.613  14.007  1.0417 -1.6130  0.1234
  140CHL1  H18B16575   5.466   0.628  13.865  0.9717 -2.2939 -0.5997
  140CHL1  H18C16576   5.393   0.630  14.031  1.7217  3.6735 -0.4968
  140CHL1   C1216577   5.597   0.376  13.888  0.4745 -1.1823 -0.0562
  140CHL1  H12A16578   5.696   0.412  13.924 -0.5030  1.7209 -0.0130
  140CHL1  H12B16579   5.593   0.265  13.895 -2.0408 -1.1340  0.1172
  140CHL1   C1116580   5.592   0.416  13.736 -0.4950 -0.3311 -0.5896
  140CHL1  H11A16581   5.613   0.525  13.726 -0.1285 -0.5832 -3.4467
  140CHL1  H11B16582   5.679   0.375  13.680 -0.3108 -0.4815 -0.1925
  140CHL1    C916583   5.466   0.377  13.653  0.4434  0.5972  0.3409
  140CHL1    H916584   5.471   0.267  13.643 -2.9330  0.3689 -0.2335
  140CHL1   C1016585   5.462   0.428  13.508  0.5897 -0.6602 -0.3986
  140CHL1   C1916586   5.495   0.582  13.504 -0.0659  0.6777  0.1684
  140CHL1  H19A16587   5.494   0.631  13.404  0.7460  1.0999  0.3574
  140CHL1  H19B16588   5.431   0.635  13.577 -0.9719 -1.9693  1.4080
  140CHL1  H19C16589   5.599   0.598  13.539  0.0583  1.9649 -0.6785
  140CHL1    C116590   5.570   0.347  13.435  0.1651  0.9581  0.4935
  140CHL1   H1A16591   5.673   0.385  13.452  1.0610 -0.3396 -1.6147
  140CHL1   H1B16592   5.567   0.239  13.458 -2.0761  1.4611  3.0929
  140CHL1    C216593   5.573   0.364  13.283  0.0444 -0.1651  0.7997
  140CHL1   H2A16594   5.645   0.289  13.243 -0.4352  0.6701 -1.7765
  140CHL1   H2B16595   5.609   0.467  13.262 -0.4879 -0.3255 -1.0341
  140CHL1   C2016596   5.496   0.443  14.226 -0.1424 -0.0625  0.0371
  140CHL1   H2016597   5.478   0.552  14.219 -0.1389 -0.1034 -0.6902
  140CHL1   C2116598   5.650   0.422  14.207  0.4833  0.5975  0.1462
  140CHL1  H21A16599   5.658   0.314  14.180 -1.2586  0.2521  0.8690
  140CHL1  H21B16600   5.709   0.430  14.301  3.6178 -2.0077 -1.3948
  140CHL1  H21C16601   5.691   0.491  14.131 -0.5121 -0.3394 -1.2930
  140CHL1   C2216602   5.446   0.389  14.360  0.2602  0.1948 -0.0592
  140CHL1  H22A16603   5.338   0.409  14.378  1.2177  4.1085  2.3523
  140CHL1  H22B16604   5.456   0.278  14.354 -1.6767  0.0348 -1.7211
  140CHL1   C2316605   5.512   0.446  14.479  0.0525 -0.0967  0.3924
  140CHL1  H23A16606   5.472   0.380  14.559 -0.6392 -0.8141 -0.5144
  140CHL1  H23B16607   5.622   0.426  14.481  0.4114  1.7425  1.7515
  140CHL1   C2416608   5.484   0.590  14.516  0.5996 -0.5101  0.5162
  140CHL1  H24A16609   5.494   0.648  14.422  2.1484  1.3718  1.7654
  140CHL1  H24B16610   5.379   0.615  14.543  0.9337  0.7006  0.7733
  140CHL1   C2516611   5.554   0.642  14.635 -0.4755 -0.7376  0.2518
  140CHL1   H2516612   5.657   0.600  14.629 -0.8959 -1.6229 -3.5895
  140CHL1   C2616613   5.499   0.587  14.766  0.3995  0.4951  0.1586
  140CHL1  H26A16614   5.569   0.636  14.836 -1.7510  1.7143  1.5463
  140CHL1  H26B16615   5.399   0.625  14.793 -0.1528  0.7310 -2.0499
  140CHL1  H26C16616   5.510   0.476  14.775 -0.3279  0.3975 -0.0929
  140CHL1   C2716617   5.563   0.794  14.647  0.3492 -0.0571  0.9513
  140CHL1  H27A16618   5.459   0.835  14.644 -0.6927 -2.4737 -1.7000
  140CHL1  H27B16619   5.620   0.828  14.736 -0.4257  0.3934  1.2942
  140CHL1  H27C16620   5.610   0.830  14.553  0.5384 -2.1580  0.2005
  141DOPC     N16621   3.733   4.314  17.574  0.1784  0.5140  0.2721
  141DOPC   C1216622   3.682   4.374  17.442  0.5539  0.0246  0.0938
  141DOPC  H12A16623   3.748   4.340  17.364  0.7634 -0.0320  0.2926
  141DOPC  H12B16624   3.690   4.481  17.446 -3.7574  0.5540 -0.1912
  141DOPC   C1316625   3.675   4.391  17.689  0.5377  0.3976 -0.1501
  141DOPC  H13A16626   3.570   4.385  17.666  0.3869 -1.1481  0.8194
  141DOPC  H13B16627   3.700   4.354  17.787  0.3445 -0.2467 -0.3428
  141DOPC  H13C16628   3.709   4.493  17.695  2.3756 -0.1790 -0.2661
  141DOPC   C1416629   3.883   4.328  17.584 -0.4374 -0.4130 -0.5026
  141DOPC  H14A16630   3.909   4.433  17.584  0.0801 -0.5399  0.0573
  141DOPC  H14B16631   3.918   4.278  17.673  3.0519  1.5306 -0.6110
  141DOPC  H14C16632   3.939   4.291  17.500  0.6155 -1.1449  0.4858
  141DOPC   C1516633   3.698   4.166  17.581 -0.4737 -0.2170  0.1781
  141DOPC  H15A16634   3.737   4.119  17.669  1.8191 -1.5183 -1.4299
  141DOPC  H15B16635   3.753   4.105  17.511  1.1651 -3.1748  3.7359
  141DOPC  H15C16636   3.591   4.153  17.586 -0.4389 -0.1169  1.3560
  141DOPC   C1116637   3.540   4.326  17.400 -0.3739 -0.1592  0.2760
  141DOPC  H11A16638   3.525   4.380  17.304 -2.1359  0.5603  0.9046
  141DOPC  H11B16639   3.538   4.218  17.376 -0.8567 -0.5770  2.0598
  141DOPC     P16640   3.322   4.254  17.517  0.6249  0.1888 -0.0252
  141DOPC   O1316641   3.216   4.310  17.607  0.3591 -0.2930  0.3839
  141DOPC   O1416642   3.371   4.122  17.563 -0.3821  0.0602 -0.2697
  141DOPC   O1216643   3.442   4.355  17.506 -0.1640  0.0569 -0.0449
  141DOPC   O1116644   3.277   4.228  17.368  0.3485  0.1481 -0.3359
  141DOPC    C116645   3.205   4.324  17.281 -0.2208  0.2219 -0.6110
  141DOPC    HA16646   3.242   4.428  17.281 -1.4813  0.6947 -1.4661
  141DOPC    HB16647   3.101   4.335  17.321  0.0450 -0.1877  0.2213
  141DOPC    C216648   3.210   4.287  17.126  0.0733  0.0359  0.4101
  141DOPC    HS16649   3.163   4.370  17.070  0.3096 -0.6044 -0.7782
  141DOPC   O2116650   3.146   4.162  17.079  0.1294 -0.0436 -0.0995
  141DOPC   C2116651   3.012   4.168  17.089 -0.2664 -0.3144 -0.6664
  141DOPC   O2216652   2.946   4.267  17.126  0.4362 -0.4155 -0.2877
  141DOPC   C2216653   2.958   4.043  17.026 -0.0894  0.2099 -0.0204
  141DOPC   H2R16654   2.847   4.048  17.033 -0.0322  2.0332  0.0495
  141DOPC   H2S16655   3.011   3.963  17.081 -0.0537  0.3951  0.2185
  141DOPC    C316656   3.361   4.294  17.085  0.2225  0.0324  0.1540
  141DOPC    HX16657   3.408   4.209  17.138  0.2465 -0.9183 -1.3240
  141DOPC    HY16658   3.395   4.393  17.121  2.2509  0.2078 -2.0056
  141DOPC   O3116659   3.374   4.284  16.940  0.1412  0.0069 -0.3191
  141DOPC   C3116660   3.376   4.167  16.886 -0.2208  0.7339 -0.0751
  141DOPC   O3216661   3.393   4.061  16.946  0.1266 -0.0891 -0.0031
  141DOPC   C3216662   3.358   4.182  16.730  0.2913 -0.1914 -0.3707
  141DOPC   H2X16663   3.249   4.193  16.709 -0.1931  0.8687  2.2098
  141DOPC   H2Y16664   3.395   4.284  16.705 -0.9803 -0.1151 -2.1195
  141DOPC   C2316665   3.012   4.042  16.880  0.4348 -0.4045  1.0316
  141DOPC   H3R16666   3.120   4.017  16.872  0.7905  1.5852 -2.4120
  141DOPC   H3S16667   2.996   4.140  16.830  0.0797 -1.0190 -0.0972
  141DOPC   C2416668   2.943   3.944  16.777  0.6703  0.8610  0.3810
  141DOPC   H4R16669   2.833   3.956  16.770  0.2085 -2.4022  0.4610
  141DOPC   H4S16670   2.963   3.839  16.808  1.6491  0.9834  0.1909
  141DOPC   C2516671   3.001   3.954  16.630  0.6849  0.2433 -0.2008
  141DOPC   H5R16672   3.111   3.944  16.638  0.5057 -0.6628  1.6278
  141DOPC   H5S16673   2.971   4.054  16.592 -2.6746 -0.5387  0.0140
  141DOPC   C2616674   2.954   3.841  16.536 -0.4672 -0.4114  0.5403
  141DOPC   H6R16675   2.854   3.868  16.495 -1.5029  0.2938  3.3116
  141DOPC   H6S16676   2.949   3.738  16.578  0.0917  0.6864  3.4986
  141DOPC   C2716677   3.058   3.834  16.416  0.5505 -0.6719 -0.3546
  141DOPC   H7R16678   3.162   3.819  16.453  0.8146  2.0083  0.2253
  141DOPC   H7S16679   3.054   3.937  16.373 -2.9157 -0.4462  0.2723
  141DOPC   C2816680   3.014   3.724  16.315 -0.6685  0.0631  0.1764
  141DOPC   H8R16681   2.908   3.747  16.289 -0.1379  1.6266 -0.7236
  141DOPC   H8S16682   3.026   3.626  16.366  1.0198 -1.7791 -3.4487
  141DOPC   C2916683   3.119   3.704  16.204  0.4849 -0.6028  0.3702
  141DOPC   H9R16684   3.181   3.614  16.218 -0.6503 -1.6303 -0.8768
  141DOPC  C21016685   3.142   3.784  16.093 -0.0169 -0.6620 -0.7555
  141DOPC  H10R16686   3.212   3.736  16.023  0.5259 -0.0292 -0.6575
  141DOPC  C21116687   3.069   3.907  16.051  0.1636 -0.0591  0.1055
  141DOPC  H11R16688   3.150   3.983  16.055 -0.8659  1.0062  1.9918
  141DOPC  H11S16689   2.979   3.918  16.115  0.5368 -0.4814  0.7176
  141DOPC  C21216690   3.024   3.901  15.898  0.6740  0.3460 -0.4116
  141DOPC  H12R16691   2.959   3.989  15.880  1.7074  0.8554 -1.7718
  141DOPC  H12S16692   2.955   3.814  15.887  0.9503  0.1614 -0.7082
  141DOPC  C21316693   3.126   3.907  15.788  0.9795  0.2150 -0.1183
  141DOPC  H13R16694   3.194   3.823  15.813  0.3917 -0.0401  0.6623
  141DOPC  H13S16695   3.182   4.003  15.795  1.5937  0.0183 -1.8106
  141DOPC  C21416696   3.058   3.922  15.649  0.6144  0.8089 -0.2753
  141DOPC  H14R16697   2.993   4.012  15.646  0.3227  0.5806 -3.1071
  141DOPC  H14S16698   2.998   3.832  15.624  0.3477  0.4420  1.5185
  141DOPC  C21516699   3.160   3.932  15.533 -0.6222 -0.0743  0.0585
  141DOPC  H15R16700   3.217   3.838  15.539 -0.6437 -0.0626  0.4955
  141DOPC  H15S16701   3.231   4.014  15.556  1.0458 -1.7241  1.0239
  141DOPC  C21616702   3.104   3.955  15.386  0.7360  0.0026  0.1279
  141DOPC  H16R16703   3.183   3.951  15.308  1.4902  0.0535  0.8789
  141DOPC  H16S16704   3.070   4.060  15.380  1.9440  0.3111 -2.4667
  141DOPC  C21716705   2.989   3.859  15.344 -0.8465 -0.0700  0.6056
  141DOPC  H17R16706   2.901   3.868  15.411 -2.0432  0.7621 -1.0007
  141DOPC  H17S16707   3.034   3.758  15.344  1.2166  0.7842 -0.2452
  141DOPC  C21816708   2.934   3.893  15.201 -0.5051 -0.0721  0.1648
  141DOPC  H18R16709   3.025   3.903  15.138  0.2685 -2.0355  0.8684
  141DOPC  H18S16710   2.878   3.989  15.204 -1.3342 -0.4903 -1.0877
  141DOPC  H18T16711   2.870   3.805  15.177  1.4972 -1.0805 -1.9453
  141DOPC   C3316712   3.439   4.075  16.660  0.2149 -0.6114  0.4942
  141DOPC   H3X16713   3.404   3.976  16.695 -4.3704  1.0974  1.4770
  141DOPC   H3Y16714   3.547   4.095  16.681 -0.0543  2.7595 -0.7699
  141DOPC   C3416715   3.402   4.075  16.509 -0.0659  0.2601 -0.0483
  141DOPC   H4X16716   3.295   4.103  16.501 -0.5788 -1.5382  0.0155
  141DOPC   H4Y16717   3.419   3.974  16.464 -1.4614  0.3175 -0.7828
  141DOPC   C3516718   3.486   4.172  16.436  0.4587 -0.1846 -0.9061
  141DOPC   H5X16719   3.592   4.140  16.440  0.9158  1.2940  2.3345
  141DOPC   H5Y16720   3.469   4.273  16.479 -1.5342 -0.4267 -1.0374
  141DOPC   C3616721   3.452   4.190  16.288 -0.1141 -0.0634  0.8975
  141DOPC   H6X16722   3.350   4.224  16.261  0.3786 -0.8781 -2.4850
  141DOPC   H6Y16723   3.521   4.263  16.241 -1.5770  1.2909  0.7640
  141DOPC   C3716724   3.481   4.056  16.202 -0.1751 -0.4991  0.5134
  141DOPC   H7X16725   3.588   4.033  16.219 -0.4862 -1.1946  1.6122
  141DOPC   H7Y16726   3.418   3.973  16.239 -1.3015 -0.8181 -1.8689
  141DOPC   C3816727   3.448   4.056  16.049 -0.2960 -0.2313  0.8430
  141DOPC   H8X16728   3.340   4.082  16.043 -0.1966  0.4692  1.9126
  141DOPC   H8Y16729   3.468   3.959  15.999  0.1808  1.1619 -1.8690
  141DOPC   C3916730   3.535   4.154  15.976 -0.9867  0.5902  0.0312
  141DOPC   H9X16731   3.605   4.206  16.043 -0.8359 -0.1924  0.4886
  141DOPC  C31016732   3.549   4.160  15.842  0.7555  0.4328  0.6918
  141DOPC  H10X16733   3.632   4.217  15.798 -0.7800  1.3153 -1.1885
  141DOPC  C31116734   3.478   4.067  15.747 -0.1561  0.2045  0.2727
  141DOPC  H11X16735   3.368   4.085  15.752 -0.5507 -1.9827  0.8854
  141DOPC  H11Y16736   3.495   3.961  15.775  1.3183  0.8872  2.1336
  141DOPC  C31216737   3.527   4.079  15.597  0.0693  0.5407  0.4388
  141DOPC  H12X16738   3.466   3.999  15.549  0.0352  0.3316  0.8229
  141DOPC  H12Y16739   3.633   4.046  15.601  0.9022  2.8538 -0.7918
  141DOPC  C31316740   3.501   4.220  15.540  0.7369 -0.9887 -0.7205
  141DOPC  H13X16741   3.394   4.236  15.563  1.5334  1.3589  1.8551
  141DOPC  H13Y16742   3.559   4.294  15.599 -0.0071 -0.4438 -0.6604
  141DOPC  C31416743   3.535   4.226  15.387  0.2971 -0.3968  0.3453
  141DOPC  H14X16744   3.528   4.330  15.351  0.7652 -0.5172 -0.1069
  141DOPC  H14Y16745   3.641   4.194  15.376  0.9915  1.6624  0.7303
  141DOPC  C31516746   3.446   4.135  15.301  0.3336 -0.0343  0.1599
  141DOPC  H15X16747   3.341   4.172  15.295 -0.3350 -2.0600 -2.5081
  141DOPC  H15Y16748   3.436   4.040  15.356 -2.2432  1.6274  2.8424
  141DOPC  C31616749   3.490   4.100  15.158 -0.7371 -0.1898  0.1324
  141DOPC  H16X16750   3.506   4.184  15.087  0.3306 -0.9917 -0.6158
  141DOPC  H16Y16751   3.583   4.042  15.176 -1.9526 -1.4655  2.8613
  141DOPC  C31716752   3.383   4.021  15.088 -0.2462  0.3812  0.2568
  141DOPC  H17X16753   3.436   4.000  14.993  3.3020  2.1892  1.6626
  141DOPC  H17Y16754   3.359   3.933  15.151  0.4242  0.0500  0.0571
  141DOPC  C31816755   3.250   4.098  15.053  0.1583 -0.0695 -0.0806
  141DOPC  H18X16756   3.165   4.029  15.036 -0.0637 -0.1413  1.2087
  141DOPC  H18Y16757   3.219   4.178  15.124  0.3845  2.3157 -2.5116
  141DOPC  H18Z16758   3.267   4.145  14.954 -0.1816 -0.9359 -0.5556
  142DOPC     N16759   4.751   3.989  17.189  0.1887  0.2138  0.7785
  142DOPC   C1216760   4.672   3.918  17.304 -0.4393 -0.3358 -0.0752
  142DOPC  H12A16761   4.689   3.968  17.398  2.5809  2.8601 -2.0709
  142DOPC  H12B16762   4.718   3.821  17.318  0.1584 -0.0472  0.0156
  142DOPC   C1316763   4.894   4.002  17.229 -0.1247 -0.0294  0.4242
  142DOPC  H13A16764   4.937   3.905  17.247 -1.5382 -0.6748  0.4692
  142DOPC  H13B16765   4.942   4.048  17.144 -0.4508 -2.1974 -1.0349
  142DOPC  H13C16766   4.907   4.069  17.313  2.6700 -1.5740  1.3563
  142DOPC   C1416767   4.691   4.122  17.153 -0.3267 -0.1825  0.4935
  142DOPC  H14A16768   4.678   4.194  17.233 -0.3705  2.2796 -1.6103
  142DOPC  H14B16769   4.744   4.177  17.076  0.3974 -1.1883  0.2559
  142DOPC  H14C16770   4.592   4.090  17.124  0.3589 -1.6994 -0.2765
  142DOPC   C1516771   4.739   3.904  17.067 -0.1402  0.0849 -0.2040
  142DOPC  H15A16772   4.807   3.929  16.986  1.0196 -1.0427  0.3788
  142DOPC  H15B16773   4.635   3.905  17.037 -0.7528 -0.7719  1.7667
  142DOPC  H15C16774   4.757   3.802  17.100  1.3685  0.3702 -0.0852
  142DOPC   C1116775   4.519   3.894  17.284  0.0479  0.3080  0.1764
  142DOPC  H11A16776   4.518   3.832  17.192 -0.6519  2.2994 -1.2233
  142DOPC  H11B16777   4.475   3.838  17.370 -0.5226  2.2956  1.2597
  142DOPC     P16778   4.401   4.109  17.377 -0.2570  0.1049  0.9472
  142DOPC   O1316779   4.527   4.162  17.440 -0.2782 -0.1209 -0.6255
  142DOPC   O1416780   4.294   4.056  17.465 -0.3127 -0.4115 -0.5362
  142DOPC   O1216781   4.441   4.008  17.264 -0.1953 -0.2414 -0.1345
  142DOPC   O1116782   4.347   4.221  17.287 -0.3504 -0.7420  0.3274
  142DOPC    C116783   4.223   4.228  17.223 -0.1518 -0.7632 -0.0332
  142DOPC    HA16784   4.191   4.331  17.196 -1.7787 -1.2467 -0.0669
  142DOPC    HB16785   4.144   4.192  17.292  0.2826  0.8520  1.3572
  142DOPC    C216786   4.227   4.132  17.101  0.6117  0.3062 -0.5902
  142DOPC    HS16787   4.260   4.032  17.137  0.0138  0.4679  0.4333
  142DOPC   O2116788   4.327   4.184  17.014 -0.3895  0.0373 -0.2876
  142DOPC   C2116789   4.359   4.127  16.901 -0.1647  0.0688 -0.0845
  142DOPC   O2216790   4.334   4.015  16.862  0.3538 -0.1332 -0.2667
  142DOPC   C2216791   4.445   4.220  16.829  0.0144  0.4357 -0.0671
  142DOPC   H2R16792   4.458   4.169  16.731  0.2498 -1.3167  0.8398
  142DOPC   H2S16793   4.545   4.235  16.875  0.1217  0.4974 -0.3165
  142DOPC    C316794   4.087   4.119  17.034 -0.9454  0.4280 -0.1877
  142DOPC    HX16795   4.011   4.091  17.111  0.6591 -0.4372  1.1661
  142DOPC    HY16796   4.089   4.030  16.967 -0.9870  1.8486 -2.1304
  142DOPC   O3116797   4.048   4.230  16.961  0.3086  0.0007  0.1191
  142DOPC   C3116798   3.971   4.323  17.021  0.1127  0.6040  0.6863
  142DOPC   O3216799   3.941   4.320  17.137  0.1947  0.1130 -0.3242
  142DOPC   C3216800   3.936   4.432  16.926 -0.3098 -0.7075 -0.1379
  142DOPC   H2X16801   3.864   4.512  16.953  0.5217  0.4788 -1.2777
  142DOPC   H2Y16802   4.031   4.479  16.892  0.1993  0.6177  2.8288
  142DOPC   C2316803   4.385   4.360  16.786 -1.0489 -0.3273  0.1558
  142DOPC   H3R16804   4.452   4.409  16.713  2.6993 -0.2397  3.3660
  142DOPC   H3S16805   4.391   4.417  16.881 -2.3898  0.0653  0.0267
  142DOPC   C2416806   4.250   4.362  16.731 -0.0569 -0.3943 -0.0357
  142DOPC   H4R16807   4.227   4.469  16.714  0.0212 -0.3050  0.4026
  142DOPC   H4S16808   4.180   4.322  16.808 -2.1742  2.0714 -0.5302
  142DOPC   C2516809   4.231   4.277  16.604  0.7684  0.1225 -0.0472
  142DOPC   H5R16810   4.123   4.257  16.586  1.1515 -1.5150 -0.7419
  142DOPC   H5S16811   4.274   4.176  16.621  1.0665  0.1706 -0.5071
  142DOPC   C2616812   4.287   4.347  16.482  0.6043  0.3153  0.5642
  142DOPC   H6R16813   4.379   4.408  16.495  0.2706  0.6941  1.2248
  142DOPC   H6S16814   4.218   4.426  16.445  0.2369  1.4256  3.3402
  142DOPC   C2716815   4.308   4.244  16.371 -0.1797  0.0936 -0.6189
  142DOPC   H7R16816   4.208   4.232  16.324  0.2392 -1.6032 -1.1776
  142DOPC   H7S16817   4.328   4.139  16.403  0.7740  0.3555 -0.2985
  142DOPC   C2816818   4.404   4.296  16.252  0.6218 -0.1743  0.1053
  142DOPC   H8R16819   4.513   4.294  16.274  0.6626  1.9800  0.2483
  142DOPC   H8S16820   4.381   4.404  16.240 -1.4815 -0.4746  0.9451
  142DOPC   C2916821   4.364   4.225  16.131 -0.2622  0.1410  0.3356
  142DOPC   H9R16822   4.308   4.132  16.143  0.1242 -0.6871 -3.1401
  142DOPC  C21016823   4.396   4.252  16.002  0.0635  0.1580 -0.0132
  142DOPC  H10R16824   4.358   4.190  15.920 -3.2124  2.7387 -0.6721
  142DOPC  C21116825   4.470   4.374  15.951  0.3495  0.4691 -0.0286
  142DOPC  H11R16826   4.580   4.364  15.957  0.2861  0.5005  1.3939
  142DOPC  H11S16827   4.431   4.461  16.007 -1.1017  0.7665 -1.4331
  142DOPC  C21216828   4.427   4.412  15.806 -0.1775  0.3894 -0.5006
  142DOPC  H12R16829   4.481   4.507  15.784 -0.5491  0.1973 -2.4304
  142DOPC  H12S16830   4.318   4.416  15.788 -0.5540 -0.5534  1.3931
  142DOPC  C21316831   4.478   4.309  15.700 -0.5007 -0.0368  0.1144
  142DOPC  H13R16832   4.443   4.206  15.721  1.2378 -0.3224  1.9160
  142DOPC  H13S16833   4.588   4.308  15.708 -0.4284  0.3165 -0.7109
  142DOPC  C21416834   4.465   4.349  15.555 -0.0358 -0.2117 -0.1928
  142DOPC  H14R16835   4.530   4.438  15.539 -1.9002  1.3738  0.7020
  142DOPC  H14S16836   4.364   4.390  15.536 -0.7236 -1.2475  1.0614
  142DOPC  C21516837   4.513   4.246  15.446 -0.2926 -0.2274 -0.9768
  142DOPC  H15R16838   4.477   4.284  15.348 -0.3833  0.1639 -0.7926
  142DOPC  H15S16839   4.466   4.146  15.464 -0.3893  0.2522  1.9131
  142DOPC  C21616840   4.663   4.239  15.444 -0.3220 -0.4219 -0.9637
  142DOPC  H16R16841   4.707   4.203  15.540  0.9272  0.6144 -1.1115
  142DOPC  H16S16842   4.716   4.337  15.439 -0.7912 -0.1689 -0.9866
  142DOPC  C21716843   4.711   4.163  15.317 -0.3935 -0.0661 -0.8842
  142DOPC  H17R16844   4.652   4.212  15.237 -0.1680 -1.5301 -1.9989
  142DOPC  H17S16845   4.668   4.061  15.316 -0.8405  0.1198 -1.8060
  142DOPC  C21816846   4.860   4.180  15.285  0.1507 -0.3958 -0.3666
  142DOPC  H18R16847   4.924   4.170  15.375  2.4842  0.8964 -1.7678
  142DOPC  H18S16848   4.874   4.281  15.239 -1.5742 -1.2112 -2.8606
  142DOPC  H18T16849   4.899   4.102  15.216  2.6257 -0.1049  0.6023
  142DOPC   C3316850   3.876   4.364  16.802 -0.4307  0.0701 -0.0362
  142DOPC   H3X16851   3.775   4.324  16.828  0.3926 -1.5371  0.8534
  142DOPC   H3Y16852   3.938   4.274  16.783  0.4315  0.2798  1.5274
  142DOPC   C3416853   3.851   4.451  16.682 -0.8321  0.3418 -0.1666
  142DOPC   H4X16854   3.953   4.461  16.637  0.9883  0.4020  3.5433
  142DOPC   H4Y16855   3.815   4.552  16.709 -1.1667 -0.0226  0.7757
  142DOPC   C3516856   3.760   4.392  16.574 -0.2970  0.1044  0.1328
  142DOPC   H5X16857   3.655   4.415  16.604 -0.1470  2.0824 -0.7386
  142DOPC   H5Y16858   3.784   4.284  16.567  2.2857  0.4577  2.1482
  142DOPC   C3616859   3.777   4.464  16.439 -0.1829  0.1868 -0.1397
  142DOPC   H6X16860   3.681   4.460  16.383  0.0559 -0.5417 -0.5049
  142DOPC   H6Y16861   3.789   4.574  16.456 -1.1539  0.1789  0.7448
  142DOPC   C3716862   3.897   4.409  16.358  0.1087 -0.3794  0.1013
  142DOPC   H7X16863   3.985   4.422  16.426 -0.8630 -1.7171  1.7087
  142DOPC   H7Y16864   3.891   4.301  16.331 -0.3841 -0.4665  0.5488
  142DOPC   C3816865   3.933   4.495  16.233 -0.0177 -0.0860 -0.4614
  142DOPC   H8X16866   4.039   4.481  16.205 -0.5398 -0.9143 -2.1457
  142DOPC   H8Y16867   3.931   4.602  16.260  2.9499  0.4464 -1.9902
  142DOPC   C3916868   3.840   4.465  16.114  0.3632  0.1307 -0.4075
  142DOPC   H9X16869   3.748   4.524  16.122  1.6871  2.2031  0.1384
  142DOPC  C31016870   3.851   4.369  16.026 -0.2230  0.1006  0.5056
  142DOPC  H10X16871   3.784   4.358  15.939  1.1093 -0.1125 -0.5326
  142DOPC  C31116872   3.970   4.279  16.013  0.1305 -0.4878 -0.3459
  142DOPC  H11X16873   3.947   4.173  16.039  0.0912  0.0107  1.8465
  142DOPC  H11Y16874   4.057   4.316  16.070  0.1680  0.8945 -1.2554
  142DOPC  C31216875   4.026   4.272  15.868  0.3145  0.2549 -0.1150
  142DOPC  H12X16876   4.121   4.213  15.872  0.2152  0.0188 -1.0201
  142DOPC  H12Y16877   4.051   4.376  15.841  1.2413 -0.0365 -0.4299
  142DOPC  C31316878   3.940   4.201  15.768  0.7155  0.5227  0.0949
  142DOPC  H13X16879   3.919   4.097  15.801  0.8349  0.4886  0.0670
  142DOPC  H13Y16880   3.843   4.254  15.775  0.4654 -0.0953  1.4642
  142DOPC  C31416881   4.007   4.189  15.626 -0.5286 -0.8341 -0.0287
  142DOPC  H14X16882   4.044   4.287  15.589  1.4156 -1.2614  0.6666
  142DOPC  H14Y16883   4.091   4.116  15.624  0.1497 -0.0723  0.1840
  142DOPC  C31516884   3.908   4.141  15.518 -0.5122 -0.2067  0.4052
  142DOPC  H15X16885   3.840   4.225  15.494 -2.2567 -1.0650  2.1007
  142DOPC  H15Y16886   3.856   4.048  15.550 -1.0249  0.2468  0.9089
  142DOPC  C31616887   3.988   4.102  15.389  0.2551 -0.2002  0.4171
  142DOPC  H16X16888   4.048   4.191  15.361 -0.3779 -1.0503 -4.4101
  142DOPC  H16Y16889   4.044   4.009  15.409  0.2318 -0.0475  1.2514
  142DOPC  C31716890   3.896   4.078  15.266  0.6802 -0.0946 -0.2559
  142DOPC  H17X16891   3.818   3.999  15.274  0.0043  0.6073  0.3000
  142DOPC  H17Y16892   3.834   4.169  15.253 -0.3796 -0.5356  1.3250
  142DOPC  C31816893   3.975   4.056  15.135 -0.0388  0.2006 -0.0132
  142DOPC  H18X16894   4.039   3.965  15.144 -0.3218  0.0396  0.4412
  142DOPC  H18Y16895   3.894   4.038  15.062 -0.1735 -0.1558  0.2197
  142DOPC  H18Z16896   4.040   4.143  15.111 -2.4971  2.2837  0.4366
  143DOPC     N16897   1.867   2.626  17.227  0.6949 -0.4866 -0.2850
  143DOPC   C1216898   1.906   2.733  17.126  0.3028 -0.1178  0.6460
  143DOPC  H12A16899   1.931   2.683  17.034 -0.2738 -0.9875  0.9473
  143DOPC  H12B16900   1.999   2.773  17.164 -0.0589 -1.3703  3.0775
  143DOPC   C1316901   1.730   2.578  17.210  0.5254  0.2349  0.2954
  143DOPC  H13A16902   1.718   2.540  17.110  1.1228 -0.1098  0.3490
  143DOPC  H13B16903   1.711   2.495  17.276 -1.5089 -0.7318 -1.3686
  143DOPC  H13C16904   1.663   2.662  17.225  2.1100  1.2740  1.9703
  143DOPC   C1416905   1.870   2.674  17.372  0.6094  0.6482 -0.2652
  143DOPC  H14A16906   1.971   2.710  17.386  0.9357 -0.1778 -0.3905
  143DOPC  H14B16907   1.788   2.743  17.383 -2.4598 -2.8263  0.9887
  143DOPC  H14C16908   1.850   2.584  17.428 -1.5627  1.1031 -0.2443
  143DOPC   C1516909   1.955   2.514  17.216 -0.2474 -0.0045 -0.0092
  143DOPC  H15A16910   1.944   2.469  17.119  1.3888 -0.2274 -0.1133
  143DOPC  H15B16911   1.936   2.439  17.292 -1.1672 -0.9436 -1.1348
  143DOPC  H15C16912   2.059   2.543  17.221 -0.1994 -0.2103  0.1875
  143DOPC   C1116913   1.800   2.844  17.103 -0.5777  0.6148 -0.0163
  143DOPC  H11A16914   1.842   2.899  17.015 -0.1773  1.2809  0.5831
  143DOPC  H11B16915   1.700   2.815  17.064  0.1521  1.0573 -2.3700
  143DOPC     P16916   1.664   2.966  17.304  0.0630  0.7223 -0.1650
  143DOPC   O1316917   1.717   2.995  17.440 -0.0638 -0.3899 -0.2955
  143DOPC   O1416918   1.576   2.849  17.298 -0.0176 -0.2261  0.0288
  143DOPC   O1216919   1.795   2.938  17.216  0.0739  0.4790  0.3957
  143DOPC   O1116920   1.615   3.102  17.246  0.5901 -0.4478  0.0098
  143DOPC    C116921   1.698   3.196  17.191 -0.1803 -0.4248  0.0020
  143DOPC    HA16922   1.807   3.176  17.193 -0.3102 -1.1794 -0.3146
  143DOPC    HB16923   1.691   3.294  17.243  2.4212 -0.4955  0.6131
  143DOPC    C216924   1.663   3.230  17.045  0.2610 -0.2341  0.1265
  143DOPC    HS16925   1.566   3.282  17.033  0.2729 -0.3146 -0.3607
  143DOPC   O2116926   1.658   3.114  16.967  0.5548  0.3158 -1.1125
  143DOPC   C2116927   1.537   3.073  16.924 -0.6003  0.1420 -0.2901
  143DOPC   O2216928   1.429   3.128  16.946 -0.3702  0.4806  0.2617
  143DOPC   C2216929   1.549   2.938  16.852  0.2854 -0.2730  0.0491
  143DOPC   H2R16930   1.514   2.866  16.930  0.0952 -0.0271  0.1943
  143DOPC   H2S16931   1.651   2.905  16.825  1.4818  1.0356  2.6420
  143DOPC    C316932   1.776   3.317  16.986 -0.1076  0.6129  0.3697
  143DOPC    HX16933   1.872   3.261  16.992 -0.5022  0.0763  3.4750
  143DOPC    HY16934   1.776   3.404  17.055 -0.1587  1.3796 -0.5741
  143DOPC   O3116935   1.750   3.351  16.849  0.4723  0.5885 -0.0641
  143DOPC   C3116936   1.814   3.458  16.810 -0.1863  0.2231  0.2437
  143DOPC   O3216937   1.885   3.525  16.884 -0.2665  0.3812  0.4262
  143DOPC   C3216938   1.794   3.482  16.664 -0.5949 -0.6120 -0.7423
  143DOPC   H2X16939   1.843   3.581  16.652 -0.5341 -0.2994  1.6269
  143DOPC   H2Y16940   1.854   3.404  16.614 -1.0694 -1.3136 -0.2414
  143DOPC   C2316941   1.448   2.919  16.734  0.1012 -0.1516  1.0314
  143DOPC   H3R16942   1.357   2.983  16.738  1.9033  3.0176 -2.8001
  143DOPC   H3S16943   1.416   2.813  16.719  0.0731  0.0780 -0.6103
  143DOPC   C2416944   1.514   2.946  16.604 -0.2337 -0.4111  0.3882
  143DOPC   H4R16945   1.609   2.888  16.598  0.2873  0.5320 -0.7816
  143DOPC   H4S16946   1.532   3.054  16.591 -0.7612 -0.5535 -2.0274
  143DOPC   C2516947   1.421   2.894  16.488 -0.1635 -0.1460 -0.7286
  143DOPC   H5R16948   1.332   2.959  16.505 -0.3745 -0.3218 -1.1416
  143DOPC   H5S16949   1.406   2.785  16.495  0.7969 -0.1730  1.6832
  143DOPC   C2616950   1.489   2.919  16.352  0.7990  0.4467  0.2814
  143DOPC   H6R16951   1.549   2.828  16.336  0.1891  0.4135 -2.0909
  143DOPC   H6S16952   1.550   3.012  16.351  1.1294  0.2713 -2.4558
  143DOPC   C2716953   1.389   2.931  16.229 -0.4232 -0.3940 -0.1547
  143DOPC   H7R16954   1.323   3.020  16.239 -0.3273 -0.3282 -0.1006
  143DOPC   H7S16955   1.317   2.847  16.236 -2.0823  1.0401  0.6715
  143DOPC   C2816956   1.447   2.940  16.088  0.2285 -0.1577 -0.2248
  143DOPC   H8R16957   1.358   2.919  16.025 -0.0237 -1.2919  0.4749
  143DOPC   H8S16958   1.517   2.854  16.079 -0.8801 -1.5272  2.8339
  143DOPC   C2916959   1.519   3.071  16.053  0.4721 -0.0415 -0.0036
  143DOPC   H9R16960   1.626   3.060  16.075  0.4224 -0.5673 -0.0100
  143DOPC  C21016961   1.466   3.178  15.999 -0.0609 -0.4569  0.4979
  143DOPC  H10R16962   1.524   3.269  15.976 -0.2857 -0.6393 -0.9032
  143DOPC  C21116963   1.323   3.184  15.944  0.2405 -0.1395  0.3083
  143DOPC  H11R16964   1.273   3.269  15.995 -1.0738 -0.9761  0.4638
  143DOPC  H11S16965   1.263   3.093  15.964  0.8150 -0.4344  0.7473
  143DOPC  C21216966   1.318   3.216  15.794  0.8783  0.2583 -0.5206
  143DOPC  H12R16967   1.370   3.139  15.733  1.7174 -1.0853  1.7796
  143DOPC  H12S16968   1.371   3.311  15.775  0.7943  0.4908  0.3528
  143DOPC  C21316969   1.172   3.216  15.752  0.4039 -0.4001 -0.6067
  143DOPC  H13R16970   1.112   3.302  15.789  1.8213  0.6700 -0.6679
  143DOPC  H13S16971   1.129   3.122  15.791 -1.0569  1.0684  1.5116
  143DOPC  C21416972   1.146   3.219  15.601  0.1776 -0.4489 -0.2268
  143DOPC  H14R16973   1.205   3.304  15.560  0.3764  0.4928  1.8331
  143DOPC  H14S16974   1.038   3.241  15.584 -0.2436 -2.1258  0.1744
  143DOPC  C21516975   1.184   3.088  15.525  0.1350  0.5902 -0.0460
  143DOPC  H15R16976   1.137   2.994  15.562  1.9671 -0.9851 -1.4866
  143DOPC  H15S16977   1.294   3.080  15.517  0.2670 -0.6828  2.1734
  143DOPC  C21616978   1.135   3.102  15.374 -0.1213 -0.3180 -1.1218
  143DOPC  H16R16979   1.185   3.192  15.331 -3.7259  1.7643 -1.3654
  143DOPC  H16S16980   1.033   3.143  15.381  0.2535  0.2792  1.8686
  143DOPC  C21716981   1.158   2.972  15.297 -0.1026 -0.0561 -0.2212
  143DOPC  H17R16982   1.088   2.889  15.323 -1.1732 -0.3635 -3.6460
  143DOPC  H17S16983   1.257   2.941  15.336 -0.4933 -0.4784  0.4546
  143DOPC  C21816984   1.161   2.996  15.149 -0.0693 -0.4247  0.3431
  143DOPC  H18R16985   1.216   3.089  15.128  0.1578 -0.6085  0.1258
  143DOPC  H18S16986   1.060   3.008  15.104 -0.1201 -0.1635  0.5219
  143DOPC  H18T16987   1.212   2.911  15.099 -2.2652 -1.0083 -1.0433
  143DOPC   C3316988   1.645   3.487  16.622 -0.9190 -0.2432 -0.6025
  143DOPC   H3X16989   1.595   3.571  16.674 -0.0341  0.5678 -1.0427
  143DOPC   H3Y16990   1.592   3.397  16.659 -0.8879  0.7266  1.9628
  143DOPC   C3416991   1.623   3.489  16.471  0.3053 -0.6843  0.2363
  143DOPC   H4X16992   1.674   3.579  16.430 -0.0041 -0.6798 -0.1489
  143DOPC   H4Y16993   1.515   3.510  16.458  0.0978 -0.9286  1.5144
  143DOPC   C3516994   1.659   3.360  16.400  0.0311  0.3983 -0.5543
  143DOPC   H5X16995   1.602   3.272  16.437 -0.9698  0.2254 -2.4067
  143DOPC   H5Y16996   1.767   3.346  16.422  0.0773  1.1531 -0.2889
  143DOPC   C3616997   1.648   3.359  16.246  0.3786  0.3026 -0.6608
  143DOPC   H6X16998   1.699   3.266  16.215 -0.0829  0.1280 -0.8975
  143DOPC   H6Y16999   1.542   3.355  16.215 -0.3154 -1.4097  1.7042
  143DOPC   C3717000   1.721   3.471  16.175 -0.8274 -0.2438 -0.1708
  143DOPC   H7X17001   1.668   3.568  16.190  0.2420  0.6667 -1.8540
  143DOPC   H7Y17002   1.822   3.477  16.221 -0.6294 -1.3253 -0.4343
  143DOPC   C3817003   1.725   3.464  16.024 -1.0289  0.5533  1.0646
  143DOPC   H8X17004   1.750   3.563  15.979 -0.4390  1.0355  2.4067
  143DOPC   H8Y17005   1.624   3.455  15.978 -0.1870  0.7163 -0.9106
  143DOPC   C3917006   1.807   3.352  15.962  0.1288 -0.1139 -0.4370
  143DOPC   H9X17007   1.876   3.304  16.033 -1.9789 -1.1045  1.0494
  143DOPC  C31017008   1.806   3.322  15.829 -0.3864 -0.2416  0.1808
  143DOPC  H10X17009   1.880   3.251  15.789  1.6991 -0.8997  4.5612
  143DOPC  C31117010   1.705   3.378  15.734  0.2444  0.1595 -0.7379
  143DOPC  H11X17011   1.757   3.444  15.662 -2.1729  2.8975 -0.1423
  143DOPC  H11Y17012   1.625   3.440  15.779 -2.4024 -2.2772 -1.7728
  143DOPC  C31217013   1.637   3.265  15.656 -0.2771 -0.3426  0.4255
  143DOPC  H12X17014   1.592   3.196  15.730  2.5218 -1.9291  0.7995
  143DOPC  H12Y17015   1.717   3.202  15.610  0.6162  1.4485 -0.6038
  143DOPC  C31317016   1.533   3.320  15.557 -0.2529  0.0818  0.3808
  143DOPC  H13X17017   1.445   3.253  15.559  0.7753 -1.3626 -0.4672
  143DOPC  H13Y17018   1.487   3.412  15.599 -0.0485 -0.7160  2.4605
  143DOPC  C31417019   1.572   3.346  15.413  0.6390  0.3239  0.4957
  143DOPC  H14X17020   1.661   3.413  15.399  1.3628 -0.8107 -0.5536
  143DOPC  H14Y17021   1.605   3.249  15.370 -1.0478  0.5288 -1.4195
  143DOPC  C31517022   1.456   3.393  15.326 -0.5355  0.2432  0.2435
  143DOPC  H15X17023   1.415   3.489  15.361  0.4139 -0.2113  2.8122
  143DOPC  H15Y17024   1.370   3.323  15.336 -1.3831  1.5061  2.2574
  143DOPC  C31617025   1.497   3.404  15.169 -0.3857 -0.1541 -0.5167
  143DOPC  H16X17026   1.586   3.470  15.160  1.3409 -2.1042  0.8502
  143DOPC  H16Y17027   1.531   3.301  15.146  0.9262  0.2008 -0.2637
  143DOPC  C31717028   1.386   3.455  15.085  0.1636  0.4786  0.1216
  143DOPC  H17X17029   1.289   3.411  15.120  0.8143  0.1795  1.6594
  143DOPC  H17Y17030   1.382   3.565  15.101  0.9158  0.2774  1.8903
  143DOPC  C31817031   1.420   3.425  14.935  0.5451  0.6229  0.2363
  143DOPC  H18X17032   1.334   3.461  14.875 -0.7052  0.3367  1.7974
  143DOPC  H18Y17033   1.513   3.468  14.891  0.7834 -1.6452 -1.7168
  143DOPC  H18Z17034   1.437   3.319  14.905  1.5944  0.5885  0.9088
  144DOPC     N17035   2.225   4.474  17.663  0.9369  0.5541 -0.2927
  144DOPC   C1217036   2.182   4.422  17.530 -0.5118  0.2527 -0.1410
  144DOPC  H12A17037   2.151   4.506  17.470 -0.4832  0.5793  0.2911
  144DOPC  H12B17038   2.094   4.362  17.548  0.2049 -1.0050 -0.7665
  144DOPC   C1317039   2.269   4.373  17.768  0.2249  0.1660  0.4471
  144DOPC  H13A17040   2.356   4.316  17.738  0.8474  0.7480  1.1216
  144DOPC  H13B17041   2.295   4.425  17.858  0.3156 -1.1041  1.1767
  144DOPC  H13C17042   2.185   4.309  17.791  1.2287 -0.7855  1.6313
  144DOPC   C1417043   2.100   4.535  17.723  0.1347 -0.4687 -0.8335
  144DOPC  H14A17044   2.072   4.625  17.671  0.3854  0.2141  0.1864
  144DOPC  H14B17045   2.015   4.469  17.731  0.1624 -0.2662  3.4658
  144DOPC  H14C17046   2.116   4.563  17.826 -0.5123 -0.0736 -0.8377
  144DOPC   C1517047   2.327   4.580  17.642  0.3942 -0.0654 -0.4299
  144DOPC  H15A17048   2.280   4.656  17.582  1.9651  1.0947 -0.2614
  144DOPC  H15B17049   2.411   4.556  17.577  0.4143  1.4199 -0.9843
  144DOPC  H15C17050   2.371   4.625  17.730 -1.0421 -0.5894  0.6037
  144DOPC   C1117051   2.285   4.334  17.453  0.3239 -0.4163 -0.2060
  144DOPC  H11A17052   2.243   4.308  17.353  3.1576 -1.5645 -1.1776
  144DOPC  H11B17053   2.374   4.397  17.433  0.2995 -0.2426  0.2287
  144DOPC     P17054   2.248   4.084  17.537  0.0008 -0.3745 -0.3680
  144DOPC   O1317055   2.105   4.110  17.547  0.5938  0.3978 -0.1577
  144DOPC   O1417056   2.303   4.003  17.652  0.6525 -0.5374 -0.0121
  144DOPC   O1217057   2.328   4.223  17.531  0.5721 -0.4848  0.0721
  144DOPC   O1117058   2.278   4.012  17.404 -0.3575  0.5622 -0.1286
  144DOPC    C117059   2.414   3.976  17.375  0.6697 -0.0433 -0.5424
  144DOPC    HA17060   2.436   3.877  17.421  0.2977  0.6563  1.2056
  144DOPC    HB17061   2.481   4.052  17.421 -1.8839  1.8634  0.2041
  144DOPC    C217062   2.448   3.978  17.219  0.1910 -0.6619 -1.1038
  144DOPC    HS17063   2.553   3.944  17.212  0.9382  0.9445  1.1220
  144DOPC   O2117064   2.433   4.112  17.159 -0.5640  0.4983  0.1247
  144DOPC   C2117065   2.530   4.198  17.198  0.0231  0.4818 -0.3663
  144DOPC   O2217066   2.625   4.166  17.266  0.0695 -0.0677 -0.2125
  144DOPC   C2217067   2.488   4.341  17.146 -0.6918 -0.5895  0.0156
  144DOPC   H2R17068   2.568   4.416  17.164  1.2059 -2.0936 -1.6215
  144DOPC   H2S17069   2.397   4.378  17.197  0.8761  3.5190  0.2824
  144DOPC    C317070   2.349   3.886  17.150  0.7294 -0.1205  0.2467
  144DOPC    HX17071   2.243   3.913  17.173  0.9187  0.4372  0.4986
  144DOPC    HY17072   2.360   3.781  17.182  1.4221 -0.6013 -1.4588
  144DOPC   O3117073   2.374   3.879  17.002  0.4936 -0.2298 -0.6118
  144DOPC   C3117074   2.285   3.944  16.926 -0.2841 -0.2313 -0.2107
  144DOPC   O3217075   2.198   4.018  16.965 -0.3566  0.1289 -0.4027
  144DOPC   C3217076   2.325   3.936  16.781 -0.5355  0.3154  0.1035
  144DOPC   H2X17077   2.287   4.028  16.732 -0.4766  0.1234 -0.3117
  144DOPC   H2Y17078   2.436   3.938  16.776 -0.5015 -1.1870 -0.2653
  144DOPC   C2317079   2.452   4.327  16.999 -0.1660 -0.6555  0.1372
  144DOPC   H3R17080   2.438   4.432  16.968 -0.2747 -0.9746 -0.9300
  144DOPC   H3S17081   2.360   4.274  16.967 -0.2479 -0.7605  0.5465
  144DOPC   C2417082   2.577   4.280  16.916  0.0159  0.1682  0.5215
  144DOPC   H4R17083   2.609   4.179  16.950 -1.6557  0.0404  1.8368
  144DOPC   H4S17084   2.662   4.351  16.916  0.4214 -0.3053  0.9092
  144DOPC   C2517085   2.549   4.264  16.772  0.0519  0.2700  0.3776
  144DOPC   H5R17086   2.512   4.363  16.737  1.0563  0.7325  0.5904
  144DOPC   H5S17087   2.481   4.177  16.760  0.6561  0.0290 -1.8450
  144DOPC   C2617088   2.675   4.218  16.693 -0.8359  0.7464  0.8234
  144DOPC   H6R17089   2.688   4.108  16.706  0.8177  0.6267 -1.1894
  144DOPC   H6S17090   2.762   4.269  16.741 -1.1592  1.9508  0.1663
  144DOPC   C2717091   2.689   4.270  16.545 -0.1247  0.1981  0.0355
  144DOPC   H7R17092   2.788   4.243  16.503  0.0262 -2.0930  1.6427
  144DOPC   H7S17093   2.684   4.378  16.571 -2.3668 -0.3671  2.4325
  144DOPC   C2817094   2.584   4.218  16.451 -0.3153  0.0632 -1.0976
  144DOPC   H8R17095   2.606   4.244  16.345  0.9658  2.0797 -0.4002
  144DOPC   H8S17096   2.495   4.281  16.474  0.7487  0.5466  2.1540
  144DOPC   C2917097   2.574   4.074  16.467  0.4517  0.4541  0.4221
  144DOPC   H9R17098   2.501   4.039  16.542 -1.3849  1.2507 -0.9147
  144DOPC  C21017099   2.622   3.983  16.383  0.5389  0.0737  0.2940
  144DOPC  H10R17100   2.586   3.881  16.401  0.4478  0.6162  3.8325
  144DOPC  C21117101   2.703   4.008  16.259 -0.1202  0.1710 -0.5613
  144DOPC  H11R17102   2.769   3.919  16.257 -0.7059 -0.3658  1.4951
  144DOPC  H11S17103   2.770   4.093  16.284 -0.7019  0.8420 -1.2375
  144DOPC  C21217104   2.622   4.025  16.130  0.5026 -0.5072  0.2974
  144DOPC  H12R17105   2.534   4.092  16.137  1.6227  0.9269  1.2605
  144DOPC  H12S17106   2.587   3.922  16.106 -1.1325 -1.0194  4.1348
  144DOPC  C21317107   2.706   4.094  16.019  0.1747  0.7339  0.0364
  144DOPC  H13R17108   2.805   4.048  16.002  1.1518  2.1104  1.7333
  144DOPC  H13S17109   2.721   4.196  16.059 -1.4898  1.1235 -0.2515
  144DOPC  C21417110   2.632   4.110  15.887  0.1286 -0.5109 -1.2689
  144DOPC  H14R17111   2.538   4.165  15.912  0.0676 -1.3196  0.4090
  144DOPC  H14S17112   2.615   4.011  15.840  1.3264 -2.3605  1.8638
  144DOPC  C21517113   2.720   4.201  15.787  0.2320  0.9187  0.1226
  144DOPC  H15R17114   2.814   4.144  15.775 -0.1644  0.3010 -0.0765
  144DOPC  H15S17115   2.741   4.298  15.838  0.2878  0.7538  0.4128
  144DOPC  C21617116   2.652   4.221  15.658  0.1739 -0.5640 -0.0164
  144DOPC  H16R17117   2.712   4.290  15.595 -0.7284 -0.8269 -1.1858
  144DOPC  H16S17118   2.548   4.259  15.661  0.6318  0.9075 -1.5164
  144DOPC  C21717119   2.654   4.093  15.564  0.3825  0.2603 -0.0067
  144DOPC  H17R17120   2.579   4.018  15.597  0.0342  0.6521  0.1021
  144DOPC  H17S17121   2.750   4.038  15.574 -1.2856 -2.8671  0.1997
  144DOPC  C21817122   2.634   4.123  15.419 -0.1656  0.2499 -0.4483
  144DOPC  H18R17123   2.694   4.210  15.384  0.3855  0.6754  1.4220
  144DOPC  H18S17124   2.526   4.131  15.397 -1.4950 -0.4020  4.5876
  144DOPC  H18T17125   2.669   4.035  15.361  2.5842  0.6589  0.4352
  144DOPC   C3317126   2.268   3.812  16.699 -1.0489 -0.2378  0.3345
  144DOPC   H3X17127   2.158   3.801  16.711 -1.1444 -0.7488 -0.8977
  144DOPC   H3Y17128   2.322   3.723  16.739  1.8400  2.0587  1.9491
  144DOPC   C3417129   2.306   3.826  16.551 -0.0073 -0.4477 -0.2255
  144DOPC   H4X17130   2.417   3.831  16.545  0.0434  1.2605  1.4184
  144DOPC   H4Y17131   2.272   3.924  16.512  1.6295  0.1784 -0.1618
  144DOPC   C3517132   2.246   3.720  16.464  0.3320  0.1602 -0.5825
  144DOPC   H5X17133   2.143   3.704  16.500  1.4680 -1.8837  2.0961
  144DOPC   H5Y17134   2.302   3.627  16.486 -1.2673 -0.7217 -0.1291
  144DOPC   C3617135   2.229   3.750  16.308  0.2231  0.1718  0.1794
  144DOPC   H6X17136   2.155   3.833  16.299 -1.9743 -1.8544 -1.9944
  144DOPC   H6Y17137   2.328   3.780  16.268  1.0916 -2.0386  0.5574
  144DOPC   C3717138   2.172   3.634  16.232  0.4621  0.2115  0.6432
  144DOPC   H7X17139   2.249   3.554  16.234 -0.2643 -0.4863  2.2380
  144DOPC   H7Y17140   2.089   3.607  16.300 -0.8121  2.9213  0.3198
  144DOPC   C3817141   2.140   3.682  16.093  0.4511 -0.5535 -0.1409
  144DOPC   H8X17142   2.235   3.722  16.052 -1.6100  4.4203 -0.8319
  144DOPC   H8Y17143   2.079   3.775  16.100 -0.2128 -1.0408  0.8352
  144DOPC   C3917144   2.074   3.567  16.017  0.3287  0.6009  0.5790
  144DOPC   H9X17145   1.966   3.564  16.039  0.5268  1.6318  1.7673
  144DOPC  C31017146   2.130   3.506  15.910 -0.0555  0.5778 -1.1753
  144DOPC  H10X17147   2.059   3.449  15.848  0.1562 -1.5818  0.4597
  144DOPC  C31117148   2.275   3.502  15.860  1.0137 -0.4442 -0.2387
  144DOPC  H11X17149   2.294   3.398  15.828 -2.3786 -0.9417 -0.9269
  144DOPC  H11Y17150   2.346   3.509  15.945 -0.6730 -0.8262  1.2569
  144DOPC  C31217151   2.310   3.576  15.730  0.2115  1.1024 -0.6704
  144DOPC  H12X17152   2.410   3.546  15.692 -0.1494 -1.5599  0.3012
  144DOPC  H12Y17153   2.329   3.684  15.747  1.7717  0.6938  0.3492
  144DOPC  C31317154   2.195   3.564  15.625 -0.2564 -0.4279  0.4690
  144DOPC  H13X17155   2.101   3.611  15.659  0.1875  2.1766 -1.5340
  144DOPC  H13Y17156   2.224   3.623  15.535 -0.4332  0.1242  0.7693
  144DOPC  C31417157   2.169   3.425  15.572 -0.6006  0.3157 -0.3320
  144DOPC  H14X17158   2.263   3.372  15.546  0.3635  1.9376 -0.2792
  144DOPC  H14Y17159   2.122   3.360  15.650 -0.4396  0.2122 -0.3209
  144DOPC  C31517160   2.074   3.417  15.448  0.3815 -0.1686 -0.1673
  144DOPC  H15X17161   2.128   3.465  15.364  1.2261 -0.7514  0.0299
  144DOPC  H15Y17162   1.988   3.481  15.478  0.9231  0.3478  0.3184
  144DOPC  C31617163   2.023   3.278  15.406  0.2593  0.9866  0.4775
  144DOPC  H16X17164   2.118   3.231  15.373 -1.1061 -0.8703 -0.9862
  144DOPC  H16Y17165   1.984   3.210  15.485 -1.2624  2.2702  0.8878
  144DOPC  C31717166   1.929   3.272  15.282 -0.1473  0.6121 -0.1628
  144DOPC  H17X17167   1.899   3.168  15.256  2.1991  0.1581 -1.3358
  144DOPC  H17Y17168   1.835   3.330  15.299 -0.1312  0.2919  1.1558
  144DOPC  C31817169   2.008   3.332  15.160 -0.5616 -0.0097  0.0930
  144DOPC  H18X17170   1.950   3.304  15.070  1.5600 -1.1010 -0.9917
  144DOPC  H18Y17171   2.013   3.443  15.161 -2.1816  0.1081 -0.8782
  144DOPC  H18Z17172   2.107   3.281  15.157 -0.9690 -0.9144  1.1075
  145DOPC     N17173   2.787   6.187  17.555  0.0684  0.2889 -0.3353
  145DOPC   C1217174   2.688   6.071  17.533 -0.1219 -0.0823 -0.3941
  145DOPC  H12A17175   2.594   6.108  17.496  0.1227  1.1541  0.1830
  145DOPC  H12B17176   2.664   6.022  17.627 -0.6208 -2.2346 -1.5619
  145DOPC   C1317177   2.838   6.248  17.428  0.5221  0.8448  0.0423
  145DOPC  H13A17178   2.866   6.175  17.354 -2.3619 -3.2587  2.5285
  145DOPC  H13B17179   2.754   6.300  17.385  1.3095  0.8156 -1.5945
  145DOPC  H13C17180   2.928   6.308  17.436  2.1674 -1.4310 -0.5187
  145DOPC   C1417181   2.903   6.145  17.641  0.2720 -0.1975 -0.0465
  145DOPC  H14A17182   2.946   6.242  17.660 -1.4550  0.5849  0.0575
  145DOPC  H14B17183   2.871   6.098  17.733 -1.7454  0.1207 -0.5451
  145DOPC  H14C17184   2.971   6.081  17.586 -0.1841 -0.9495  0.2413
  145DOPC   C1517185   2.710   6.295  17.622  0.6524  0.3542 -0.1257
  145DOPC  H15A17186   2.677   6.274  17.723  0.5040  2.1331  0.2216
  145DOPC  H15B17187   2.634   6.342  17.562  1.3310  2.6584  0.7100
  145DOPC  H15C17188   2.785   6.372  17.633  1.1736 -0.2886  1.0428
  145DOPC   C1117189   2.730   5.959  17.441  0.0820 -0.4279 -0.1492
  145DOPC  H11A17190   2.640   5.901  17.411  0.5609 -0.6557 -1.1939
  145DOPC  H11B17191   2.768   6.000  17.345 -0.1738  0.9362  0.3123
  145DOPC     P17192   2.785   5.777  17.614 -0.0232 -0.1966 -0.4281
  145DOPC   O1317193   2.661   5.825  17.685 -0.7300  0.2554 -0.4938
  145DOPC   O1417194   2.901   5.748  17.700  0.0659  0.3933  0.3127
  145DOPC   O1217195   2.838   5.874  17.499  0.8293 -0.0517 -0.4339
  145DOPC   O1117196   2.745   5.641  17.546 -0.3569 -0.5553 -0.3012
  145DOPC    C117197   2.841   5.584  17.450  0.3815 -0.1871 -0.1483
  145DOPC    HA17198   2.835   5.474  17.464 -0.5951 -0.1618 -0.3157
  145DOPC    HB17199   2.947   5.609  17.473  0.3053 -1.3015  1.6067
  145DOPC    C217200   2.799   5.627  17.307  0.2969 -0.1749  0.4571
  145DOPC    HS17201   2.802   5.738  17.303  2.1535 -0.1755  0.7090
  145DOPC   O2117202   2.671   5.574  17.274  0.1590 -0.1698  0.1261
  145DOPC   C2117203   2.576   5.658  17.233  0.4012  0.3149  0.4413
  145DOPC   O2217204   2.589   5.778  17.201  0.8912  0.0046 -0.0358
  145DOPC   C2217205   2.438   5.587  17.230 -0.1355 -0.4155  0.1898
  145DOPC   H2R17206   2.370   5.656  17.283 -1.7641 -0.9397 -1.1105
  145DOPC   H2S17207   2.440   5.486  17.277  0.5641 -0.2830  0.4625
  145DOPC    C317208   2.904   5.582  17.201  0.7233 -0.4014 -0.1123
  145DOPC    HX17209   2.924   5.473  17.210 -0.4298 -0.6248 -0.1136
  145DOPC    HY17210   2.991   5.642  17.234  0.7079 -1.0611  1.2021
  145DOPC   O3117211   2.853   5.599  17.060 -0.3545  0.4068 -0.2160
  145DOPC   C3117212   2.897   5.706  17.007 -0.7979 -0.4878 -0.5575
  145DOPC   O3217213   2.945   5.800  17.066  0.2809 -0.3467 -0.6044
  145DOPC   C3217214   2.881   5.696  16.855  0.4588  0.3742 -0.2584
  145DOPC   H2X17215   2.922   5.601  16.815 -0.0021  0.3925 -0.7781
  145DOPC   H2Y17216   2.774   5.699  16.826 -0.1909 -0.3820  1.8317
  145DOPC   C2317217   2.402   5.587  17.078 -0.0206  0.2820  0.1796
  145DOPC   H3R17218   2.408   5.694  17.048  1.9560  1.0931  3.0406
  145DOPC   H3S17219   2.296   5.556  17.063  0.3335 -0.3531 -1.2174
  145DOPC   C2417220   2.478   5.483  16.996  0.1021  0.1757  0.1820
  145DOPC   H4R17221   2.468   5.390  17.056  1.0406  0.7867  1.3064
  145DOPC   H4S17222   2.586   5.507  16.988  0.2086 -0.2374  0.3627
  145DOPC   C2517223   2.433   5.467  16.848 -0.4634  0.6099 -0.0001
  145DOPC   H5R17224   2.331   5.423  16.848 -0.2209 -0.0251  1.8556
  145DOPC   H5S17225   2.502   5.395  16.800  0.1506  2.2309 -1.6483
  145DOPC   C2617226   2.435   5.599  16.771 -0.0364  0.1790  0.4684
  145DOPC   H6R17227   2.537   5.641  16.761  1.0761 -2.2048  1.0402
  145DOPC   H6S17228   2.393   5.681  16.833  1.9305  1.4498  0.2035
  145DOPC   C2717229   2.374   5.600  16.629  0.4526  1.1779  0.3862
  145DOPC   H7R17230   2.304   5.514  16.633  0.8677  0.8974  2.2037
  145DOPC   H7S17231   2.444   5.579  16.544 -3.1043 -0.1056 -2.4784
  145DOPC   C2817232   2.300   5.730  16.605  0.3216 -0.4839  0.3470
  145DOPC   H8R17233   2.225   5.746  16.686  0.7380 -0.0087  0.6434
  145DOPC   H8S17234   2.234   5.711  16.517 -1.2553  1.3162  1.0527
  145DOPC   C2917235   2.385   5.851  16.587  0.3696 -0.9072 -0.7755
  145DOPC   H9R17236   2.429   5.881  16.684 -1.2809 -0.5253 -0.1141
  145DOPC  C21017237   2.400   5.932  16.481 -0.4238  0.2567  0.1290
  145DOPC  H10R17238   2.470   6.016  16.476 -0.1111 -0.0533 -1.3355
  145DOPC  C21117239   2.326   5.913  16.349  0.3211 -0.4350 -0.2064
  145DOPC  H11R17240   2.236   5.977  16.353  0.4218 -0.3391  0.8850
  145DOPC  H11S17241   2.298   5.805  16.343  2.9006 -1.3152  1.6958
  145DOPC  C21217242   2.406   5.946  16.218  0.5449  0.6161 -0.5714
  145DOPC  H12R17243   2.489   5.872  16.215 -0.6412 -0.8410  0.7692
  145DOPC  H12S17244   2.463   6.041  16.214 -1.0154  1.6792  1.2957
  145DOPC  C21317245   2.318   5.933  16.096 -0.0462 -0.2253 -0.0208
  145DOPC  H13R17246   2.260   6.027  16.084 -1.9386 -1.1108  1.7064
  145DOPC  H13S17247   2.248   5.849  16.113  1.2867 -1.2534  0.6388
  145DOPC  C21417248   2.401   5.892  15.976  0.5938 -0.3261 -0.8630
  145DOPC  H14R17249   2.445   5.793  16.002 -0.3282 -0.7015 -0.7030
  145DOPC  H14S17250   2.487   5.960  15.961  1.3040 -1.1830 -0.7445
  145DOPC  C21517251   2.325   5.890  15.844 -0.6249 -0.1100  0.3621
  145DOPC  H15R17252   2.217   5.914  15.856 -0.7263 -1.2848  2.1158
  145DOPC  H15S17253   2.332   5.787  15.801  0.5030  0.1753 -0.1800
  145DOPC  C21617254   2.389   5.983  15.734  0.3918 -0.4680 -0.6633
  145DOPC  H16R17255   2.495   5.952  15.725  1.1813  1.8831 -0.1678
  145DOPC  H16S17256   2.379   6.091  15.757  1.0104 -0.2519 -1.3605
  145DOPC  C21717257   2.305   5.958  15.608 -0.3032 -0.5342  0.2414
  145DOPC  H17R17258   2.199   5.991  15.613  0.3212  2.1606 -1.7459
  145DOPC  H17S17259   2.295   5.850  15.586  1.1521 -0.1333 -3.0930
  145DOPC  C21817260   2.372   6.036  15.493  0.1579  0.2780 -0.0329
  145DOPC  H18R17261   2.337   5.995  15.396  0.2988 -0.1530  0.0990
  145DOPC  H18S17262   2.482   6.027  15.487  0.2364  0.2092  1.1700
  145DOPC  H18T17263   2.348   6.145  15.497 -0.3676  0.1874 -0.5664
  145DOPC   C3317264   2.925   5.812  16.762 -0.1314  0.3966 -0.2302
  145DOPC   H3X17265   3.030   5.839  16.785  0.5641 -0.5464 -2.0916
  145DOPC   H3Y17266   2.860   5.902  16.758 -1.6326 -0.6881 -2.5595
  145DOPC   C3417267   2.933   5.764  16.614 -0.2420 -0.1944  0.4182
  145DOPC   H4X17268   2.981   5.664  16.606 -0.0257 -0.1667  1.2980
  145DOPC   H4Y17269   2.994   5.834  16.553 -0.9858 -0.2905 -0.4678
  145DOPC   C3517270   2.792   5.745  16.558 -0.1525 -0.3331  0.0375
  145DOPC   H5X17271   2.748   5.845  16.579  0.0247 -0.1514 -0.4305
  145DOPC   H5Y17272   2.729   5.682  16.624 -0.8357  0.7476  0.4463
  145DOPC   C3617273   2.784   5.700  16.413  0.2038 -0.2501 -0.0462
  145DOPC   H6X17274   2.805   5.590  16.416 -1.4344 -0.5596  2.1725
  145DOPC   H6Y17275   2.680   5.715  16.377 -0.0068 -0.7251  0.3506
  145DOPC   C3717276   2.883   5.768  16.314  0.2395 -0.3081  0.3095
  145DOPC   H7X17277   2.875   5.878  16.308  2.4298 -0.0912  0.5472
  145DOPC   H7Y17278   2.990   5.757  16.343  0.4287 -2.0049 -0.8798
  145DOPC   C3817279   2.882   5.702  16.172  0.3744 -0.0686 -0.4381
  145DOPC   H8X17280   2.895   5.593  16.188 -0.3810 -0.1847 -0.5906
  145DOPC   H8Y17281   2.970   5.736  16.113 -0.6097  2.2973 -0.6531
  145DOPC   C3917282   2.755   5.723  16.091 -0.0623 -0.0494 -0.5415
  145DOPC   H9X17283   2.673   5.765  16.150  2.0877  3.0239  0.4690
  145DOPC  C31017284   2.733   5.699  15.962 -0.1734  0.7031  0.9360
  145DOPC  H10X17285   2.638   5.736  15.919 -0.4255 -0.5535  0.3574
  145DOPC  C31117286   2.845   5.658  15.870  0.0527  0.1033 -0.1927
  145DOPC  H11X17287   2.873   5.552  15.885 -1.0330 -0.2403 -0.5028
  145DOPC  H11Y17288   2.939   5.713  15.893  0.7826 -1.6486  1.1886
  145DOPC  C31217289   2.804   5.680  15.726  0.2968 -0.2694 -0.4565
  145DOPC  H12X17290   2.898   5.668  15.668  1.3319  2.5685  0.4921
  145DOPC  H12Y17291   2.779   5.788  15.721 -2.0028 -0.7145  0.2968
  145DOPC  C31317292   2.703   5.575  15.676  0.4682 -0.6864  0.2588
  145DOPC  H13X17293   2.732   5.469  15.659 -2.5669 -1.5101 -0.2688
  145DOPC  H13Y17294   2.602   5.581  15.721  0.5862  1.7939  0.2884
  145DOPC  C31417295   2.677   5.613  15.526 -0.2234  0.2867  0.1365
  145DOPC  H14X17296   2.754   5.565  15.462 -1.2897 -0.8624 -0.3141
  145DOPC  H14Y17297   2.582   5.563  15.498 -1.2327  2.3897 -0.4297
  145DOPC  C31517298   2.656   5.762  15.486  0.5273  0.0382 -0.6157
  145DOPC  H15X17299   2.733   5.838  15.512  1.3509 -1.2094  0.7381
  145DOPC  H15Y17300   2.562   5.800  15.530 -0.3399 -0.7576 -1.7418
  145DOPC  C31617301   2.630   5.785  15.341  0.3671 -0.0065  0.9935
  145DOPC  H16X17302   2.531   5.741  15.315  0.2693  1.7218 -2.0561
  145DOPC  H16Y17303   2.628   5.894  15.323 -1.3522 -0.2748 -0.8619
  145DOPC  C31717304   2.725   5.721  15.242 -0.2581  0.5990 -0.0092
  145DOPC  H17X17305   2.823   5.770  15.262 -2.0967  3.6207  2.6076
  145DOPC  H17Y17306   2.748   5.613  15.257 -1.5595 -0.1661 -2.7837
  145DOPC  C31817307   2.672   5.726  15.099 -0.2020  0.8240  0.0949
  145DOPC  H18X17308   2.670   5.835  15.076  0.1097  0.5789 -1.1514
  145DOPC  H18Y17309   2.714   5.656  15.025 -2.1929 -0.0395 -0.2880
  145DOPC  H18Z17310   2.573   5.676  15.104 -0.7409  1.3515 -3.1897
  146DOPC     N17311   3.962   3.351  17.407  0.1303 -0.0546  0.0462
  146DOPC   C1217312   3.992   3.500  17.380  0.1106  0.6195  0.0359
  146DOPC  H12A17313   3.907   3.546  17.331 -1.3419 -1.3549  0.5801
  146DOPC  H12B17314   4.077   3.504  17.313 -0.6509 -0.4393 -1.0414
  146DOPC   C1317315   3.845   3.335  17.496 -0.0133  0.3504  0.5140
  146DOPC  H13A17316   3.828   3.228  17.505  1.1190  0.0880 -0.1745
  146DOPC  H13B17317   3.861   3.361  17.599  1.8381 -1.8992  0.8763
  146DOPC  H13C17318   3.756   3.380  17.456  0.2147 -0.3996 -0.9079
  146DOPC   C1417319   4.085   3.278  17.456  0.6307  1.1169 -0.1981
  146DOPC  H14A17320   4.054   3.184  17.500 -3.1284  1.9907 -0.6800
  146DOPC  H14B17321   4.139   3.260  17.363  0.6451  0.6077 -0.0955
  146DOPC  H14C17322   4.132   3.339  17.532  3.5221  0.1537 -1.0693
  146DOPC   C1517323   3.932   3.288  17.272 -0.2707 -0.3534  0.0022
  146DOPC  H15A17324   3.906   3.187  17.302  2.9888 -1.2061  0.3633
  146DOPC  H15B17325   4.015   3.287  17.202 -0.3219 -0.4093 -0.0575
  146DOPC  H15C17326   3.851   3.337  17.220  2.1218  0.7915 -2.8970
  146DOPC   C1117327   4.010   3.583  17.509 -0.0040 -0.1418 -0.2785
  146DOPC  H11A17328   4.076   3.525  17.577 -0.2878  0.9950  0.9970
  146DOPC  H11B17329   4.076   3.666  17.478  1.0437 -1.3206 -1.3190
  146DOPC     P17330   3.798   3.741  17.515  0.1151 -0.0318 -0.1070
  146DOPC   O1317331   3.872   3.868  17.527  0.3523  0.3129 -0.0544
  146DOPC   O1417332   3.665   3.735  17.581 -0.0675  0.5572 -0.0786
  146DOPC   O1217333   3.884   3.620  17.572  0.4457  0.0283 -0.2864
  146DOPC   O1117334   3.792   3.705  17.358  0.2027 -0.2617 -0.6172
  146DOPC    C117335   3.668   3.643  17.301 -0.3571  0.4610 -0.6140
  146DOPC    HA17336   3.578   3.707  17.309 -0.5803  0.3079 -1.6905
  146DOPC    HB17337   3.647   3.549  17.356 -1.1877 -0.5575 -2.5578
  146DOPC    C217338   3.694   3.587  17.160  0.6096 -0.4992 -0.5252
  146DOPC    HS17339   3.788   3.529  17.160  0.0743 -1.3885 -0.0319
  146DOPC   O2117340   3.686   3.697  17.069 -0.2104  0.3425 -0.6560
  146DOPC   C2117341   3.807   3.751  17.050  0.1449 -0.3671 -0.0693
  146DOPC   O2217342   3.911   3.703  17.094 -0.1383  0.8378 -0.1772
  146DOPC   C2217343   3.793   3.889  16.978 -0.7118  0.3706 -0.2581
  146DOPC   H2R17344   3.874   3.954  17.017  0.6583 -0.3276 -1.8396
  146DOPC   H2S17345   3.703   3.939  17.019  0.3076  1.3286  0.8983
  146DOPC    C317346   3.578   3.485  17.127 -0.0323  0.9298 -0.0575
  146DOPC    HX17347   3.481   3.532  17.154 -0.1386  0.0999  1.0801
  146DOPC    HY17348   3.596   3.402  17.198  0.2244  1.6658  0.7667
  146DOPC   O3117349   3.582   3.447  16.989 -0.6192  0.1271 -0.2045
  146DOPC   C3117350   3.672   3.361  16.958 -0.1558 -0.2708 -0.6281
  146DOPC   O3217351   3.751   3.302  17.029  0.1278  0.8273  0.2933
  146DOPC   C3217352   3.671   3.342  16.800  0.0191  0.1664  0.0248
  146DOPC   H2X17353   3.565   3.365  16.774 -0.2619  0.6648  1.4903
  146DOPC   H2Y17354   3.744   3.413  16.756  2.2443 -1.8280  0.2898
  146DOPC   C2317355   3.790   3.880  16.827  0.5059  0.0348  0.3990
  146DOPC   H3R17356   3.765   3.983  16.794 -1.7117 -0.3341  0.8023
  146DOPC   H3S17357   3.719   3.803  16.790  0.2008  0.9665 -1.0349
  146DOPC   C2417358   3.929   3.856  16.764  0.7574 -0.0208  0.3440
  146DOPC   H4R17359   3.986   3.773  16.812  1.0561  0.2373  0.4389
  146DOPC   H4S17360   3.982   3.951  16.786 -0.7091  0.8814  0.0677
  146DOPC   C2517361   3.922   3.835  16.609  0.0684  0.4453 -0.4425
  146DOPC   H5R17362   3.838   3.764  16.588 -0.1915  0.2958  0.9988
  146DOPC   H5S17363   4.009   3.796  16.553 -0.0107 -1.0706  0.4258
  146DOPC   C2617364   3.882   3.967  16.540 -0.1121  0.8831  0.4495
  146DOPC   H6R17365   3.956   4.047  16.562  0.9360 -0.4592  2.0879
  146DOPC   H6S17366   3.791   3.992  16.598  0.2678 -2.6880  2.9100
  146DOPC   C2717367   3.838   3.955  16.392 -0.1992  0.1151  0.5521
  146DOPC   H7R17368   3.813   4.058  16.356  1.5496  0.2512 -0.3781
  146DOPC   H7S17369   3.744   3.897  16.383 -1.7364  2.4493  0.7294
  146DOPC   C2817370   3.944   3.886  16.298  0.2173 -0.3797 -0.1723
  146DOPC   H8R17371   3.972   3.788  16.342  0.2989 -0.0643  0.5041
  146DOPC   H8S17372   4.039   3.943  16.291 -0.9099  1.4957 -1.0674
  146DOPC   C2917373   3.879   3.865  16.163  0.2464 -0.5582 -0.4065
  146DOPC   H9R17374   3.771   3.845  16.172 -0.8047  3.2156 -2.4416
  146DOPC  C21017375   3.931   3.883  16.046 -0.2687  0.4409  0.9543
  146DOPC  H10R17376   3.864   3.870  15.960 -1.9532 -2.0846  2.5289
  146DOPC  C21117377   4.065   3.929  16.020 -0.7092 -0.5745  0.4977
  146DOPC  H11R17378   4.127   3.965  16.105  1.5192  0.8284 -1.5929
  146DOPC  H11S17379   4.070   4.016  15.951  1.3266 -0.5610  0.5980
  146DOPC  C21217380   4.149   3.822  15.948  0.1029  0.1696 -0.0918
  146DOPC  H12R17381   4.120   3.725  15.994  0.9939  0.3661  0.9297
  146DOPC  H12S17382   4.257   3.826  15.975  0.5867 -0.9181 -1.6924
  146DOPC  C21317383   4.136   3.837  15.791 -0.5543  0.5308  0.2736
  146DOPC  H13R17384   4.040   3.882  15.759 -0.6447 -1.4544 -2.6075
  146DOPC  H13S17385   4.139   3.737  15.744  1.7276  0.5676  0.2551
  146DOPC  C21417386   4.257   3.914  15.732  0.2285  0.2855  0.0124
  146DOPC  H14R17387   4.360   3.886  15.760  0.3645  0.9479  0.1740
  146DOPC  H14S17388   4.238   4.017  15.767  1.0184 -0.2054  1.9944
  146DOPC  C21517389   4.253   3.915  15.574  0.2106 -0.0944  0.1581
  146DOPC  H15R17390   4.283   4.015  15.536 -0.1823 -0.1895 -0.4256
  146DOPC  H15S17391   4.149   3.892  15.540  0.0176  1.1520 -0.1255
  146DOPC  C21617392   4.347   3.809  15.510 -0.5288  0.1931  0.4048
  146DOPC  H16R17393   4.340   3.705  15.550 -3.3149  0.6306  1.2916
  146DOPC  H16S17394   4.450   3.849  15.524 -0.9465  0.6502  2.4767
  146DOPC  C21717395   4.330   3.795  15.356 -0.1236  1.0975 -0.1050
  146DOPC  H17R17396   4.229   3.756  15.331  1.2855 -1.8737 -1.7403
  146DOPC  H17S17397   4.402   3.713  15.337 -1.3319 -0.3392  1.2647
  146DOPC  C21817398   4.369   3.914  15.276 -0.5130 -0.0998  0.3883
  146DOPC  H18R17399   4.362   3.898  15.166 -3.1940  1.1969  0.2814
  146DOPC  H18S17400   4.473   3.947  15.296 -0.5471  1.2186 -1.3146
  146DOPC  H18T17401   4.306   4.005  15.290  0.8205  0.8955  0.1661
  146DOPC   C3317402   3.708   3.203  16.747 -0.6586  0.4111  0.2069
  146DOPC   H3X17403   3.633   3.127  16.779  0.3678 -1.1327 -0.9536
  146DOPC   H3Y17404   3.812   3.177  16.776 -0.3949  0.6972 -0.4607
  146DOPC   C3417405   3.700   3.214  16.588  0.2227 -0.3389 -0.0178
  146DOPC   H4X17406   3.771   3.299  16.572  1.6671 -1.3362  0.9421
  146DOPC   H4Y17407   3.594   3.238  16.563 -0.3445 -2.0396  0.6392
  146DOPC   C3517408   3.746   3.087  16.521 -0.0704  0.2860 -0.0022
  146DOPC   H5X17409   3.695   2.996  16.558  0.4479  0.2769  0.7145
  146DOPC   H5Y17410   3.852   3.070  16.549 -0.6181 -3.2947  0.3053
  146DOPC   C3617411   3.739   3.090  16.370  0.1489  0.4271  0.0495
  146DOPC   H6X17412   3.779   3.186  16.331  0.1731 -0.8366 -3.3772
  146DOPC   H6Y17413   3.805   3.018  16.318  0.2938  1.1286 -0.7606
  146DOPC   C3717414   3.602   3.077  16.311  0.6065 -0.3583  0.0821
  146DOPC   H7X17415   3.560   2.984  16.355  0.1825  0.7971  2.2728
  146DOPC   H7Y17416   3.528   3.151  16.349 -0.9717 -0.7294 -2.0782
  146DOPC   C3817417   3.600   3.074  16.154  0.2614 -0.4507 -0.6178
  146DOPC   H8X17418   3.647   3.165  16.112 -0.7391  0.7096  0.6791
  146DOPC   H8Y17419   3.495   3.085  16.120  0.9125 -1.8055 -3.3663
  146DOPC   C3917420   3.666   2.951  16.092 -0.3409 -0.7722 -0.3678
  146DOPC   H9X17421   3.635   2.856  16.138 -1.5453 -0.3435 -0.2630
  146DOPC  C31017422   3.775   2.946  16.019 -1.2129 -0.1907  0.8270
  146DOPC  H10X17423   3.820   2.850  15.990 -0.1699 -0.1962  2.3609
  146DOPC  C31117424   3.856   3.064  15.967  0.8112 -0.0974  0.0279
  146DOPC  H11X17425   3.962   3.065  16.001  0.8293 -0.8919  0.0099
  146DOPC  H11Y17426   3.814   3.162  16.000 -0.2840 -1.2903  2.3914
  146DOPC  C31217427   3.858   3.051  15.817 -0.2182 -0.0781  0.2084
  146DOPC  H12X17428   3.916   2.957  15.803 -0.4015 -0.2298  0.4583
  146DOPC  H12Y17429   3.913   3.132  15.764  0.3910 -0.7660 -0.2230
  146DOPC  C31317430   3.725   3.034  15.743 -0.1916 -0.0168 -0.3966
  146DOPC  H13X17431   3.669   2.943  15.773 -0.8903  0.1104 -1.2655
  146DOPC  H13Y17432   3.665   3.116  15.788 -2.3389 -0.9074 -1.5080
  146DOPC  C31417433   3.730   3.040  15.593  0.3671  0.0163 -0.1846
  146DOPC  H14X17434   3.836   3.014  15.570 -0.2799 -3.8011  0.5172
  146DOPC  H14Y17435   3.656   2.969  15.549 -2.0321  0.9589  2.1130
  146DOPC  C31517436   3.702   3.186  15.543  0.9650  0.4437 -0.3072
  146DOPC  H15X17437   3.771   3.255  15.596  1.1444  0.3989 -0.4820
  146DOPC  H15Y17438   3.599   3.205  15.579 -0.0213 -0.9130 -2.2497
  146DOPC  C31617439   3.702   3.197  15.390  0.1161  0.2394  0.4184
  146DOPC  H16X17440   3.803   3.228  15.357  0.4818 -1.4902 -0.1653
  146DOPC  H16Y17441   3.681   3.098  15.346 -1.3366  0.7189 -0.0382
  146DOPC  C31717442   3.594   3.286  15.334 -0.4129  0.2020 -0.0042
  146DOPC  H17X17443   3.494   3.236  15.337 -1.2789  1.8546 -0.2362
  146DOPC  H17Y17444   3.580   3.375  15.399 -1.0679 -1.2645  1.9522
  146DOPC  C31817445   3.650   3.337  15.202  0.0666  0.0381 -0.1487
  146DOPC  H18X17446   3.682   3.256  15.133 -0.2346  0.6193 -0.9771
  146DOPC  H18Y17447   3.579   3.406  15.152  0.8241  0.4801 -0.6339
  146DOPC  H18Z17448   3.748   3.389  15.212  0.2103  0.3901 -2.7050
  147DOPC     N17449   2.249   3.596  17.644 -1.1810 -0.2234  0.2136
  147DOPC   C1217450   2.339   3.555  17.526  0.4493 -0.3535  0.6612
  147DOPC  H12A17451   2.372   3.453  17.537  1.9984 -0.3331 -2.5574
  147DOPC  H12B17452   2.432   3.609  17.533  0.6390 -0.7886  1.7984
  147DOPC   C1317453   2.199   3.733  17.610 -0.4447 -0.0747  0.5577
  147DOPC  H13A17454   2.273   3.810  17.596 -1.6159  0.9685 -0.1233
  147DOPC  H13B17455   2.137   3.722  17.523  0.4130  0.7863 -0.1801
  147DOPC  H13C17456   2.132   3.769  17.687  1.1585  1.1213  1.4554
  147DOPC   C1417457   2.328   3.599  17.775  0.1049  0.9876  0.4652
  147DOPC  H14A17458   2.359   3.496  17.785 -0.6389  0.7777  0.6732
  147DOPC  H14B17459   2.411   3.667  17.763  0.2141  0.7433 -0.2189
  147DOPC  H14C17460   2.259   3.627  17.853 -0.3729  0.9495  0.0645
  147DOPC   C1517461   2.132   3.520  17.659 -0.2947 -0.3494 -0.5644
  147DOPC  H15A17462   2.140   3.417  17.689  0.6336 -0.3124 -0.6745
  147DOPC  H15B17463   2.086   3.511  17.561  1.7171 -0.9671 -1.4933
  147DOPC  H15C17464   2.058   3.561  17.726  1.0141 -2.1870  2.1792
  147DOPC   C1117465   2.278   3.557  17.383 -0.0104 -0.5448  0.2709
  147DOPC  H11A17466   2.228   3.656  17.369  0.1314 -0.6772 -1.4158
  147DOPC  H11B17467   2.358   3.545  17.306  0.2176 -0.5173  0.5028
  147DOPC     P17468   2.099   3.429  17.246 -0.5252  0.1032 -0.0574
  147DOPC   O1317469   2.082   3.558  17.179  0.6698 -0.3400 -0.1194
  147DOPC   O1417470   1.984   3.351  17.285  0.0823 -0.0723  0.4065
  147DOPC   O1217471   2.179   3.460  17.377 -0.0225 -0.5094 -0.9573
  147DOPC   O1117472   2.205   3.342  17.172 -0.5204 -0.2440 -0.3815
  147DOPC    C117473   2.295   3.392  17.069 -0.3309 -0.2746 -0.8372
  147DOPC    HA17474   2.378   3.318  17.069  0.0807  0.1015  1.5208
  147DOPC    HB17475   2.344   3.489  17.091  1.2438 -1.6812  2.7245
  147DOPC    C217476   2.227   3.379  16.928  0.2918  0.3763  0.0525
  147DOPC    HS17477   2.130   3.432  16.939  0.0485 -0.0869  0.2131
  147DOPC   O2117478   2.213   3.240  16.917 -0.1680  0.2803 -0.0412
  147DOPC   C2117479   2.109   3.207  16.839 -0.0758  0.8152 -0.6007
  147DOPC   O2217480   2.034   3.285  16.785 -0.5723  0.1971  0.5321
  147DOPC   C2217481   2.117   3.055  16.815 -0.4122 -0.5302 -0.0984
  147DOPC   H2R17482   2.159   3.009  16.908 -0.8537 -2.8384 -0.9859
  147DOPC   H2S17483   2.193   3.042  16.735  0.4322 -0.0218  0.5997
  147DOPC    C317484   2.320   3.441  16.814  0.2864  0.2603 -0.2994
  147DOPC    HX17485   2.418   3.390  16.825  0.5884  0.8916 -0.0505
  147DOPC    HY17486   2.339   3.549  16.830  0.1570  0.3887 -0.9558
  147DOPC   O3117487   2.269   3.427  16.678 -0.3650  0.1055  0.5341
  147DOPC   C3117488   2.307   3.316  16.614 -0.1045  0.7465  0.8934
  147DOPC   O3217489   2.399   3.244  16.643 -0.3493  0.2043 -0.0487
  147DOPC   C3217490   2.220   3.304  16.489  0.0856  0.3598  0.1361
  147DOPC   H2X17491   2.117   3.282  16.526  0.3163  2.6305  2.3546
  147DOPC   H2Y17492   2.229   3.404  16.442  0.4809  0.3210  0.1259
  147DOPC   C2317493   1.977   3.002  16.772  0.3367 -0.2821 -0.3223
  147DOPC   H3R17494   1.942   3.071  16.693 -1.7968 -1.5480 -0.5588
  147DOPC   H3S17495   1.903   3.003  16.855 -1.1357 -2.0885 -1.5100
  147DOPC   C2417496   1.980   2.853  16.728  0.0800  0.0008  1.1465
  147DOPC   H4R17497   1.877   2.816  16.746 -0.4570  1.2709  0.8239
  147DOPC   H4S17498   2.053   2.780  16.769  0.5582 -0.4005 -0.3824
  147DOPC   C2517499   1.998   2.836  16.573 -0.4662 -0.5376  0.3427
  147DOPC   H5R17500   1.973   2.728  16.558 -1.7353 -0.3399  0.8936
  147DOPC   H5S17501   2.100   2.865  16.540 -0.7828 -0.2159 -0.3521
  147DOPC   C2617502   1.888   2.899  16.483 -0.2389 -0.1774  0.1596
  147DOPC   H6R17503   1.868   3.007  16.503 -2.1664 -0.6220  0.7991
  147DOPC   H6S17504   1.790   2.849  16.495  0.0230 -1.8332 -3.3505
  147DOPC   C2717505   1.924   2.886  16.335  0.4124  0.2199 -0.5695
  147DOPC   H7R17506   1.903   2.779  16.317  0.4190  0.3158 -1.1659
  147DOPC   H7S17507   2.034   2.901  16.330  0.4241 -0.1217 -1.8290
  147DOPC   C2817508   1.844   2.973  16.244 -0.1551  0.8532  0.0745
  147DOPC   H8R17509   1.814   3.069  16.291 -0.1210  2.3523 -2.7339
  147DOPC   H8S17510   1.740   2.939  16.223 -0.1024  0.5813  0.2517
  147DOPC   C2917511   1.913   3.005  16.113 -0.3526 -0.4524 -0.3835
  147DOPC   H9R17512   1.967   3.101  16.122 -0.2720 -0.6795  2.2430
  147DOPC  C21017513   1.903   2.958  15.991 -0.6098  0.9719  0.7646
  147DOPC  H10R17514   1.958   3.002  15.907 -1.3121 -0.5996 -0.5809
  147DOPC  C21117515   1.829   2.830  15.948 -0.1943  0.8399 -0.3065
  147DOPC  H11R17516   1.765   2.780  16.024 -0.1425 -0.1021 -0.8700
  147DOPC  H11S17517   1.898   2.744  15.941  0.4993  1.4355 -0.9874
  147DOPC  C21217518   1.743   2.842  15.822 -0.0772  0.0282  0.7399
  147DOPC  H12R17519   1.668   2.923  15.838  0.5621  0.1629  3.6712
  147DOPC  H12S17520   1.681   2.751  15.808 -0.0604  0.1068  0.1352
  147DOPC  C21317521   1.812   2.872  15.698 -0.5558 -0.0031  0.5055
  147DOPC  H13R17522   1.888   2.796  15.668  0.6109  0.8360  1.2497
  147DOPC  H13S17523   1.865   2.969  15.706  1.7664 -1.2344  1.1553
  147DOPC  C21417524   1.717   2.887  15.580 -0.0526  0.1858  0.6520
  147DOPC  H14R17525   1.646   2.968  15.608 -3.0061 -1.7011 -0.8925
  147DOPC  H14S17526   1.660   2.793  15.565  2.5467 -1.5250  0.7472
  147DOPC  C21517527   1.781   2.937  15.452 -0.2921  0.1985 -0.1271
  147DOPC  H15R17528   1.857   2.866  15.412 -2.2651 -0.6747 -2.5662
  147DOPC  H15S17529   1.816   3.041  15.468  1.5482 -0.0691 -1.9639
  147DOPC  C21617530   1.665   2.944  15.345  0.4182 -0.2113  0.6608
  147DOPC  H16R17531   1.700   3.012  15.264  1.6802 -1.0271  0.4988
  147DOPC  H16S17532   1.570   2.989  15.381  0.3879 -0.4777  0.9144
  147DOPC  C21717533   1.624   2.808  15.284  0.7381  0.7684  0.0056
  147DOPC  H17R17534   1.582   2.738  15.360 -2.2429  2.6779  0.2951
  147DOPC  H17S17535   1.712   2.755  15.244 -0.7392 -1.1337 -0.9100
  147DOPC  C21817536   1.528   2.819  15.168  0.4412 -0.5699  0.0281
  147DOPC  H18R17537   1.488   2.719  15.139 -2.7081 -0.8159  4.2079
  147DOPC  H18S17538   1.578   2.870  15.083  0.0551 -0.5135 -0.1690
  147DOPC  H18T17539   1.436   2.875  15.197  0.9161 -0.5776  1.6437
  147DOPC   C3317540   2.286   3.199  16.397 -0.0141 -0.1973  0.0866
  147DOPC   H3X17541   2.230   3.103  16.391  1.6920 -1.2453  0.2899
  147DOPC   H3Y17542   2.393   3.176  16.415  0.8225  2.1712 -1.4437
  147DOPC   C3417543   2.287   3.261  16.252  0.2444  0.7270  0.3345
  147DOPC   H4X17544   2.357   3.344  16.231 -0.3941  0.8027 -1.7367
  147DOPC   H4Y17545   2.185   3.296  16.225 -2.1143 -4.2167  1.5678
  147DOPC   C3517546   2.322   3.150  16.155  0.2508  0.0438 -0.0295
  147DOPC   H5X17547   2.247   3.069  16.161  0.1456  0.2045  1.0264
  147DOPC   H5Y17548   2.419   3.108  16.189  0.3222  0.4571  0.2898
  147DOPC   C3617549   2.323   3.193  16.005 -0.9124 -0.0170 -0.4371
  147DOPC   H6X17550   2.220   3.230  15.983 -1.1630 -0.3550  0.1515
  147DOPC   H6Y17551   2.397   3.271  15.979 -1.5455  0.6169 -0.3809
  147DOPC   C3717552   2.339   3.078  15.915 -0.2391  0.0878  0.7018
  147DOPC   H7X17553   2.440   3.035  15.931 -0.2793  0.1379  1.1073
  147DOPC   H7Y17554   2.263   3.001  15.939 -1.6095 -0.2509 -3.8362
  147DOPC   C3817555   2.316   3.101  15.756  0.1161 -0.4860 -0.1772
  147DOPC   H8X17556   2.346   3.205  15.734 -2.8235  0.0770 -2.0330
  147DOPC   H8Y17557   2.207   3.107  15.737  0.2852  1.3353 -0.6941
  147DOPC   C3917558   2.393   2.992  15.678 -0.9317  0.0989  0.5633
  147DOPC   H9X17559   2.502   2.993  15.688 -1.0862 -0.0175  2.5285
  147DOPC  C31017560   2.336   2.898  15.600  0.5595  0.9452 -0.0641
  147DOPC  H10X17561   2.397   2.818  15.557 -0.0856  0.6746 -0.4882
  147DOPC  C31117562   2.189   2.875  15.579 -0.0609  0.2405 -0.0894
  147DOPC  H11X17563   2.144   2.970  15.546 -1.5543  0.4315  2.2294
  147DOPC  H11Y17564   2.140   2.840  15.673  0.3810 -0.0824  0.0295
  147DOPC  C31217565   2.153   2.761  15.479 -0.3287 -0.0071  0.4893
  147DOPC  H12X17566   2.044   2.750  15.494 -0.2050  0.1304  1.5182
  147DOPC  H12Y17567   2.197   2.661  15.500  0.9246  0.0368 -1.6496
  147DOPC  C31317568   2.198   2.812  15.343 -0.0589 -0.2667  0.7806
  147DOPC  H13X17569   2.172   2.920  15.333  0.4103 -0.0058  2.2122
  147DOPC  H13Y17570   2.306   2.792  15.330 -0.1435 -0.3951  0.2506
  147DOPC  C31417571   2.123   2.736  15.234 -0.3255 -0.4199 -0.0828
  147DOPC  H14X17572   2.147   2.628  15.249 -0.5275 -0.5344 -0.5675
  147DOPC  H14Y17573   2.013   2.752  15.242 -0.0925  0.4725  2.1097
  147DOPC  C31517574   2.183   2.777  15.095  0.0798 -0.2920  0.1287
  147DOPC  H15X17575   2.176   2.695  15.020 -0.7557  1.2718 -1.5826
  147DOPC  H15Y17576   2.293   2.789  15.097  0.2331 -1.5465 -0.0361
  147DOPC  C31617577   2.118   2.898  15.031  0.9370 -0.0647 -0.1533
  147DOPC  H16X17578   2.156   2.988  15.083  0.6296  0.2288 -0.4273
  147DOPC  H16Y17579   2.156   2.911  14.927  0.6704  1.4058 -0.0902
  147DOPC  C31717580   1.957   2.891  15.030 -0.4924  0.0535 -0.2271
  147DOPC  H17X17581   1.921   2.790  15.000  1.2576 -0.5047 -0.5287
  147DOPC  H17Y17582   1.926   2.909  15.135 -0.1293 -0.4697 -0.0301
  147DOPC  C31817583   1.889   2.986  14.929 -0.1274  0.3193  0.4789
  147DOPC  H18X17584   1.780   2.969  14.916 -0.4482  2.6854 -0.5181
  147DOPC  H18Y17585   1.913   3.088  14.965  1.0348  0.5680 -0.9189
  147DOPC  H18Z17586   1.924   2.958  14.827  1.0851  0.9095  0.7216
  148DOPC     N17587   0.842   5.659  17.756  0.6412 -0.1866 -0.2550
  148DOPC   C1217588   0.917   5.771  17.829 -0.5536 -0.4384 -0.8349
  148DOPC  H12A17589   0.945   5.736  17.927 -1.8071 -1.0103 -0.6689
  148DOPC  H12B17590   0.856   5.857  17.853  1.4592  0.6643  0.6320
  148DOPC   C1317591   0.721   5.625  17.843 -0.6344 -0.8329 -0.8023
  148DOPC  H13A17592   0.662   5.713  17.866  1.2419 -0.5270  4.0706
  148DOPC  H13B17593   0.675   5.541  17.792  0.4203 -2.3897  0.6975
  148DOPC  H13C17594   0.751   5.594  17.942  0.6032  0.9733 -0.5701
  148DOPC   C1417595   0.920   5.532  17.745 -0.4420 -0.3274  0.4383
  148DOPC  H14A17596   1.014   5.545  17.694  0.2516 -0.1768  1.7131
  148DOPC  H14B17597   0.952   5.495  17.842  0.4654  1.9312  1.0592
  148DOPC  H14C17598   0.867   5.453  17.694 -1.0330  1.3650 -1.7096
  148DOPC   C1517599   0.797   5.717  17.626  0.2401  0.6124 -0.4980
  148DOPC  H15A17600   0.887   5.749  17.576  0.0119  1.4833 -0.3768
  148DOPC  H15B17601   0.732   5.803  17.637 -2.2879 -1.2287 -0.2289
  148DOPC  H15C17602   0.753   5.646  17.557 -0.6003 -1.3113  1.8705
  148DOPC   C1117603   1.053   5.825  17.766 -0.6224 -0.4608 -0.0476
  148DOPC  H11A17604   1.134   5.750  17.757  1.3660  1.6555 -1.0394
  148DOPC  H11B17605   1.043   5.860  17.661 -0.6669  0.5890  0.2946
  148DOPC     P17606   1.057   6.075  17.845 -0.0966  0.1234  0.1934
  148DOPC   O1317607   1.137   6.165  17.925 -0.7858  0.5592 -0.0633
  148DOPC   O1417608   0.911   6.074  17.867 -0.5939  0.6337 -0.1856
  148DOPC   O1217609   1.116   5.926  17.851 -0.6413 -0.3686 -0.0131
  148DOPC   O1117610   1.069   6.108  17.689  0.2640 -0.5663 -0.0539
  148DOPC    C117611   1.201   6.097  17.633  0.4667 -0.4359  0.2496
  148DOPC    HA17612   1.250   5.998  17.649  2.5564  0.5597  0.2009
  148DOPC    HB17613   1.267   6.175  17.675  0.5438 -0.4133  0.0871
  148DOPC    C217614   1.199   6.115  17.480 -0.1313 -0.5886 -0.1533
  148DOPC    HS17615   1.144   6.209  17.460  1.9499  0.3315 -2.0783
  148DOPC   O2117616   1.131   6.000  17.425  0.4529 -0.0229  0.6606
  148DOPC   C2117617   1.039   6.023  17.336 -0.3981 -0.5180 -0.2436
  148DOPC   O2217618   0.998   6.135  17.298 -0.0510 -0.1639 -0.2696
  148DOPC   C2217619   0.983   5.895  17.284  0.3518 -0.1952 -0.3696
  148DOPC   H2R17620   0.918   5.863  17.368  2.3604 -2.5714  0.3727
  148DOPC   H2S17621   1.068   5.826  17.270  1.4653  1.3227 -1.4314
  148DOPC    C317622   1.347   6.121  17.431 -0.8764 -0.6334  0.0928
  148DOPC    HX17623   1.402   6.030  17.460 -1.1007 -0.0768  2.4415
  148DOPC    HY17624   1.404   6.208  17.471  0.9533 -2.1187  0.8657
  148DOPC   O3117625   1.351   6.118  17.283  0.4266  0.6066  0.2667
  148DOPC   C3117626   1.342   6.237  17.227  0.0564  0.3264  0.1015
  148DOPC   O3217627   1.329   6.339  17.294 -0.2937  0.1437  0.3586
  148DOPC   C3217628   1.359   6.239  17.070  0.3940 -0.4368 -0.2408
  148DOPC   H2X17629   1.387   6.341  17.039 -3.5890  0.6151 -0.8941
  148DOPC   H2Y17630   1.444   6.173  17.042  1.1009 -0.2340  1.3554
  148DOPC   C2317631   0.902   5.887  17.152  0.2294  0.0313 -0.1413
  148DOPC   H3R17632   0.820   5.961  17.163  0.3235 -0.2443  4.0807
  148DOPC   H3S17633   0.866   5.782  17.146  1.5724 -0.4987  0.6624
  148DOPC   C2417634   0.986   5.903  17.024  0.2103 -0.4698  0.7749
  148DOPC   H4R17635   1.063   5.823  17.029  2.4158  1.5669  1.4651
  148DOPC   H4S17636   1.018   6.010  17.031  1.7941 -0.7360 -1.2790
  148DOPC   C2517637   0.895   5.902  16.900 -0.4487  0.6749 -0.7223
  148DOPC   H5R17638   0.826   5.985  16.928 -0.6219  0.0111  0.8964
  148DOPC   H5S17639   0.832   5.811  16.892  0.4662 -0.2232  1.5652
  148DOPC   C2617640   0.969   5.928  16.774 -0.1670  0.8403 -0.2281
  148DOPC   H6R17641   1.041   5.844  16.769 -1.3807 -0.4205  2.2012
  148DOPC   H6S17642   1.036   6.016  16.761 -0.1587  0.7007 -1.1848
  148DOPC   C2717643   0.885   5.925  16.642  0.3921 -0.1284 -0.1085
  148DOPC   H7R17644   0.792   5.985  16.657 -0.7902 -1.8192 -0.4774
  148DOPC   H7S17645   0.852   5.820  16.627 -0.0055 -0.1485  0.8144
  148DOPC   C2817646   0.960   5.983  16.515 -0.3296 -0.1546 -0.4255
  148DOPC   H8R17647   1.022   6.071  16.541 -1.6339  1.0571 -1.2818
  148DOPC   H8S17648   0.895   6.009  16.429  1.5234 -0.3260 -1.9297
  148DOPC   C2917649   1.051   5.879  16.466 -0.0921 -0.1327  0.0672
  148DOPC   H9R17650   1.058   5.799  16.541  1.1845  2.0384  2.3965
  148DOPC  C21017651   1.113   5.891  16.346 -0.0996  1.0903  0.4687
  148DOPC  H10R17652   1.160   5.797  16.312 -1.4540 -0.2445  2.0972
  148DOPC  C21117653   1.087   5.996  16.250  0.5089 -0.1802  0.6978
  148DOPC  H11R17654   1.175   6.031  16.192  0.0735  0.0019  0.1361
  148DOPC  H11S17655   1.061   6.085  16.311  0.3337  0.3476 -0.1344
  148DOPC  C21217656   0.979   5.966  16.145  0.0052  0.1127 -0.2162
  148DOPC  H12R17657   0.970   6.067  16.099  0.9024  0.6307  0.7002
  148DOPC  H12S17658   0.885   5.935  16.196  2.0086 -2.2767  2.3815
  148DOPC  C21317659   1.029   5.875  16.036  0.1923 -0.0469 -0.5334
  148DOPC  H13R17660   0.987   5.776  16.065 -0.7575  1.0400  2.0231
  148DOPC  H13S17661   1.140   5.866  16.029  0.1666 -0.4720 -0.4251
  148DOPC  C21417662   0.975   5.913  15.897  0.0315  0.1003  0.3723
  148DOPC  H14R17663   0.963   6.021  15.878 -1.0523  0.1432  1.2344
  148DOPC  H14S17664   0.872   5.872  15.896  0.1897 -0.6062  3.1281
  148DOPC  C21517665   1.065   5.859  15.792 -0.6307  0.2816  0.3178
  148DOPC  H15R17666   1.081   5.750  15.807  3.6889  0.6893 -0.0082
  148DOPC  H15S17667   1.165   5.907  15.789 -0.2600 -0.4873  0.0052
  148DOPC  C21617668   1.017   5.872  15.645  0.1238  0.1507 -0.0697
  148DOPC  H16R17669   0.996   5.977  15.616  0.6158 -0.1622 -1.7098
  148DOPC  H16S17670   0.923   5.823  15.612 -0.0506  1.0838 -0.9912
  148DOPC  C21717671   1.119   5.816  15.544 -0.6942  0.0657 -0.7511
  148DOPC  H17R17672   1.160   5.717  15.572  0.6936 -0.4353 -4.0725
  148DOPC  H17S17673   1.209   5.881  15.533  2.8294 -4.3969 -0.9339
  148DOPC  C21817674   1.062   5.797  15.399  0.6267 -0.2911  0.0501
  148DOPC  H18R17675   0.961   5.751  15.402  1.2409 -1.7048 -0.0163
  148DOPC  H18S17676   1.119   5.720  15.342  0.6676 -0.5584  0.4463
  148DOPC  H18T17677   1.067   5.893  15.343  2.3528 -0.3410  0.0581
  148DOPC   C3317678   1.228   6.195  16.998 -0.2848 -0.1707 -0.2347
  148DOPC   H3X17679   1.132   6.223  17.046 -0.9408 -1.9267 -0.4474
  148DOPC   H3Y17680   1.231   6.086  16.978  2.5207  0.1302 -1.9916
  148DOPC   C3417681   1.232   6.260  16.858 -0.0051  0.2275  0.0205
  148DOPC   H4X17682   1.263   6.366  16.853  0.2613  0.1163 -1.0224
  148DOPC   H4Y17683   1.128   6.253  16.820  0.3813 -1.4548 -0.8445
  148DOPC   C3517684   1.316   6.185  16.750 -0.0393 -0.6429  0.1798
  148DOPC   H5X17685   1.276   6.082  16.744 -0.4473 -0.5749  1.4434
  148DOPC   H5Y17686   1.424   6.190  16.777 -0.2259  1.8577  0.7542
  148DOPC   C3617687   1.315   6.253  16.610  0.6955  0.4392  1.1587
  148DOPC   H6X17688   1.209   6.265  16.577  0.3500 -0.5167  1.8883
  148DOPC   H6Y17689   1.359   6.355  16.609 -0.9297  1.2713 -2.2857
  148DOPC   C3717690   1.387   6.163  16.506  0.3135 -0.4985  0.0741
  148DOPC   H7X17691   1.489   6.135  16.539  0.3242  0.0977  0.5553
  148DOPC   H7Y17692   1.324   6.072  16.491 -0.4550  0.2332 -1.3900
  148DOPC   C3817693   1.396   6.221  16.362  0.1897 -0.3627 -0.4091
  148DOPC   H8X17694   1.443   6.322  16.357 -1.2612  0.3893  0.4030
  148DOPC   H8Y17695   1.291   6.236  16.328  0.1373  0.2132 -0.0269
  148DOPC   C3917696   1.483   6.143  16.274  0.8079  0.2560 -0.0824
  148DOPC   H9X17697   1.529   6.057  16.325 -0.7629  0.4424  1.7283
  148DOPC  C31017698   1.504   6.148  16.146  0.1195 -0.3105 -0.4803
  148DOPC  H10X17699   1.555   6.058  16.110 -0.8174 -0.9801 -0.1686
  148DOPC  C31117700   1.454   6.243  16.035 -0.9937 -0.4336 -0.2602
  148DOPC  H11X17701   1.537   6.311  16.007 -2.8148  1.6539 -0.8789
  148DOPC  H11Y17702   1.384   6.318  16.077 -0.7784 -0.4455  0.1263
  148DOPC  C31217703   1.407   6.162  15.912  0.5011 -0.0544 -0.2952
  148DOPC  H12X17704   1.317   6.100  15.932  1.3506 -1.1635  0.1907
  148DOPC  H12Y17705   1.486   6.086  15.889  2.2660  1.1488  1.4531
  148DOPC  C31317706   1.399   6.260  15.792  0.0894  0.0778 -0.0261
  148DOPC  H13X17707   1.325   6.337  15.823  0.2430 -0.8404  2.9438
  148DOPC  H13Y17708   1.495   6.313  15.772  0.7086 -1.2821 -0.7741
  148DOPC  C31417709   1.356   6.199  15.656  0.1559 -0.2247 -0.2649
  148DOPC  H14X17710   1.440   6.131  15.628 -1.1048 -2.2736  0.6799
  148DOPC  H14Y17711   1.266   6.134  15.663  1.2831 -2.1057 -1.9851
  148DOPC  C31517712   1.333   6.301  15.545  0.5869  0.3097 -0.1393
  148DOPC  H15X17713   1.428   6.358  15.537 -0.1558  1.4084 -1.5153
  148DOPC  H15Y17714   1.246   6.368  15.561 -2.7729 -3.2877 -1.7717
  148DOPC  C31617715   1.318   6.228  15.412  0.0987  0.0485  0.0357
  148DOPC  H16X17716   1.361   6.288  15.329  0.6993  0.1301  0.3972
  148DOPC  H16Y17717   1.385   6.140  15.408  1.1847  0.8268  0.5616
  148DOPC  C31717718   1.176   6.191  15.371  0.4066 -0.6172  0.4752
  148DOPC  H17X17719   1.151   6.113  15.446 -4.3415 -0.2152 -0.4047
  148DOPC  H17Y17720   1.107   6.275  15.395 -0.3125 -1.2346  0.6022
  148DOPC  C31817721   1.144   6.144  15.230 -0.2229  0.0281  0.7169
  148DOPC  H18X17722   1.158   6.224  15.155 -0.3463  0.9671  1.6750
  148DOPC  H18Y17723   1.194   6.047  15.208  0.8592  0.0131  2.9726
  148DOPC  H18Z17724   1.036   6.117  15.231 -0.6584  1.3898 -1.7927
  149DOPC     N17725   1.850   3.854  17.195  0.3981 -0.2224  0.3194
  149DOPC   C1217726   1.792   3.720  17.150  0.3421 -0.1751  1.0312
  149DOPC  H12A17727   1.771   3.654  17.232 -0.8516  0.1039  0.9627
  149DOPC  H12B17728   1.869   3.667  17.096 -0.4346  0.8741 -1.2172
  149DOPC   C1317729   1.886   3.953  17.079  0.6852  0.1122 -0.6274
  149DOPC  H13A17730   1.974   3.916  17.029  0.5010 -0.1233 -0.7773
  149DOPC  H13B17731   1.806   3.955  17.006  1.6969 -1.6417 -1.8424
  149DOPC  H13C17732   1.911   4.048  17.125  1.3898  0.7450 -2.2629
  149DOPC   C1417733   1.975   3.828  17.273 -0.5485 -0.4595  1.1009
  149DOPC  H14A17734   2.050   3.777  17.215 -1.7212 -1.2987  0.2694
  149DOPC  H14B17735   2.012   3.917  17.322 -2.9194 -0.1488  2.4806
  149DOPC  H14C17736   1.952   3.767  17.359 -1.6104 -0.6842  0.6734
  149DOPC   C1517737   1.747   3.916  17.291  0.0699  0.5987  0.4062
  149DOPC  H15A17738   1.653   3.922  17.238  0.2717  3.1841  0.2231
  149DOPC  H15B17739   1.764   4.019  17.319  0.9271  0.3405  0.8860
  149DOPC  H15C17740   1.741   3.872  17.389 -0.5224 -1.2300 -0.4090
  149DOPC   C1117741   1.668   3.722  17.059 -0.1302  0.3279 -0.5089
  149DOPC  H11A17742   1.680   3.801  16.982  0.3160  0.2191 -0.5539
  149DOPC  H11B17743   1.664   3.621  17.012 -3.3755  0.0466  0.1322
  149DOPC     P17744   1.476   3.650  17.221  0.4498 -0.1345  0.1395
  149DOPC   O1317745   1.375   3.718  17.302  0.4276  0.0552 -0.7891
  149DOPC   O1417746   1.575   3.568  17.294  0.0188  0.1749 -0.4272
  149DOPC   O1217747   1.551   3.752  17.132 -0.2133  0.0243  0.7022
  149DOPC   O1117748   1.392   3.557  17.120  0.0225  0.3105 -0.2787
  149DOPC    C117749   1.346   3.619  17.001 -0.0826 -0.3977  0.4121
  149DOPC    HA17750   1.434   3.635  16.934 -1.6387  2.4348 -1.1580
  149DOPC    HB17751   1.290   3.713  17.023 -0.3983  0.1217 -2.2281
  149DOPC    C217752   1.242   3.531  16.925 -0.2473  0.5605 -0.1034
  149DOPC    HS17753   1.169   3.486  16.995 -0.3722  0.2776 -0.4136
  149DOPC   O2117754   1.300   3.433  16.846 -0.7214 -0.4525 -0.0137
  149DOPC   C2117755   1.213   3.336  16.810 -0.6235  0.4524 -0.0055
  149DOPC   O2217756   1.115   3.307  16.875  0.5262  0.6473 -0.4411
  149DOPC   C2217757   1.261   3.274  16.682  0.4855  0.2714  0.0247
  149DOPC   H2R17758   1.202   3.180  16.675 -1.0044  1.2900 -3.6704
  149DOPC   H2S17759   1.366   3.242  16.698 -0.0940 -1.6352  0.2720
  149DOPC    C317760   1.144   3.622  16.834  0.2671 -0.5973  0.0063
  149DOPC    HX17761   1.107   3.690  16.913  3.6807  0.7428  0.5919
  149DOPC    HY17762   1.061   3.560  16.793  1.0891 -0.7545 -1.4943
  149DOPC   O3117763   1.210   3.701  16.737  0.2384 -0.1338  0.3709
  149DOPC   C3117764   1.148   3.714  16.620 -0.4271 -0.0491  0.2060
  149DOPC   O3217765   1.044   3.658  16.585 -0.4410 -0.2099 -0.5978
  149DOPC   C3217766   1.227   3.817  16.539  0.1899 -0.2599 -0.8405
  149DOPC   H2X17767   1.198   3.921  16.565 -2.2088 -1.7715  3.6571
  149DOPC   H2Y17768   1.331   3.809  16.577  0.6675  0.8673 -1.8594
  149DOPC   C2317769   1.240   3.367  16.556 -0.5137 -0.1207  0.5352
  149DOPC   H3R17770   1.311   3.452  16.549 -2.2764  1.4230  0.2284
  149DOPC   H3S17771   1.139   3.415  16.559 -0.4550  0.0881 -0.3481
  149DOPC   C2417772   1.269   3.289  16.422 -0.0214  0.0885 -0.2683
  149DOPC   H4R17773   1.214   3.193  16.429  0.5922 -0.3790 -1.5689
  149DOPC   H4S17774   1.379   3.277  16.415  0.1256 -1.0949  2.6239
  149DOPC   C2517775   1.214   3.350  16.296 -0.5617  0.3687 -0.4129
  149DOPC   H5R17776   1.265   3.301  16.210 -0.1084 -1.4767  0.8654
  149DOPC   H5S17777   1.219   3.461  16.286  0.3005  0.2837 -1.0353
  149DOPC   C2617778   1.063   3.317  16.269 -0.4121 -0.9729 -0.2590
  149DOPC   H6R17779   1.005   3.374  16.345  1.3624 -0.2864  0.6186
  149DOPC   H6S17780   1.036   3.212  16.294 -1.6626 -0.3734  1.1026
  149DOPC   C2717781   1.018   3.360  16.125 -0.1737  0.4206  0.4887
  149DOPC   H7R17782   0.925   3.300  16.116 -1.0585  1.5057  1.9305
  149DOPC   H7S17783   1.088   3.322  16.048 -0.4983 -0.4957  0.6341
  149DOPC   C2817784   0.992   3.508  16.106  0.4827 -1.1722 -0.6710
  149DOPC   H8R17785   0.981   3.518  15.996  0.8213 -0.0257 -0.6103
  149DOPC   H8S17786   1.078   3.573  16.131 -0.2805 -0.0944 -0.8146
  149DOPC   C2917787   0.870   3.559  16.177 -0.2724  0.3423  0.0731
  149DOPC   H9R17788   0.864   3.528  16.282 -0.9418  1.8140  0.4928
  149DOPC  C21017789   0.766   3.625  16.120  0.3487  1.2975 -0.5449
  149DOPC  H10R17790   0.692   3.645  16.200  0.6941  1.4643 -0.2661
  149DOPC  C21117791   0.741   3.679  15.987 -0.4174  0.0051 -0.0193
  149DOPC  H11R17792   0.832   3.737  15.958 -1.8047  1.5721 -1.4338
  149DOPC  H11S17793   0.661   3.756  15.987 -0.3672  0.1550  2.5126
  149DOPC  C21217794   0.716   3.573  15.876  0.0817  0.4742 -0.6039
  149DOPC  H12R17795   0.635   3.506  15.911 -0.3512  1.2380 -0.1211
  149DOPC  H12S17796   0.806   3.510  15.858  0.4729  0.9408 -0.3088
  149DOPC  C21317797   0.695   3.640  15.739 -0.5234  0.0430 -0.3509
  149DOPC  H13R17798   0.777   3.715  15.737  0.3737 -0.6405  3.0400
  149DOPC  H13S17799   0.597   3.692  15.735 -0.5929 -0.1749 -1.9485
  149DOPC  C21417800   0.697   3.542  15.622  0.0471  0.3665 -0.5221
  149DOPC  H14R17801   0.785   3.473  15.618 -0.2643  0.0335 -2.3929
  149DOPC  H14S17802   0.687   3.600  15.528  0.9784  0.9932 -0.2430
  149DOPC  C21517803   0.594   3.434  15.636  0.4134 -0.3469 -0.3769
  149DOPC  H15R17804   0.496   3.473  15.672 -0.5307 -2.5663 -0.4174
  149DOPC  H15S17805   0.624   3.359  15.712 -2.0424 -1.1703 -0.1315
  149DOPC  C21617806   0.586   3.354  15.505  0.0397 -0.2481 -0.2283
  149DOPC  H16R17807   0.557   3.425  15.424  1.9829  1.3059  0.3636
  149DOPC  H16S17808   0.496   3.289  15.519 -1.2363  1.7298  1.2876
  149DOPC  C21717809   0.713   3.272  15.460 -0.3181 -0.4151  0.4424
  149DOPC  H17R17810   0.797   3.341  15.435  0.5252 -1.7668 -0.6235
  149DOPC  H17S17811   0.683   3.226  15.363 -1.7912 -2.1279  1.6423
  149DOPC  C21817812   0.761   3.181  15.566 -0.3607 -0.6120 -0.1585
  149DOPC  H18R17813   0.778   3.245  15.655  2.6716  2.8596 -2.8759
  149DOPC  H18S17814   0.857   3.129  15.544 -0.8738 -0.9397 -1.8062
  149DOPC  H18T17815   0.689   3.104  15.600 -0.9461 -0.4708 -1.0337
  149DOPC   C3317816   1.229   3.784  16.384 -0.1021 -0.2213 -0.9156
  149DOPC   H3X17817   1.142   3.845  16.352  0.4411  0.7533 -0.5645
  149DOPC   H3Y17818   1.202   3.677  16.366  2.1204 -0.4086 -3.9072
  149DOPC   C3417819   1.363   3.817  16.328 -0.1194 -0.6822 -0.1712
  149DOPC   H4X17820   1.424   3.725  16.340 -2.7019 -2.9349 -2.8480
  149DOPC   H4Y17821   1.402   3.904  16.386  0.6934 -1.6159  0.7274
  149DOPC   C3517822   1.367   3.858  16.180  0.5219  0.4417  0.0835
  149DOPC   H5X17823   1.468   3.876  16.139  0.7568 -0.8548  0.0435
  149DOPC   H5Y17824   1.299   3.946  16.179 -2.6665 -1.8238  0.7311
  149DOPC   C3617825   1.325   3.749  16.076  0.0083 -0.1955  0.4024
  149DOPC   H6X17826   1.392   3.662  16.095 -1.9680 -1.4105  2.3920
  149DOPC   H6Y17827   1.216   3.727  16.080  0.2975 -1.6012  1.3996
  149DOPC   C3717828   1.330   3.794  15.924  0.7201  0.0227 -0.3145
  149DOPC   H7X17829   1.239   3.852  15.897 -0.3563 -0.0479  2.7727
  149DOPC   H7Y17830   1.422   3.852  15.899  0.7624  0.6799  1.2346
  149DOPC   C3817831   1.340   3.664  15.835  0.2982 -0.1531 -0.4687
  149DOPC   H8X17832   1.425   3.598  15.863 -0.3220 -0.4009  0.9103
  149DOPC   H8Y17833   1.362   3.710  15.736  0.9854 -0.4730 -0.4740
  149DOPC   C3917834   1.213   3.584  15.827  0.0409  0.5181  0.0657
  149DOPC   H9X17835   1.191   3.515  15.909 -2.3156  0.8338 -0.2259
  149DOPC  C31017836   1.123   3.596  15.726 -0.5460 -0.4150 -0.6216
  149DOPC  H10X17837   1.033   3.532  15.734 -1.5702  0.8954 -1.1999
  149DOPC  C31117838   1.110   3.704  15.612 -0.4842  0.5300 -0.1818
  149DOPC  H11X17839   1.181   3.788  15.631 -0.6912  0.6061  0.2714
  149DOPC  H11Y17840   1.011   3.754  15.612 -0.7141  0.0789 -0.3359
  149DOPC  C31217841   1.140   3.656  15.467  0.6422 -0.7546 -1.1905
  149DOPC  H12X17842   1.233   3.597  15.483  1.1892 -0.0448 -1.6751
  149DOPC  H12Y17843   1.155   3.748  15.405  2.5171  2.5096  3.4677
  149DOPC  C31317844   1.027   3.573  15.410 -0.5195  0.1114  0.0707
  149DOPC  H13X17845   0.981   3.495  15.475  1.1562 -1.7213 -0.8270
  149DOPC  H13Y17846   0.951   3.652  15.394  0.3502  0.8118 -0.6831
  149DOPC  C31417847   1.069   3.497  15.282 -0.7147 -0.0083  0.1612
  149DOPC  H14X17848   1.110   3.566  15.205 -0.2554  0.1352  0.5265
  149DOPC  H14Y17849   1.149   3.424  15.307 -0.0192  1.3716  2.2197
  149DOPC  C31517850   0.951   3.410  15.218 -0.0430  0.4560 -0.0755
  149DOPC  H15X17851   0.867   3.483  15.218  0.3776  0.9759  1.5435
  149DOPC  H15Y17852   0.939   3.326  15.290  1.6575 -1.4148 -1.8244
  149DOPC  C31617853   0.967   3.348  15.076  0.5342 -0.4637 -0.7182
  149DOPC  H16X17854   1.013   3.419  15.004  0.8251 -1.0748 -1.1463
  149DOPC  H16Y17855   1.052   3.277  15.082  1.7724  1.0422  0.1481
  149DOPC  C31717856   0.842   3.285  15.027  0.0867 -0.8336  0.0172
  149DOPC  H17X17857   0.813   3.208  15.101 -0.0253  0.1991  1.0915
  149DOPC  H17Y17858   0.766   3.366  15.036  0.9599  0.1666 -1.1870
  149DOPC  C31817859   0.847   3.241  14.873 -0.2113 -0.8675 -0.0302
  149DOPC  H18X17860   0.905   3.303  14.802  1.3037 -2.3286 -0.1464
  149DOPC  H18Y17861   0.900   3.143  14.871  1.2650 -0.0951  0.4378
  149DOPC  H18Z17862   0.743   3.228  14.836 -1.0164 -1.4661  2.2968
  150DOPC     N17863   4.481   1.106  18.044 -0.1608  0.7308 -0.2926
  150DOPC   C1217864   4.424   1.104  17.903 -0.2169  0.0951  0.0528
  150DOPC  H12A17865   4.502   1.093  17.829  1.2938  0.8117  1.4776
  150DOPC  H12B17866   4.392   1.206  17.887  1.8720  0.6380 -1.0160
  150DOPC   C1317867   4.369   1.098  18.149 -0.5799 -0.4543  0.3847
  150DOPC  H13A17868   4.406   1.107  18.250 -0.7995 -1.4459  0.5565
  150DOPC  H13B17869   4.292   1.165  18.114 -1.6817 -2.6516 -1.6204
  150DOPC  H13C17870   4.320   1.002  18.149 -0.9350 -0.2830 -0.8537
  150DOPC   C1417871   4.572   1.225  18.073 -0.2490 -0.3812 -0.1396
  150DOPC  H14A17872   4.654   1.226  18.003 -0.2454 -2.7896 -0.2604
  150DOPC  H14B17873   4.518   1.318  18.058 -0.2229 -0.5871 -1.5741
  150DOPC  H14C17874   4.626   1.218  18.166  1.3913 -1.3069 -1.1281
  150DOPC   C1517875   4.565   0.981  18.065 -0.0278  0.1463  0.0038
  150DOPC  H15A17876   4.609   0.983  18.164  1.3737 -3.8137 -0.3635
  150DOPC  H15B17877   4.644   0.975  17.992  0.2391 -1.3054  0.3855
  150DOPC  H15C17878   4.501   0.896  18.049  0.0405  0.3227 -1.3449
  150DOPC   C1117879   4.314   1.007  17.857 -0.6685  0.1350  0.4519
  150DOPC  H11A17880   4.218   1.039  17.903 -1.7449  0.8606 -2.0785
  150DOPC  H11B17881   4.275   1.014  17.753  0.5637 -1.7776 -0.1962
  150DOPC     P17882   4.417   0.777  17.798  0.3611 -0.2191  0.3748
  150DOPC   O1317883   4.404   0.647  17.866 -0.2655  0.3739 -0.3941
  150DOPC   O1417884   4.555   0.826  17.766  0.4512  0.3694 -0.0264
  150DOPC   O1217885   4.349   0.878  17.895  0.2929 -0.2184 -0.0733
  150DOPC   O1117886   4.329   0.769  17.665 -0.7489  0.0694  0.0308
  150DOPC    C117887   4.361   0.836  17.549 -0.2925 -0.0924 -0.0995
  150DOPC    HA17888   4.396   0.938  17.573  0.0594 -0.1536 -0.3488
  150DOPC    HB17889   4.269   0.851  17.488 -0.3561 -0.4095 -0.0834
  150DOPC    C217890   4.456   0.760  17.450  0.5377 -0.3323  0.2443
  150DOPC    HS17891   4.557   0.762  17.495  0.8606 -0.9986 -0.4320
  150DOPC   O2117892   4.456   0.825  17.318  0.2351 -0.0403  0.5007
  150DOPC   C2117893   4.548   0.921  17.298 -0.5069 -0.8674 -0.0743
  150DOPC   O2217894   4.628   0.959  17.384 -0.3337  0.1786 -0.3580
  150DOPC   C2217895   4.553   0.969  17.149 -0.2595 -0.1603  0.8626
  150DOPC   H2R17896   4.545   0.881  17.082  0.6288  0.4076 -0.0162
  150DOPC   H2S17897   4.653   1.012  17.128 -0.9625  0.8423 -0.5649
  150DOPC    C317898   4.426   0.608  17.433  0.2642 -0.0568  0.9162
  150DOPC    HX17899   4.436   0.548  17.526  0.9841  0.8240  1.4199
  150DOPC    HY17900   4.504   0.578  17.360 -1.5732 -1.5744 -0.5215
  150DOPC   O3117901   4.303   0.577  17.365 -0.2632 -0.0443 -0.2731
  150DOPC   C3117902   4.270   0.451  17.367  0.1757 -0.0352 -0.2433
  150DOPC   O3217903   4.338   0.361  17.414 -0.2881  0.6836 -0.6411
  150DOPC   C3217904   4.131   0.431  17.311 -0.3132 -0.0584  0.3273
  150DOPC   H2X17905   4.064   0.475  17.389 -0.4975 -0.1088  0.1977
  150DOPC   H2Y17906   4.128   0.499  17.224 -1.5219 -0.6574 -0.1292
  150DOPC   C2317907   4.442   1.072  17.101  0.1247  0.1098  0.1775
  150DOPC   H3R17908   4.468   1.179  17.115 -0.6217  0.2716  0.3694
  150DOPC   H3S17909   4.344   1.066  17.154  0.7542  2.1485  1.6794
  150DOPC   C2417910   4.406   1.045  16.951  0.6117  0.5204  0.1018
  150DOPC   H4R17911   4.311   1.098  16.928  0.0091 -0.6703 -0.2915
  150DOPC   H4S17912   4.369   0.940  16.955 -0.8393  0.9942 -0.1760
  150DOPC   C2517913   4.520   1.084  16.858  0.0025 -0.0729 -0.1636
  150DOPC   H5R17914   4.618   1.040  16.887  0.2418  1.1251  0.9713
  150DOPC   H5S17915   4.541   1.193  16.868  1.2005 -0.5025  5.8433
  150DOPC   C2617916   4.485   1.058  16.710 -0.0782  0.4346  0.3895
  150DOPC   H6R17917   4.448   0.956  16.686 -1.5670  1.0747 -0.1427
  150DOPC   H6S17918   4.579   1.093  16.661  0.6799 -1.0647  0.7186
  150DOPC   C2717919   4.378   1.153  16.654  0.3971  0.3176  0.2475
  150DOPC   H7R17920   4.391   1.258  16.689  0.0906  0.8897 -1.2438
  150DOPC   H7S17921   4.276   1.131  16.694  0.1964 -2.0616 -1.3853
  150DOPC   C2817922   4.376   1.150  16.501  0.1254  0.2907  0.3009
  150DOPC   H8R17923   4.465   1.204  16.462  0.1811  2.0135  2.5748
  150DOPC   H8S17924   4.286   1.207  16.472 -0.3804 -0.5610  0.1726
  150DOPC   C2917925   4.366   1.014  16.437  0.4311  0.5005  0.2315
  150DOPC   H9R17926   4.343   0.935  16.510 -1.1131  0.8709  0.1707
  150DOPC  C21017927   4.369   0.997  16.302  0.2124  1.1178  0.2822
  150DOPC  H10R17928   4.368   0.891  16.270 -1.9382  1.3504 -0.5784
  150DOPC  C21117929   4.387   1.103  16.201 -0.2477  0.2615  0.2165
  150DOPC  H11R17930   4.441   1.192  16.240 -0.3928  0.5185 -0.1692
  150DOPC  H11S17931   4.284   1.133  16.175 -0.3438  0.8021  1.1529
  150DOPC  C21217932   4.457   1.056  16.073  0.8237 -0.1124 -0.0653
  150DOPC  H12R17933   4.410   0.968  16.025  1.7039 -1.8634  2.0741
  150DOPC  H12S17934   4.560   1.017  16.091  0.9245 -1.3466 -2.8802
  150DOPC  C21317935   4.476   1.169  15.975  0.5893 -0.1143 -0.1000
  150DOPC  H13R17936   4.576   1.165  15.927  0.5856  2.7423 -0.4960
  150DOPC  H13S17937   4.489   1.267  16.025 -2.0382  1.6361 -2.5817
  150DOPC  C21417938   4.363   1.181  15.875  0.5583 -0.8814 -0.7673
  150DOPC  H14R17939   4.282   1.239  15.924  0.3124 -0.9309 -1.1157
  150DOPC  H14S17940   4.316   1.083  15.853 -3.5720  0.1585  2.2497
  150DOPC  C21517941   4.400   1.264  15.746 -0.2948  0.3758  0.1378
  150DOPC  H15R17942   4.493   1.228  15.697 -0.1413  1.2552 -0.2164
  150DOPC  H15S17943   4.418   1.362  15.794  0.6074 -0.6641  2.0709
  150DOPC  C21617944   4.283   1.277  15.649 -0.6594 -0.3000  0.4155
  150DOPC  H16R17945   4.198   1.288  15.720 -0.3741 -1.6535  1.0068
  150DOPC  H16S17946   4.264   1.177  15.604 -0.9573 -0.5520  1.0809
  150DOPC  C21717947   4.283   1.398  15.549 -0.2662  0.3126 -0.0433
  150DOPC  H17R17948   4.299   1.488  15.612 -1.3131 -2.1440  4.0671
  150DOPC  H17S17949   4.180   1.410  15.507 -0.3381  1.2965  0.3830
  150DOPC  C21817950   4.365   1.385  15.417 -0.0558  0.2336 -0.0226
  150DOPC  H18R17951   4.462   1.437  15.430  1.3125 -2.3584  0.9230
  150DOPC  H18S17952   4.301   1.427  15.337 -1.3560 -0.5777  0.5523
  150DOPC  H18T17953   4.385   1.277  15.402  3.1472  0.4315  1.8899
  150DOPC   C3317954   4.097   0.283  17.278 -0.1049 -0.2315 -0.1174
  150DOPC   H3X17955   3.990   0.282  17.250 -0.1287  0.4942 -0.0675
  150DOPC   H3Y17956   4.107   0.206  17.358  1.6034 -0.5764 -0.6191
  150DOPC   C3417957   4.176   0.243  17.153  0.8371 -0.1354  0.2924
  150DOPC   H4X17958   4.162   0.137  17.125 -2.0351  0.1852  0.2610
  150DOPC   H4Y17959   4.283   0.262  17.179  0.7330  1.6709 -0.4941
  150DOPC   C3517960   4.119   0.309  17.032  0.0946 -0.3884 -0.3617
  150DOPC   H5X17961   4.105   0.419  17.046  0.7168 -0.4930  1.2253
  150DOPC   H5Y17962   4.020   0.265  17.006 -0.2505 -0.1318  0.4820
  150DOPC   C3617963   4.204   0.303  16.901  0.1198  0.6008  0.4041
  150DOPC   H6X17964   4.134   0.323  16.817  0.8276 -0.7357 -0.5522
  150DOPC   H6Y17965   4.282   0.379  16.920 -0.2944  0.6543  1.9999
  150DOPC   C3717966   4.290   0.177  16.902  0.5336 -0.0031 -0.0780
  150DOPC   H7X17967   4.375   0.193  16.972  0.2352  2.9789 -0.2524
  150DOPC   H7Y17968   4.222   0.099  16.942 -0.9059  1.7718  1.0967
  150DOPC   C3817969   4.317   0.139  16.755 -0.2712 -0.7275  0.2754
  150DOPC   H8X17970   4.225   0.154  16.695  0.6795 -0.2134 -1.1026
  150DOPC   H8Y17971   4.341   0.031  16.746 -2.8004 -1.3117 -0.2996
  150DOPC   C3917972   4.431   0.217  16.693 -0.5000 -0.2668 -0.2947
  150DOPC   H9X17973   4.511   0.239  16.765  0.6453 -1.2431 -1.2381
  150DOPC  C31017974   4.466   0.230  16.566 -0.0883  0.9364  0.1082
  150DOPC  H10X17975   4.553   0.291  16.538  0.6344 -0.5396 -0.9783
  150DOPC  C31117976   4.367   0.196  16.450 -0.0617  0.5223 -0.4498
  150DOPC  H11X17977   4.369   0.290  16.390 -0.2725  2.4996  2.4445
  150DOPC  H11Y17978   4.265   0.189  16.491 -0.1603 -1.3241 -0.9211
  150DOPC  C31217979   4.408   0.075  16.364 -0.6470  0.0127 -0.1338
  150DOPC  H12X17980   4.324   0.028  16.308 -0.3246  0.2428 -0.8314
  150DOPC  H12Y17981   4.441  -0.011  16.426 -1.0663 -1.8763 -2.3858
  150DOPC  C31317982   4.522   0.105  16.264  0.5410  0.0011  0.0581
  150DOPC  H13X17983   4.490   0.200  16.215  0.1069 -0.1362  0.0638
  150DOPC  H13Y17984   4.626   0.125  16.296  0.2518  1.6825  0.0323
  150DOPC  C31417985   4.505   0.004  16.148 -0.5776 -0.8777 -0.3084
  150DOPC  H14X17986   4.551  -0.089  16.188  0.7803 -0.0214  0.1843
  150DOPC  H14Y17987   4.398  -0.011  16.123 -0.3319 -0.7568 -1.4630
  150DOPC  C31517988   4.591   0.039  16.023  0.3479  0.5879 -0.4666
  150DOPC  H15X17989   4.692   0.069  16.057  0.3395 -0.2057  0.3029
  150DOPC  H15Y17990   4.546   0.136  15.990 -0.0507  0.3715 -0.5659
  150DOPC  C31617991   4.599  -0.069  15.914  0.5621 -0.7812  0.2030
  150DOPC  H16X17992   4.618  -0.169  15.958  0.5797 -1.2179 -0.7655
  150DOPC  H16Y17993   4.503  -0.068  15.859  0.6814  0.4216  0.0029
  150DOPC  C31717994   4.717  -0.035  15.819 -1.1713  0.2180 -0.5757
  150DOPC  H17X17995   4.809  -0.033  15.881 -1.1584 -0.4367 -0.5647
  150DOPC  H17Y17996   4.724  -0.126  15.755 -1.8038 -0.0787 -0.2337
  150DOPC  C31817997   4.711   0.096  15.742  0.2609 -0.3865 -0.4705
  150DOPC  H18X17998   4.627   0.096  15.670  0.0698  0.4939 -0.2595
  150DOPC  H18Y17999   4.689   0.180  15.811  1.6883  0.3906 -0.9180
  150DOPC  H18Z18000   4.804   0.112  15.682  1.0343 -0.2440  0.7285
  151DOPC     N18001   0.885   4.793  17.559 -0.0136  0.2419  0.9737
  151DOPC   C1218002   0.770   4.770  17.448  0.2420 -0.0595 -0.9154
  151DOPC  H12A18003   0.683   4.819  17.488  0.4899  0.9434 -1.5753
  151DOPC  H12B18004   0.751   4.663  17.450  0.7025 -0.1322 -0.1883
  151DOPC   C1318005   1.014   4.759  17.501  0.1264 -0.2176  0.9798
  151DOPC  H13A18006   1.017   4.652  17.483 -2.5831  0.1112 -2.4885
  151DOPC  H13B18007   1.028   4.809  17.407  0.3327  1.4611  1.8728
  151DOPC  H13C18008   1.095   4.790  17.566  0.5191  1.5240 -0.2967
  151DOPC   C1418009   0.866   4.721  17.683  0.4308 -0.7145  0.3835
  151DOPC  H14A18010   0.888   4.616  17.669  1.2987 -1.0976  3.7386
  151DOPC  H14B18011   0.930   4.756  17.763  0.4854 -1.6402  0.7582
  151DOPC  H14C18012   0.765   4.713  17.720  0.7356 -1.6675  1.0499
  151DOPC   C1518013   0.886   4.939  17.583  0.5424 -0.6828  0.2768
  151DOPC  H15A18014   0.790   4.970  17.620 -0.0033  0.1059 -1.7009
  151DOPC  H15B18015   0.907   5.002  17.498  3.0015 -0.6361  0.8271
  151DOPC  H15C18016   0.956   4.970  17.660  2.0348  2.5634 -2.1496
  151DOPC   C1118017   0.787   4.817  17.296  0.2374 -0.7384  0.3116
  151DOPC  H11A18018   0.688   4.827  17.246 -0.4073 -1.4071  1.4156
  151DOPC  H11B18019   0.836   4.917  17.298  1.9558 -1.5441  0.9909
  151DOPC     P18020   0.853   4.621  17.141  0.0356  0.2097  0.0108
  151DOPC   O1318021   0.771   4.522  17.217  0.3247 -0.4196  0.0791
  151DOPC   O1418022   0.977   4.561  17.087  0.0127 -0.5870 -0.1405
  151DOPC   O1218023   0.890   4.745  17.230  0.0101 -0.1301 -0.3558
  151DOPC   O1118024   0.774   4.683  17.020 -0.3340  0.1456 -0.4248
  151DOPC    C118025   0.840   4.745  16.909  0.1569  0.0263  0.1695
  151DOPC    HA18026   0.944   4.774  16.936 -0.3047  2.0197 -0.0022
  151DOPC    HB18027   0.787   4.839  16.883  0.0136 -0.6017 -1.9888
  151DOPC    C218028   0.833   4.659  16.786  0.1107  0.4575 -0.4989
  151DOPC    HS18029   0.842   4.721  16.694 -0.0146  0.8773 -0.2264
  151DOPC   O2118030   0.715   4.585  16.774 -0.7423 -0.1150 -0.2122
  151DOPC   C2118031   0.602   4.653  16.746 -0.5042 -0.2388 -0.2941
  151DOPC   O2218032   0.611   4.767  16.704  0.4302 -0.0378  0.7251
  151DOPC   C2218033   0.465   4.585  16.754  0.3378 -0.3787 -1.1791
  151DOPC   H2R18034   0.389   4.663  16.731  1.5213  1.1110 -0.2667
  151DOPC   H2S18035   0.448   4.562  16.862 -1.2345  1.5896 -0.9363
  151DOPC    C318036   0.951   4.551  16.776  0.2482 -0.6620 -0.0641
  151DOPC    HX18037   0.921   4.486  16.861 -0.1677  1.5789  1.6034
  151DOPC    HY18038   1.050   4.587  16.812 -0.2168 -0.5405  1.1384
  151DOPC   O3118039   0.957   4.489  16.642 -0.6093  0.7263 -0.2552
  151DOPC   C3118040   0.882   4.381  16.634 -0.3830 -0.2278 -0.4922
  151DOPC   O3218041   0.814   4.330  16.720  0.2035 -0.1660 -0.8753
  151DOPC   C3218042   0.907   4.319  16.496 -0.1822 -0.3921  0.0651
  151DOPC   H2X18043   0.834   4.238  16.478 -0.9643  0.7538 -2.4258
  151DOPC   H2Y18044   0.879   4.401  16.426  0.9778 -0.5738 -0.6404
  151DOPC   C2318045   0.447   4.461  16.669 -0.0524  0.4391 -0.4650
  151DOPC   H3R18046   0.354   4.426  16.718  1.2287  0.0979  1.8908
  151DOPC   H3S18047   0.520   4.383  16.700 -0.6829  0.0845  0.1716
  151DOPC   C2418048   0.437   4.476  16.518  0.1729 -0.5269 -0.6271
  151DOPC   H4R18049   0.388   4.570  16.486  0.4699 -0.7508 -1.7789
  151DOPC   H4S18050   0.384   4.388  16.475 -1.4729  0.3894 -0.5461
  151DOPC   C2518051   0.574   4.477  16.445 -0.2481  0.1508  0.2397
  151DOPC   H5R18052   0.633   4.396  16.493 -1.3603 -0.5612  0.4249
  151DOPC   H5S18053   0.607   4.583  16.449 -0.0174  0.1702 -1.4617
  151DOPC   C2618054   0.545   4.458  16.294  0.0378  0.0093 -0.1949
  151DOPC   H6R18055   0.478   4.542  16.266 -1.1520 -0.3305  1.4307
  151DOPC   H6S18056   0.486   4.366  16.276 -0.2241  0.4005 -1.4314
  151DOPC   C2718057   0.671   4.456  16.206  0.5025  0.5906 -0.5111
  151DOPC   H7R18058   0.748   4.384  16.237 -0.8643 -0.9588 -0.5856
  151DOPC   H7S18059   0.725   4.552  16.224 -0.6788  0.9803  1.1948
  151DOPC   C2818060   0.647   4.420  16.057 -0.0046 -0.7741  0.7432
  151DOPC   H8R18061   0.599   4.322  16.035 -0.3095 -0.3377 -0.6353
  151DOPC   H8S18062   0.745   4.401  16.008 -0.8077  0.1620 -1.3247
  151DOPC   C2918063   0.578   4.534  15.998  0.0859  0.8504 -0.4345
  151DOPC   H9R18064   0.530   4.599  16.072 -0.9982 -0.2754 -0.1209
  151DOPC  C21018065   0.564   4.550  15.864 -0.0438 -0.3224 -0.7194
  151DOPC  H10R18066   0.501   4.630  15.823 -2.3669 -2.0970 -0.8101
  151DOPC  C21118067   0.623   4.475  15.754  0.0419 -0.3080  0.0805
  151DOPC  H11R18068   0.650   4.370  15.779  1.5530  0.2171  0.7566
  151DOPC  H11S18069   0.713   4.529  15.718 -0.4372 -1.8428 -3.9497
  151DOPC  C21218070   0.520   4.469  15.634 -0.3693 -0.1640  0.3893
  151DOPC  H12R18071   0.495   4.575  15.613 -0.6790 -0.4088 -0.5201
  151DOPC  H12S18072   0.437   4.402  15.668 -0.2777 -1.3338 -1.5303
  151DOPC  C21318073   0.596   4.411  15.506  0.1582  0.3143  0.5792
  151DOPC  H13R18074   0.626   4.306  15.526  0.8762  0.2530 -0.7076
  151DOPC  H13S18075   0.690   4.471  15.503  0.2861  0.0738 -0.7238
  151DOPC  C21418076   0.529   4.436  15.372  0.2755 -0.2750 -0.2629
  151DOPC  H14R18077   0.501   4.541  15.350 -0.4865 -0.5699 -0.7354
  151DOPC  H14S18078   0.429   4.389  15.378 -0.1035  0.3645 -1.3867
  151DOPC  C21518079   0.611   4.375  15.260  0.2630 -0.0435  0.1072
  151DOPC  H15R18080   0.542   4.352  15.176 -1.9460 -1.2810  2.1380
  151DOPC  H15S18081   0.658   4.280  15.294  2.0801  2.2226  4.7105
  151DOPC  C21618082   0.716   4.472  15.205 -0.1131 -0.0187 -0.4346
  151DOPC  H16R18083   0.802   4.489  15.272 -1.3993 -1.0517  1.5828
  151DOPC  H16S18084   0.677   4.575  15.188  1.3636  0.9932  1.8120
  151DOPC  C21718085   0.778   4.413  15.078  0.4693 -0.2796 -0.0465
  151DOPC  H17R18086   0.869   4.469  15.052  2.1221 -2.5447  0.4996
  151DOPC  H17S18087   0.715   4.420  14.987  1.7107  0.8531 -0.8435
  151DOPC  C21818088   0.823   4.265  15.087  0.1224  0.2001  0.2569
  151DOPC  H18R18089   0.747   4.195  15.129 -1.5248  0.5928 -1.8576
  151DOPC  H18S18090   0.917   4.248  15.143  1.8097  0.9241 -2.2129
  151DOPC  H18T18091   0.851   4.236  14.983 -0.2007  0.7350  0.0139
  151DOPC   C3318092   1.050   4.257  16.469  0.1237  0.1530  0.1260
  151DOPC   H3X18093   1.065   4.162  16.525  1.8295  0.4364  0.2089
  151DOPC   H3Y18094   1.124   4.330  16.508  1.3100 -1.8703  1.9178
  151DOPC   C3418095   1.061   4.215  16.322 -0.0799 -0.3204  0.6116
  151DOPC   H4X18096   1.161   4.175  16.294  0.1879  0.8845 -0.2120
  151DOPC   H4Y18097   1.050   4.304  16.256  1.1931 -1.3499 -1.0639
  151DOPC   C3518098   0.968   4.108  16.266 -0.7729 -0.0412  0.1652
  151DOPC   H5X18099   0.863   4.129  16.297 -0.6537 -0.3649  0.8195
  151DOPC   H5Y18100   1.001   4.018  16.323 -4.0140 -0.2486  1.9733
  151DOPC   C3618101   0.989   4.082  16.118  0.0207  0.6221 -0.0167
  151DOPC   H6X18102   1.097   4.072  16.094 -0.4016 -1.0374 -1.4468
  151DOPC   H6Y18103   0.943   3.983  16.095  0.8538  0.4286 -0.9311
  151DOPC   C3718104   0.926   4.190  16.027 -0.0833 -0.8286 -0.2839
  151DOPC   H7X18105   0.817   4.197  16.048  0.1310 -0.7097  0.8581
  151DOPC   H7Y18106   0.973   4.284  16.063 -1.5057 -0.0644 -0.3665
  151DOPC   C3818107   0.950   4.140  15.885  0.0815  0.5102 -0.4508
  151DOPC   H8X18108   0.868   4.066  15.869  0.5122  0.6498 -3.8662
  151DOPC   H8Y18109   1.044   4.083  15.873  0.2668  0.9379 -1.0352
  151DOPC   C3918110   0.934   4.239  15.774 -0.7745 -0.0943 -0.1723
  151DOPC   H9X18111   0.913   4.343  15.805  0.6231 -0.1395  1.0608
  151DOPC  C31018112   0.933   4.207  15.641 -0.3485  0.3056 -0.5556
  151DOPC  H10X18113   0.925   4.289  15.568 -0.5220 -0.0646 -0.9623
  151DOPC  C31118114   0.942   4.067  15.586  0.5024  0.0660  0.0677
  151DOPC  H11X18115   0.905   3.991  15.658 -1.8244  0.8280 -0.2333
  151DOPC  H11Y18116   1.043   4.045  15.544  0.4037  3.9575 -2.7219
  151DOPC  C31218117   0.841   4.063  15.471 -0.1136  0.3716 -0.2222
  151DOPC  H12X18118   0.880   4.118  15.382  3.9824 -4.1093 -1.6341
  151DOPC  H12Y18119   0.741   4.105  15.496 -0.1721  0.0741  0.0470
  151DOPC  C31318120   0.803   3.919  15.429 -0.3089  0.4697 -0.0532
  151DOPC  H13X18121   0.892   3.870  15.384 -0.9064  1.1854 -2.1489
  151DOPC  H13Y18122   0.748   3.862  15.507 -1.0112  0.5419 -0.4946
  151DOPC  C31418123   0.702   3.920  15.307  0.0882  0.5230  0.1789
  151DOPC  H14X18124   0.608   3.969  15.339  0.7732  1.8386  0.2481
  151DOPC  H14Y18125   0.761   3.980  15.234  0.7122 -1.0411 -0.6586
  151DOPC  C31518126   0.671   3.774  15.266 -0.0784  0.3621  0.3768
  151DOPC  H15X18127   0.669   3.722  15.364  2.8068  2.7917  1.8824
  151DOPC  H15Y18128   0.756   3.732  15.208  0.2629  0.4414  0.8170
  151DOPC  C31618129   0.553   3.757  15.170 -1.2555 -0.7136  0.6191
  151DOPC  H16X18130   0.548   3.650  15.140 -1.3699 -0.6701  0.4837
  151DOPC  H16Y18131   0.453   3.791  15.205 -0.8672  1.6634 -0.4042
  151DOPC  C31718132   0.561   3.834  15.038  0.0625 -0.9813  0.0098
  151DOPC  H17X18133   0.510   3.932  15.046 -1.6454 -1.9576  1.9749
  151DOPC  H17Y18134   0.668   3.845  15.010 -0.2977  1.1292 -0.6894
  151DOPC  C31818135   0.492   3.763  14.916  0.2508 -0.0544 -0.9847
  151DOPC  H18X18136   0.498   3.825  14.824 -3.2444  2.3336  0.1916
  151DOPC  H18Y18137   0.541   3.664  14.905  1.1921  0.2809  0.0216
  151DOPC  H18Z18138   0.384   3.743  14.935 -0.3598 -1.0170 -4.6020
  152DOPC     N18139   3.284   2.218  17.010  0.4905  0.1516 -0.3822
  152DOPC   C1218140   3.315   2.252  17.149 -0.2793 -0.1725 -0.8463
  152DOPC  H12A18141   3.366   2.172  17.200 -0.2869  1.4772  1.9121
  152DOPC  H12B18142   3.221   2.266  17.200  1.1260 -2.6499  2.8075
  152DOPC   C1318143   3.405   2.205  16.934  0.4022 -0.5038 -0.3413
  152DOPC  H13A18144   3.457   2.299  16.927  2.6363 -1.3429  2.8788
  152DOPC  H13B18145   3.476   2.143  16.987  1.6554  2.8726  2.2756
  152DOPC  H13C18146   3.390   2.165  16.834 -0.5321 -1.5860  0.2045
  152DOPC   C1418147   3.193   2.320  16.946 -0.1783 -0.0499  0.1126
  152DOPC  H14A18148   3.090   2.322  16.980 -0.6299 -1.5205 -1.0403
  152DOPC  H14B18149   3.241   2.416  16.952  0.3578 -0.4129  2.2999
  152DOPC  H14C18150   3.193   2.281  16.845 -1.7981  0.2323 -0.0320
  152DOPC   C1518151   3.214   2.086  17.013  0.1808  0.0207 -0.1970
  152DOPC  H15A18152   3.110   2.089  17.042  0.5022 -0.3911  1.0653
  152DOPC  H15B18153   3.254   2.034  17.098  0.1123  1.6067  0.8374
  152DOPC  H15C18154   3.233   2.028  16.923 -0.6532 -1.4986  0.5678
  152DOPC   C1118155   3.402   2.377  17.182 -0.7195  0.2972  0.8126
  152DOPC  H11A18156   3.409   2.387  17.292 -1.2038  1.8891  0.7303
  152DOPC  H11B18157   3.502   2.348  17.143 -0.0705 -0.8795  3.1894
  152DOPC     P18158   3.440   2.606  17.061 -0.1674  0.0255 -0.9451
  152DOPC   O1318159   3.583   2.559  17.066  0.0986  0.7022  0.3794
  152DOPC   O1418160   3.411   2.742  17.125  0.1772  0.5339  0.3870
  152DOPC   O1218161   3.351   2.494  17.130 -0.0883 -0.0509 -0.4730
  152DOPC   O1118162   3.391   2.607  16.916 -0.1104 -0.4198 -0.2550
  152DOPC    C118163   3.490   2.581  16.816 -0.2202  0.0526 -0.2646
  152DOPC    HA18164   3.501   2.472  16.798 -0.3382  0.4506 -3.4225
  152DOPC    HB18165   3.587   2.630  16.841  0.0406 -2.0070  3.3572
  152DOPC    C218166   3.438   2.625  16.671 -0.0619 -0.7226  0.2900
  152DOPC    HS18167   3.329   2.602  16.673 -0.2650  0.1860  0.0829
  152DOPC   O2118168   3.491   2.541  16.564  0.6691 -0.4339 -0.5961
  152DOPC   C2118169   3.431   2.421  16.547 -0.3845  0.0843  0.3775
  152DOPC   O2218170   3.342   2.370  16.617 -0.9369 -0.0239 -0.1040
  152DOPC   C2218171   3.469   2.364  16.411 -0.4444 -0.1706  0.4861
  152DOPC   H2R18172   3.559   2.301  16.429  0.5906  0.6928 -1.3735
  152DOPC   H2S18173   3.501   2.447  16.344  1.2691 -0.5217  0.8257
  152DOPC    C318174   3.451   2.783  16.644 -0.3968 -0.8259 -0.7376
  152DOPC    HX18175   3.561   2.798  16.643 -0.4811  1.5194  3.6009
  152DOPC    HY18176   3.410   2.836  16.732  0.1522 -0.9110 -0.4278
  152DOPC   O3118177   3.393   2.820  16.520 -0.1913  0.2066 -0.4205
  152DOPC   C3118178   3.255   2.830  16.516  0.1806 -0.3756  0.2860
  152DOPC   O3218179   3.179   2.797  16.604 -0.2139 -0.4398  0.0137
  152DOPC   C3218180   3.228   2.876  16.368  0.6422 -0.2107 -0.5838
  152DOPC   H2X18181   3.117   2.880  16.356  0.1997 -1.1923  2.4485
  152DOPC   H2Y18182   3.272   2.977  16.360  0.7236 -0.3723 -2.8051
  152DOPC   C2318183   3.358   2.281  16.346 -0.0391  0.7040  0.3920
  152DOPC   H3R18184   3.263   2.337  16.333  0.0080  0.2899 -2.4783
  152DOPC   H3S18185   3.332   2.193  16.409  1.5403 -0.5859 -0.6412
  152DOPC   C2418186   3.406   2.236  16.206  0.0829  0.1540  0.2285
  152DOPC   H4R18187   3.493   2.168  16.219 -0.4086 -0.6577 -0.6116
  152DOPC   H4S18188   3.435   2.327  16.150 -0.5425  0.7076  0.7864
  152DOPC   C2518189   3.305   2.158  16.121 -0.5270 -0.2234  0.5152
  152DOPC   H5R18190   3.205   2.203  16.143  0.4867  1.8018  1.3335
  152DOPC   H5S18191   3.301   2.050  16.144 -1.8876 -0.2590  0.2217
  152DOPC   C2618192   3.348   2.163  15.974 -0.1062  0.6721  0.1499
  152DOPC   H6R18193   3.292   2.086  15.916  1.5626 -0.4715 -0.0161
  152DOPC   H6S18194   3.449   2.119  15.958  0.4347  1.3341  1.6140
  152DOPC   C2718195   3.329   2.298  15.914 -0.9051 -0.3429 -0.0900
  152DOPC   H7R18196   3.414   2.368  15.925  0.9476 -2.2710 -1.2914
  152DOPC   H7S18197   3.242   2.345  15.966  1.0677  1.5801  1.6426
  152DOPC   C2818198   3.289   2.290  15.767  0.1582  0.3028  0.4922
  152DOPC   H8R18199   3.251   2.385  15.723 -1.9785 -1.1268 -0.9152
  152DOPC   H8S18200   3.214   2.209  15.757  1.5424 -0.9002 -0.6084
  152DOPC   C2918201   3.411   2.246  15.694  0.0774 -0.3425  0.4040
  152DOPC   H9R18202   3.492   2.321  15.702 -0.9165  0.6801  1.1946
  152DOPC  C21018203   3.426   2.139  15.616 -0.4172 -1.0916  0.2069
  152DOPC  H10R18204   3.521   2.117  15.566  0.4298  2.0945  0.2339
  152DOPC  C21118205   3.312   2.056  15.560 -0.4921  0.3228  0.1945
  152DOPC  H11R18206   3.208   2.080  15.591 -1.1394 -1.3802 -0.5267
  152DOPC  H11S18207   3.328   1.949  15.586 -2.0769  0.1302  0.4748
  152DOPC  C21218208   3.294   2.069  15.402 -0.5490  0.1982 -0.3253
  152DOPC  H12R18209   3.199   2.013  15.387 -1.0255  1.0506 -0.5173
  152DOPC  H12S18210   3.387   2.017  15.369  0.6608  0.1179  2.8438
  152DOPC  C21318211   3.282   2.207  15.337 -0.3862  0.3364  0.6035
  152DOPC  H13R18212   3.376   2.259  15.366 -1.2030  0.9919  2.1940
  152DOPC  H13S18213   3.205   2.262  15.396 -0.4795  1.0263 -0.1428
  152DOPC  C21418214   3.267   2.195  15.182  0.7336  0.1390  0.3919
  152DOPC  H14R18215   3.170   2.144  15.161  1.7536 -1.3187 -0.9683
  152DOPC  H14S18216   3.347   2.140  15.128  1.4703  2.6081 -1.1751
  152DOPC  C21518217   3.267   2.339  15.125  0.3797 -0.2606 -0.0414
  152DOPC  H15R18218   3.371   2.376  15.137 -0.0542  0.4031  2.0563
  152DOPC  H15S18219   3.192   2.399  15.181  1.3540  2.2716 -1.3237
  152DOPC  C21618220   3.229   2.342  14.977 -0.4269  0.3793  0.3718
  152DOPC  H16R18221   3.146   2.275  14.946  0.0583 -0.2073  0.3245
  152DOPC  H16S18222   3.317   2.298  14.925 -0.6651 -2.2129  1.9817
  152DOPC  C21718223   3.202   2.479  14.914  1.1424 -0.3006 -0.6334
  152DOPC  H17R18224   3.092   2.491  14.907  1.0574 -1.5839 -1.8904
  152DOPC  H17S18225   3.246   2.484  14.813  2.0672  1.5291 -0.1923
  152DOPC  C21818226   3.269   2.594  14.995  0.2461  0.1374  0.0690
  152DOPC  H18R18227   3.243   2.596  15.103 -2.0242 -1.5541 -0.3722
  152DOPC  H18S18228   3.240   2.693  14.954  1.4909  0.9256  1.0313
  152DOPC  H18T18229   3.380   2.592  14.990  0.2258  1.5846 -2.1645
  152DOPC   C3318230   3.274   2.779  16.258  0.2880  0.3382 -0.2900
  152DOPC   H3X18231   3.209   2.689  16.259  0.0382  0.5105 -0.7751
  152DOPC   H3Y18232   3.372   2.740  16.294  0.0064  1.1729  1.4687
  152DOPC   C3418233   3.277   2.838  16.118  0.2384 -0.5140  0.4909
  152DOPC   H4X18234   3.332   2.932  16.095  2.0703 -1.2445  1.6553
  152DOPC   H4Y18235   3.172   2.858  16.089  0.2218 -0.4028  0.6287
  152DOPC   C3518236   3.348   2.748  16.011  0.4414  0.0807 -0.0398
  152DOPC   H5X18237   3.292   2.654  15.990  0.2676  0.5544 -1.8657
  152DOPC   H5Y18238   3.450   2.720  16.046 -0.0149 -2.2568 -0.4337
  152DOPC   C3618239   3.360   2.820  15.877 -0.3330 -0.1321 -0.4103
  152DOPC   H6X18240   3.254   2.851  15.861 -1.0979 -1.5826  1.5270
  152DOPC   H6Y18241   3.424   2.911  15.884 -1.6541  0.9004 -1.1274
  152DOPC   C3718242   3.405   2.739  15.758  0.1896  0.3443  0.3537
  152DOPC   H7X18243   3.516   2.750  15.765  0.3318 -0.8994  0.4723
  152DOPC   H7Y18244   3.378   2.631  15.761 -0.5037  0.5168  0.3335
  152DOPC   C3818245   3.365   2.791  15.619  0.8179 -0.2692 -0.0337
  152DOPC   H8X18246   3.407   2.893  15.607  0.3795  0.4486  3.4840
  152DOPC   H8Y18247   3.255   2.803  15.635  0.9459 -0.5927  1.1722
  152DOPC   C3918248   3.411   2.682  15.521 -0.1862  0.2410 -0.5277
  152DOPC   H9X18249   3.395   2.578  15.552  0.0503  0.4654  0.3593
  152DOPC  C31018250   3.457   2.709  15.401  0.1431  0.0296  0.5194
  152DOPC  H10X18251   3.488   2.624  15.339  0.2697  0.3353  0.1565
  152DOPC  C31118252   3.493   2.840  15.328  0.3640 -0.0236 -0.2120
  152DOPC  H11X18253   3.603   2.849  15.315  0.0174  1.8367 -2.8505
  152DOPC  H11Y18254   3.451   2.931  15.376  0.8262  0.7744 -1.2698
  152DOPC  C31218255   3.433   2.841  15.187 -0.2020 -0.2661  0.3296
  152DOPC  H12X18256   3.323   2.836  15.174 -0.3302  0.8492  0.8700
  152DOPC  H12Y18257   3.463   2.746  15.137 -0.6894 -0.7070  0.8604
  152DOPC  C31318258   3.482   2.970  15.117  1.1789 -0.1506 -0.2725
  152DOPC  H13X18259   3.442   3.057  15.173  0.4406 -1.4721  1.3230
  152DOPC  H13Y18260   3.589   2.975  15.088  1.1464 -0.1205 -0.3892
  152DOPC  C31418261   3.410   2.986  14.978  0.3228 -0.3072 -0.7640
  152DOPC  H14X18262   3.433   2.908  14.902 -0.7370 -1.0711 -0.3233
  152DOPC  H14Y18263   3.303   2.969  15.003  0.7684  1.8399  3.3914
  152DOPC  C31518264   3.432   3.122  14.916  0.4045 -0.5048  0.5360
  152DOPC  H15X18265   3.435   3.193  15.001 -0.8804  1.7457 -1.1833
  152DOPC  H15Y18266   3.343   3.154  14.857  0.3816  1.0089  1.3285
  152DOPC  C31618267   3.562   3.136  14.829  0.6094  0.0417  0.2770
  152DOPC  H16X18268   3.646   3.095  14.888 -1.0571 -0.3049  2.5596
  152DOPC  H16Y18269   3.552   3.063  14.746 -1.5212  1.9657 -1.2743
  152DOPC  C31718270   3.580   3.283  14.764  0.8746  0.3946 -0.2926
  152DOPC  H17X18271   3.497   3.301  14.693 -0.5659  1.2482  1.5170
  152DOPC  H17Y18272   3.555   3.350  14.849 -3.5331  0.7970 -1.6786
  152DOPC  C31818273   3.723   3.299  14.713  0.1052  0.1727 -0.0859
  152DOPC  H18X18274   3.736   3.402  14.672 -2.0881 -0.0190 -1.4292
  152DOPC  H18Y18275   3.791   3.282  14.799  1.0896 -2.4057 -1.2457
  152DOPC  H18Z18276   3.740   3.221  14.636 -5.0456 -1.1706 -0.1624
  153DOPC     N18277   4.972   6.607  17.723 -0.5479  0.6323 -0.3820
  153DOPC   C1218278   4.979   6.730  17.626 -0.4010 -0.3752 -0.1777
  153DOPC  H12A18279   4.918   6.706  17.540  0.4001  0.1036 -0.8999
  153DOPC  H12B18280   5.080   6.741  17.589 -0.7237  2.8689 -0.3902
  153DOPC   C1318281   5.079   6.606  17.824 -0.4099  0.5545 -0.1319
  153DOPC  H13A18282   5.075   6.695  17.886 -2.6627  0.3297  0.1559
  153DOPC  H13B18283   5.056   6.521  17.887 -0.5848 -0.3059 -1.3126
  153DOPC  H13C18284   5.172   6.589  17.773 -1.5727 -0.9845 -1.8678
  153DOPC   C1418285   4.994   6.479  17.643  0.0038 -0.0501 -0.1414
  153DOPC  H14A18286   4.964   6.387  17.692 -0.5833 -1.1822 -2.4563
  153DOPC  H14B18287   4.927   6.494  17.560 -0.3263 -0.4139  0.0547
  153DOPC  H14C18288   5.094   6.472  17.603  0.4066  0.1457  0.7999
  153DOPC   C1518289   4.843   6.612  17.800 -0.1131 -0.0440  0.3320
  153DOPC  H15A18290   4.759   6.602  17.732 -0.2078  0.2842  0.3996
  153DOPC  H15B18291   4.829   6.712  17.839  1.0180  1.1639 -2.1176
  153DOPC  H15C18292   4.829   6.538  17.877 -2.0795 -0.3916 -0.3014
  153DOPC   C1118293   4.944   6.867  17.681  0.1962  1.2987 -0.7372
  153DOPC  H11A18294   5.001   6.884  17.775  2.2523 -1.0715 -1.4510
  153DOPC  H11B18295   4.967   6.949  17.610 -0.3617  3.1565  1.1252
  153DOPC     P18296   4.693   6.893  17.602 -0.0517  0.3407  0.2410
  153DOPC   O1318297   4.627   7.023  17.610  0.1718  0.4643  0.0060
  153DOPC   O1418298   4.604   6.776  17.603  0.6730  0.0766  0.0194
  153DOPC   O1218299   4.804   6.877  17.712  0.1983  0.2705 -0.2730
  153DOPC   O1118300   4.775   6.888  17.467  0.0491 -0.5635 -0.6597
  153DOPC    C118301   4.746   6.819  17.348 -0.0611  0.2845  0.1464
  153DOPC    HA18302   4.690   6.724  17.365  1.9180 -1.1365 -0.9560
  153DOPC    HB18303   4.839   6.797  17.293  0.7472  0.5299  1.3858
  153DOPC    C218304   4.660   6.902  17.250  0.0406  0.3980  0.5012
  153DOPC    HS18305   4.553   6.889  17.275  0.3275 -1.3520  0.9804
  153DOPC   O2118306   4.679   6.851  17.114  0.1698 -0.2902 -0.1547
  153DOPC   C2118307   4.626   6.734  17.093  0.7895 -0.0457 -0.4707
  153DOPC   O2218308   4.542   6.678  17.159 -0.1708  0.1508 -0.2847
  153DOPC   C2218309   4.682   6.689  16.961 -0.3228  0.6889 -0.3549
  153DOPC   H2R18310   4.775   6.631  16.979 -0.5242  0.0840 -1.1978
  153DOPC   H2S18311   4.698   6.784  16.906 -1.9036  1.6937  0.8310
  153DOPC    C318312   4.689   7.050  17.256 -0.4811 -0.0304  0.3056
  153DOPC    HX18313   4.791   7.057  17.301 -0.8469 -0.9713  1.3277
  153DOPC    HY18314   4.614   7.099  17.322  0.6228  1.7587  0.2972
  153DOPC   O3118315   4.674   7.102  17.118  0.6983 -0.4055  0.2488
  153DOPC   C3118316   4.692   7.231  17.121 -0.0203  1.0212  0.3533
  153DOPC   O3218317   4.703   7.299  17.222 -0.1814 -0.1140 -0.2427
  153DOPC   C3218318   4.694   7.284  16.975  0.2192  1.0541 -0.0149
  153DOPC   H2X18319   4.689   7.394  16.987  0.4451  1.2439 -1.4652
  153DOPC   H2Y18320   4.784   7.243  16.925  0.1735  3.1074 -1.9676
  153DOPC   C2318321   4.585   6.587  16.901 -0.1776 -0.2523  0.3890
  153DOPC   H3R18322   4.490   6.636  16.871 -0.2416 -0.0691  0.8877
  153DOPC   H3S18323   4.553   6.513  16.977 -0.7204 -0.6829 -0.2473
  153DOPC   C2418324   4.650   6.524  16.775  0.4185 -0.2125 -0.6924
  153DOPC   H4R18325   4.748   6.477  16.796  0.5019  0.7065  1.1993
  153DOPC   H4S18326   4.668   6.602  16.699  0.1298 -0.8840 -1.4592
  153DOPC   C2518327   4.564   6.420  16.708 -0.3657  0.2883  0.1370
  153DOPC   H5R18328   4.466   6.469  16.692 -0.0615  0.9237  0.1845
  153DOPC   H5S18329   4.548   6.333  16.776 -0.3456  0.9314  0.9896
  153DOPC   C2618330   4.616   6.368  16.578 -0.0895  0.4282  0.0454
  153DOPC   H6R18331   4.724   6.343  16.574 -0.1547  0.0112  0.7459
  153DOPC   H6S18332   4.598   6.442  16.496 -1.4646 -0.3324 -0.3746
  153DOPC   C2718333   4.536   6.247  16.528 -0.1792  0.9576 -0.0799
  153DOPC   H7R18334   4.427   6.267  16.516 -0.4211  0.7296  1.5172
  153DOPC   H7S18335   4.539   6.170  16.608 -3.2700  0.0141 -0.7315
  153DOPC   C2818336   4.594   6.176  16.403 -0.1537 -0.1306  0.0626
  153DOPC   H8R18337   4.685   6.126  16.443 -0.0940 -0.3951 -0.3925
  153DOPC   H8S18338   4.633   6.251  16.331  2.7140 -1.5729 -0.0238
  153DOPC   C2918339   4.498   6.078  16.339 -0.1497 -0.6785 -0.4890
  153DOPC   H9R18340   4.485   5.979  16.383 -1.9332  0.0124  0.6551
  153DOPC  C21018341   4.418   6.107  16.232  0.7419  0.2013 -1.1868
  153DOPC  H10R18342   4.354   6.028  16.190  0.6062 -0.9954  1.0984
  153DOPC  C21118343   4.414   6.240  16.171  0.0764 -0.6638 -0.1836
  153DOPC  H11R18344   4.442   6.321  16.240 -1.6108  1.0415 -1.3999
  153DOPC  H11S18345   4.309   6.270  16.150  0.7398  2.3968  0.4730
  153DOPC  C21218346   4.513   6.248  16.057 -0.1290 -0.3504  0.2193
  153DOPC  H12R18347   4.617   6.230  16.092  0.5368  2.8753  0.2502
  153DOPC  H12S18348   4.503   6.354  16.024 -1.1814 -0.1661  1.0654
  153DOPC  C21318349   4.483   6.168  15.928  0.5382  0.4042 -0.6162
  153DOPC  H13R18350   4.373   6.160  15.916  0.6773 -1.4723 -0.9213
  153DOPC  H13S18351   4.533   6.069  15.941 -0.3016 -0.3582 -2.8294
  153DOPC  C21418352   4.534   6.230  15.802 -0.2895  0.5602 -0.3664
  153DOPC  H14R18353   4.636   6.256  15.836  0.6377 -1.1082 -1.6899
  153DOPC  H14S18354   4.477   6.322  15.775 -1.3049  0.1659  0.3865
  153DOPC  C21518355   4.552   6.139  15.680 -0.6094 -0.3722  0.0521
  153DOPC  H15R18356   4.571   6.034  15.712  0.6553 -0.6854 -1.6244
  153DOPC  H15S18357   4.633   6.181  15.617  0.6032 -2.2089  0.2966
  153DOPC  C21618358   4.429   6.128  15.586  0.0212  0.8180  0.0362
  153DOPC  H16R18359   4.344   6.120  15.656 -0.0397 -4.2737 -0.2368
  153DOPC  H16S18360   4.449   6.032  15.534 -0.1760  0.8062 -0.0158
  153DOPC  C21718361   4.423   6.242  15.485 -0.3869  0.6734  0.1832
  153DOPC  H17R18362   4.514   6.242  15.422  0.4354 -0.1304  1.3416
  153DOPC  H17S18363   4.426   6.335  15.544  2.8379 -0.4724  2.0898
  153DOPC  C21818364   4.305   6.230  15.390 -0.6013  0.3101  0.2015
  153DOPC  H18R18365   4.325   6.282  15.294  1.1636  1.1764  0.9934
  153DOPC  H18S18366   4.219   6.268  15.450 -0.3996 -0.0726  0.7438
  153DOPC  H18T18367   4.293   6.121  15.370  0.6569  0.0915  0.5594
  153DOPC   C3318368   4.570   7.229  16.895 -0.6985 -0.7439 -0.4673
  153DOPC   H3X18369   4.473   7.267  16.934  0.4682 -0.0071  1.9320
  153DOPC   H3Y18370   4.575   7.118  16.903  1.2619 -0.6664 -0.2355
  153DOPC   C3418371   4.573   7.251  16.743  0.3507  0.3317 -0.8159
  153DOPC   H4X18372   4.477   7.219  16.698  0.4708  0.1485 -0.9446
  153DOPC   H4Y18373   4.660   7.200  16.695  1.0346  0.4727  0.2537
  153DOPC   C3518374   4.594   7.402  16.707 -0.0473  0.5437  0.3438
  153DOPC   H5X18375   4.704   7.415  16.722  0.0764  1.6976 -1.2775
  153DOPC   H5Y18376   4.544   7.479  16.771 -1.0759  1.8817 -1.9527
  153DOPC   C3618377   4.557   7.428  16.566  0.5455  0.3392 -0.4732
  153DOPC   H6X18378   4.447   7.439  16.576  0.8052  0.6975  4.0658
  153DOPC   H6Y18379   4.603   7.524  16.533  1.4420  0.0889  0.0207
  153DOPC   C3718380   4.595   7.319  16.466  0.0014 -0.1147  0.5929
  153DOPC   H7X18381   4.704   7.297  16.477  0.3611  0.1190 -2.0134
  153DOPC   H7Y18382   4.536   7.231  16.499 -0.5082  0.5308  1.4596
  153DOPC   C3818383   4.560   7.360  16.324 -0.2412  0.1385 -0.1984
  153DOPC   H8X18384   4.632   7.440  16.297 -0.9407  0.9210  0.2364
  153DOPC   H8Y18385   4.459   7.404  16.340  0.2273  0.8877  0.8235
  153DOPC   C3918386   4.545   7.246  16.226  0.9174 -0.0173 -0.1486
  153DOPC   H9X18387   4.574   7.148  16.269 -0.3271  1.1230  3.6449
  153DOPC  C31018388   4.479   7.245  16.109 -0.2506 -0.0504 -0.0937
  153DOPC  H10X18389   4.468   7.155  16.046  0.7655 -0.5712  0.4381
  153DOPC  C31118390   4.434   7.375  16.038 -0.0826  0.2566  0.1005
  153DOPC  H11X18391   4.497   7.462  16.065 -1.0305  0.8689  0.3692
  153DOPC  H11Y18392   4.326   7.394  16.055 -0.0376  0.2648  0.3683
  153DOPC  C31218393   4.466   7.360  15.884 -0.4679  0.3724  0.0780
  153DOPC  H12X18394   4.404   7.274  15.851  1.5000 -0.7015 -0.9861
  153DOPC  H12Y18395   4.568   7.329  15.853 -0.5803  0.0080  0.0655
  153DOPC  C31318396   4.418   7.484  15.812 -0.5782  0.1778  1.1527
  153DOPC  H13X18397   4.310   7.501  15.834 -0.2151  0.1345  3.1671
  153DOPC  H13Y18398   4.464   7.573  15.860 -0.5635  0.8751 -0.1148
  153DOPC  C31418399   4.457   7.472  15.665  0.2119  0.5768  0.1679
  153DOPC  H14X18400   4.565   7.450  15.658 -0.0562 -0.4298 -1.2422
  153DOPC  H14Y18401   4.400   7.386  15.624 -0.5608  0.9508  0.4361
  153DOPC  C31518402   4.411   7.594  15.574 -0.4359  0.3998  0.0243
  153DOPC  H15X18403   4.430   7.691  15.623 -1.5973  0.9626 -0.5812
  153DOPC  H15Y18404   4.301   7.584  15.563 -0.2701 -0.7465 -0.7879
  153DOPC  C31618405   4.480   7.593  15.437  0.6667  0.0450  0.4007
  153DOPC  H16X18406   4.587   7.566  15.444  1.0254  1.1497 -0.5216
  153DOPC  H16Y18407   4.425   7.516  15.379  0.1061  0.3628  0.5053
  153DOPC  C31718408   4.471   7.731  15.364  0.0051  0.0592 -0.3646
  153DOPC  H17X18409   4.368   7.771  15.352  0.1895  0.6887  0.0653
  153DOPC  H17Y18410   4.521   7.806  15.430 -0.1186  0.5404 -0.8112
  153DOPC  C31818411   4.541   7.745  15.221 -0.4616 -0.4249  0.3075
  153DOPC  H18X18412   4.474   7.718  15.137  0.2705  1.8128 -1.0681
  153DOPC  H18Y18413   4.574   7.850  15.205 -2.6856  0.1692 -0.7620
  153DOPC  H18Z18414   4.631   7.680  15.227 -1.3933 -1.7507  0.2017
  154DOPC     N18415   5.915   2.993  17.322  0.5713 -0.0953 -0.2453
  154DOPC   C1218416   5.905   3.144  17.300 -0.1193 -0.4307 -0.1147
  154DOPC  H12A18417   6.003   3.177  17.269 -0.4032 -0.8823 -1.5470
  154DOPC  H12B18418   5.879   3.200  17.389 -0.4269  1.0768 -1.1126
  154DOPC   C1318419   6.021   2.952  17.424 -0.5585  1.2879  0.1389
  154DOPC  H13A18420   6.040   2.847  17.411 -0.1356  1.4813 -0.9399
  154DOPC  H13B18421   6.116   2.997  17.401  0.8967 -1.6345 -0.0171
  154DOPC  H13C18422   5.997   2.967  17.528  1.2044 -0.5843  0.8783
  154DOPC   C1418423   5.959   2.925  17.193 -0.1751  0.1925  0.0150
  154DOPC  H14A18424   5.958   2.817  17.199  0.4314  0.1184 -0.9595
  154DOPC  H14B18425   5.897   2.962  17.113 -1.2036 -1.0470  0.2017
  154DOPC  H14C18426   6.063   2.949  17.176 -0.8354  0.9202 -3.8892
  154DOPC   C1518427   5.788   2.940  17.373 -0.5445  0.3609  0.0411
  154DOPC  H15A18428   5.759   3.000  17.458  3.3206 -0.8922  2.5205
  154DOPC  H15B18429   5.783   2.838  17.407  0.8337  0.4090  0.4518
  154DOPC  H15C18430   5.715   2.955  17.295  0.7352  0.9627 -1.0726
  154DOPC   C1118431   5.817   3.204  17.199  0.4044  0.2315  0.6662
  154DOPC  H11A18432   5.832   3.314  17.191 -0.6686  0.5348  2.2363
  154DOPC  H11B18433   5.831   3.151  17.103 -1.4774 -1.5247  1.2854
  154DOPC     P18434   5.587   3.230  17.350  0.0714 -0.0544  0.2604
  154DOPC   O1318435   5.662   3.323  17.436 -0.3694  0.7058 -0.5089
  154DOPC   O1418436   5.530   3.112  17.417  0.0802  0.0054 -0.3577
  154DOPC   O1218437   5.680   3.175  17.225 -0.5150 -0.0213  0.3453
  154DOPC   O1118438   5.465   3.314  17.280  0.2784  0.3335  0.6339
  154DOPC    C118439   5.499   3.395  17.165 -0.5168 -0.5987  0.2040
  154DOPC    HA18440   5.603   3.434  17.169 -0.9825  0.5686  1.3501
  154DOPC    HB18441   5.440   3.489  17.168 -2.0430 -1.5151  0.1197
  154DOPC    C218442   5.463   3.327  17.036  0.2319 -0.0635  0.1437
  154DOPC    HS18443   5.534   3.243  17.020 -1.2077 -1.5965  1.4477
  154DOPC   O2118444   5.460   3.416  16.922 -0.6313  0.3149 -0.1519
  154DOPC   C2118445   5.580   3.436  16.872 -0.3423  0.0156  0.1772
  154DOPC   O2218446   5.684   3.390  16.922  0.0258 -0.1373  0.8640
  154DOPC   C2218447   5.569   3.527  16.745 -0.4245 -0.5677 -0.3053
  154DOPC   H2R18448   5.599   3.629  16.775  0.7227 -1.5611  2.2005
  154DOPC   H2S18449   5.462   3.543  16.721 -0.9272 -1.5254  1.1593
  154DOPC    C318450   5.322   3.245  17.048  0.2481 -1.0780  0.5014
  154DOPC    HX18451   5.241   3.310  17.087 -0.4609 -0.9485 -1.1358
  154DOPC    HY18452   5.341   3.164  17.122 -1.9846 -0.9005  1.3270
  154DOPC   O3118453   5.285   3.186  16.917 -0.1094 -0.3397  0.2491
  154DOPC   C3118454   5.225   3.260  16.827  0.5342  0.3897  0.5166
  154DOPC   O3218455   5.187   3.375  16.845 -0.3504 -0.2802  0.3183
  154DOPC   C3218456   5.216   3.179  16.695  0.5019 -0.0389 -0.2093
  154DOPC   H2X18457   5.306   3.118  16.672  0.7510  0.4735 -0.6136
  154DOPC   H2Y18458   5.145   3.100  16.727 -0.2050  0.9363  0.7120
  154DOPC   C2318459   5.654   3.474  16.628 -0.0149 -0.3491 -0.2450
  154DOPC   H3R18460   5.640   3.364  16.624  1.6799 -0.6216  0.5239
  154DOPC   H3S18461   5.759   3.489  16.660 -0.3522  0.2687  0.6425
  154DOPC   C2418462   5.620   3.536  16.503 -0.4739 -0.1601 -0.3489
  154DOPC   H4R18463   5.625   3.645  16.525 -2.3590 -0.5490  2.6807
  154DOPC   H4S18464   5.524   3.503  16.458 -2.0376  0.4559  2.3195
  154DOPC   C2518465   5.741   3.508  16.408  0.0691  0.4766  0.2652
  154DOPC   H5R18466   5.760   3.400  16.388  1.3236  0.7453 -0.0763
  154DOPC   H5S18467   5.834   3.540  16.461 -1.2078 -0.4418  3.2657
  154DOPC   C2618468   5.737   3.582  16.272  0.4607 -1.0903 -0.4170
  154DOPC   H6R18469   5.835   3.560  16.224  0.8757  0.2973 -0.2564
  154DOPC   H6S18470   5.736   3.690  16.296 -0.3277 -0.8413 -1.5035
  154DOPC   C2718471   5.622   3.545  16.173  0.0325 -0.1730  0.1290
  154DOPC   H7R18472   5.525   3.590  16.205  0.6267  1.2537 -0.0041
  154DOPC   H7S18473   5.613   3.435  16.159  0.4814 -0.1775 -0.1386
  154DOPC   C2818474   5.643   3.627  16.035 -0.0894 -0.8257 -0.7485
  154DOPC   H8R18475   5.742   3.605  15.990 -0.6014  0.7106 -2.7496
  154DOPC   H8S18476   5.640   3.735  16.062 -0.7694 -0.7522 -1.0942
  154DOPC   C2918477   5.527   3.600  15.934  0.0043 -0.1929 -0.8338
  154DOPC   H9R18478   5.425   3.587  15.971  0.5860 -4.3275 -0.2111
  154DOPC  C21018479   5.558   3.608  15.806  0.0325  0.6323 -0.7724
  154DOPC  H10R18480   5.466   3.598  15.746 -2.2223  1.9229  2.1844
  154DOPC  C21118481   5.696   3.621  15.743 -0.1080  0.2620  0.0977
  154DOPC  H11R18482   5.765   3.540  15.772 -0.8175 -0.4227 -0.0902
  154DOPC  H11S18483   5.754   3.711  15.772  0.2375  0.1459 -0.2124
  154DOPC  C21218484   5.694   3.628  15.588 -0.0852  0.1719 -0.3965
  154DOPC  H12R18485   5.647   3.529  15.567 -2.2523  1.1496 -0.4090
  154DOPC  H12S18486   5.801   3.636  15.558  0.6255 -0.1130  1.9127
  154DOPC  C21318487   5.624   3.743  15.520 -0.4341 -0.0064 -0.8846
  154DOPC  H13R18488   5.660   3.839  15.563 -0.5527 -0.1896 -0.3719
  154DOPC  H13S18489   5.514   3.749  15.533 -0.3154 -1.2660  0.9655
  154DOPC  C21418490   5.666   3.738  15.368  0.6667  0.1600  0.4643
  154DOPC  H14R18491   5.641   3.635  15.334 -0.3104  1.5338 -3.4906
  154DOPC  H14S18492   5.775   3.754  15.354  0.6349 -0.8795 -1.3177
  154DOPC  C21518493   5.590   3.821  15.264  0.0498 -0.2513 -0.3543
  154DOPC  H15R18494   5.615   3.928  15.281  2.2205 -0.8541  0.5527
  154DOPC  H15S18495   5.482   3.802  15.279  0.3893 -0.5800  1.9813
  154DOPC  C21618496   5.636   3.793  15.119 -0.1416 -0.3886  0.1092
  154DOPC  H16R18497   5.590   3.698  15.085 -1.6057  0.0489  0.8011
  154DOPC  H16S18498   5.746   3.779  15.119 -0.1581 -0.5363 -0.2663
  154DOPC  C21718499   5.597   3.905  15.022 -0.0094 -0.1005  0.7360
  154DOPC  H17R18500   5.650   3.998  15.053 -1.1225  0.5481  0.7204
  154DOPC  H17S18501   5.488   3.921  15.027  0.0750  0.2119  1.7430
  154DOPC  C21818502   5.640   3.868  14.876 -0.0303  0.2153 -0.5772
  154DOPC  H18R18503   5.559   3.817  14.819  0.0311 -0.6994  0.1395
  154DOPC  H18S18504   5.733   3.808  14.879 -1.5312 -2.2189  0.9396
  154DOPC  H18T18505   5.657   3.956  14.809 -0.6434  0.0791 -0.9272
  154DOPC   C3318506   5.169   3.259  16.573  0.6499 -0.0567 -0.0515
  154DOPC   H3X18507   5.118   3.355  16.594  3.5211  1.1817  1.8537
  154DOPC   H3Y18508   5.096   3.205  16.508 -0.5191  0.6843  0.6075
  154DOPC   C3418509   5.288   3.297  16.482 -0.2880  0.5637 -0.8654
  154DOPC   H4X18510   5.338   3.204  16.445  0.4071 -0.1635  1.7049
  154DOPC   H4Y18511   5.363   3.354  16.541  2.8345 -0.2929 -3.6804
  154DOPC   C3518512   5.262   3.378  16.359  0.7144 -0.5296  0.4981
  154DOPC   H5X18513   5.347   3.394  16.288 -0.2282  0.4027 -0.4599
  154DOPC   H5Y18514   5.247   3.481  16.398  0.9101  0.0891 -0.9997
  154DOPC   C3618515   5.138   3.341  16.269  0.0479  0.9047 -0.2599
  154DOPC   H6X18516   5.158   3.245  16.217 -2.7157 -1.7552  3.1211
  154DOPC   H6Y18517   5.054   3.319  16.338  0.1966 -1.8083 -0.8538
  154DOPC   C3718518   5.099   3.454  16.164 -0.3330 -0.0418 -0.0665
  154DOPC   H7X18519   5.041   3.531  16.220 -0.8717  0.6425 -1.5186
  154DOPC   H7Y18520   5.194   3.490  16.119  0.7571  1.1520  2.9139
  154DOPC   C3818521   5.006   3.398  16.059  0.2381  0.2781  0.3986
  154DOPC   H8X18522   4.963   3.480  15.999  1.9401  0.5616 -0.4832
  154DOPC   H8Y18523   4.921   3.356  16.117  1.3710  0.6885  2.4551
  154DOPC   C3918524   5.071   3.300  15.968 -0.4531  0.2151 -0.4958
  154DOPC   H9X18525   5.119   3.218  16.023 -1.1386  1.3164  1.8962
  154DOPC  C31018526   5.088   3.313  15.834 -0.2491 -0.3383 -0.3439
  154DOPC  H10X18527   5.127   3.232  15.771 -1.3179 -0.9537 -0.2468
  154DOPC  C31118528   5.053   3.440  15.763  0.1750 -0.0748 -0.1382
  154DOPC  H11X18529   5.097   3.524  15.821  0.1839 -0.7591  0.8705
  154DOPC  H11Y18530   4.942   3.440  15.753 -0.0080 -3.7376  0.6499
  154DOPC  C31218531   5.112   3.459  15.624 -0.5513  0.4919 -0.1788
  154DOPC  H12X18532   5.066   3.555  15.593  2.2607  2.0208  0.0539
  154DOPC  H12Y18533   5.075   3.375  15.561  1.2861 -0.7900  0.3484
  154DOPC  C31318534   5.263   3.460  15.624 -0.3530  0.0633  0.0612
  154DOPC  H13X18535   5.294   3.528  15.706 -0.2447 -1.9571  1.8025
  154DOPC  H13Y18536   5.310   3.360  15.634  1.5617  0.9893  0.9931
  154DOPC  C31418537   5.328   3.521  15.498  0.3066  0.6754  0.4604
  154DOPC  H14X18538   5.291   3.624  15.484  1.5880  1.4495  2.3809
  154DOPC  H14Y18539   5.439   3.510  15.496  0.1186 -1.8363 -0.1310
  154DOPC  C31518540   5.297   3.444  15.366 -0.2993 -0.9577  0.3561
  154DOPC  H15X18541   5.188   3.423  15.359 -0.3274 -0.6299 -0.2611
  154DOPC  H15Y18542   5.345   3.345  15.351 -1.0917 -1.0161 -2.1770
  154DOPC  C31618543   5.331   3.535  15.246  0.0548  0.1808  0.4105
  154DOPC  H16X18544   5.277   3.630  15.266 -1.0116 -0.4801  0.7623
  154DOPC  H16Y18545   5.440   3.555  15.248  0.2798 -0.0222 -2.9950
  154DOPC  C31718546   5.280   3.481  15.110  0.5565  1.6387 -0.4116
  154DOPC  H17X18547   5.308   3.373  15.110  1.1708  1.7915 -0.4025
  154DOPC  H17Y18548   5.169   3.477  15.106  0.5306 -0.1240  0.6681
  154DOPC  C31818549   5.335   3.549  14.986  0.3969 -0.3677  0.3943
  154DOPC  H18X18550   5.306   3.654  14.964  0.2519 -0.7696 -1.5104
  154DOPC  H18Y18551   5.445   3.545  14.978  0.2933  0.1339 -2.0118
  154DOPC  H18Z18552   5.303   3.497  14.893  2.7915 -0.9992 -0.1472
  155DOPC     N18553   1.295   3.290  17.313  0.4580 -0.5405  0.4447
  155DOPC   C1218554   1.214   3.170  17.361  0.4992  0.2840 -0.5039
  155DOPC  H12A18555   1.123   3.155  17.304 -0.0747  0.9015  0.2296
  155DOPC  H12B18556   1.200   3.173  17.468 -0.3763 -0.9330 -0.5608
  155DOPC   C1318557   1.327   3.277  17.165  0.7831  0.4333  0.0704
  155DOPC  H13A18558   1.385   3.360  17.127  2.0055 -0.2874  0.3055
  155DOPC  H13B18559   1.384   3.187  17.144 -1.2124 -0.9073  0.0986
  155DOPC  H13C18560   1.232   3.272  17.113 -0.9344  0.0674  3.0264
  155DOPC   C1418561   1.429   3.303  17.385  0.3186  0.1780 -0.6531
  155DOPC  H14A18562   1.498   3.224  17.358 -0.6514 -0.5745 -1.0039
  155DOPC  H14B18563   1.475   3.396  17.356 -0.4158  1.4048  1.8130
  155DOPC  H14C18564   1.414   3.323  17.490 -1.4230  2.6425 -1.2793
  155DOPC   C1518565   1.210   3.411  17.340 -0.7219  0.6472  0.2714
  155DOPC  H15A18566   1.205   3.437  17.444  1.2334  0.9713  0.3144
  155DOPC  H15B18567   1.112   3.392  17.297 -0.1278 -3.8493  0.3576
  155DOPC  H15C18568   1.247   3.490  17.277 -0.5662  2.1046  2.1089
  155DOPC   C1118569   1.280   3.030  17.356 -0.7305 -0.1340 -0.3540
  155DOPC  H11A18570   1.329   3.003  17.260 -1.2606 -0.4273 -0.5482
  155DOPC  H11B18571   1.360   3.032  17.434 -0.5307  2.3340 -0.5518
  155DOPC     P18572   1.079   2.878  17.286 -0.3428 -0.2563 -0.2315
  155DOPC   O1318573   0.965   2.963  17.275  0.4818 -0.1978 -0.2120
  155DOPC   O1418574   1.058   2.733  17.308  0.6244 -0.0293  0.0750
  155DOPC   O1218575   1.176   2.936  17.394  0.8074  0.1085 -0.4311
  155DOPC   O1118576   1.172   2.889  17.153  0.6941  0.6015 -1.0665
  155DOPC    C118577   1.126   2.971  17.046  0.3743  0.0587 -0.3296
  155DOPC    HA18578   1.211   3.005  16.983 -0.1534  0.9698 -0.5740
  155DOPC    HB18579   1.076   3.063  17.083 -1.0993 -0.4766 -0.9209
  155DOPC    C218580   1.020   2.897  16.960  0.2820 -0.8004 -0.0073
  155DOPC    HS18581   0.929   2.884  17.023  1.1125 -0.5650  1.2823
  155DOPC   O2118582   1.082   2.779  16.906  0.0394  0.0297  0.0629
  155DOPC   C2118583   1.019   2.656  16.931 -0.3800 -0.4793 -0.4610
  155DOPC   O2218584   0.927   2.640  17.004  0.1860  0.3360 -0.4316
  155DOPC   C2218585   1.086   2.544  16.850  0.2113 -0.1857  0.8104
  155DOPC   H2R18586   1.010   2.463  16.851 -2.0248  1.7602 -0.1864
  155DOPC   H2S18587   1.181   2.521  16.902  1.7640  0.5935 -1.4950
  155DOPC    C318588   0.975   2.999  16.843 -0.4676  0.0151  0.0383
  155DOPC    HX18589   1.072   3.035  16.803 -0.1599 -0.9845 -0.1626
  155DOPC    HY18590   0.915   3.080  16.888 -0.2148 -0.1202  0.6282
  155DOPC   O3118591   0.899   2.931  16.741 -0.2886  0.1812 -0.1378
  155DOPC   C3118592   0.960   2.912  16.618  0.8667  0.0724  0.0874
  155DOPC   O3218593   1.075   2.928  16.587 -0.3641 -0.2468 -0.1514
  155DOPC   C3218594   0.849   2.865  16.514  0.4921 -0.1580 -0.0756
  155DOPC   H2X18595   0.823   2.758  16.510 -1.9591  0.3650  0.1815
  155DOPC   H2Y18596   0.760   2.926  16.540 -0.3330 -2.3377  2.7784
  155DOPC   C2318597   1.121   2.584  16.706  0.2687 -0.1208 -0.6006
  155DOPC   H3R18598   1.204   2.659  16.710 -0.3506  0.5363  1.3947
  155DOPC   H3S18599   1.041   2.629  16.643 -0.6020 -2.2201 -1.0652
  155DOPC   C2418600   1.178   2.470  16.619  0.2489 -0.2512 -0.2991
  155DOPC   H4R18601   1.106   2.386  16.606  0.0239 -0.2262  0.7416
  155DOPC   H4S18602   1.266   2.433  16.675  0.3329  1.1760  0.5601
  155DOPC   C2518603   1.201   2.537  16.483 -0.0132  0.1269  0.4780
  155DOPC   H5R18604   1.277   2.617  16.497  2.2942 -1.9385  0.2787
  155DOPC   H5S18605   1.103   2.584  16.458 -0.3029  0.6510  2.4238
  155DOPC   C2618606   1.255   2.441  16.378 -0.3190 -0.4104  0.3320
  155DOPC   H6R18607   1.173   2.369  16.359 -1.7439  0.9951  0.9629
  155DOPC   H6S18608   1.349   2.390  16.407  0.7654  0.9412 -0.6578
  155DOPC   C2718609   1.293   2.515  16.250  0.5462  0.2795 -0.4443
  155DOPC   H7R18610   1.379   2.580  16.277  1.6353 -0.7440 -1.3233
  155DOPC   H7S18611   1.213   2.588  16.226 -1.7835 -1.3302  1.8719
  155DOPC   C2818612   1.328   2.418  16.139  0.1846 -0.2367  0.4260
  155DOPC   H8R18613   1.243   2.349  16.121 -0.5071  0.7427 -0.1947
  155DOPC   H8S18614   1.410   2.358  16.184  1.8669  2.5072  1.2552
  155DOPC   C2918615   1.382   2.487  16.021 -0.7656  0.1906  0.1423
  155DOPC   H9R18616   1.306   2.551  15.974 -0.9230 -1.1249 -1.4941
  155DOPC  C21018617   1.501   2.482  15.964 -0.5518  0.0053 -0.4370
  155DOPC  H10R18618   1.528   2.543  15.877 -2.4124 -0.8690 -1.6941
  155DOPC  C21118619   1.617   2.397  16.016  0.7411 -0.2159  0.8318
  155DOPC  H11R18620   1.673   2.343  15.936  1.4186  2.4775 -0.6522
  155DOPC  H11S18621   1.602   2.332  16.104 -1.2742 -1.4215 -0.3377
  155DOPC  C21218622   1.719   2.497  16.075  0.1735 -1.0264 -0.0792
  155DOPC  H12R18623   1.746   2.578  16.003  0.6657  0.5978  1.8415
  155DOPC  H12S18624   1.811   2.440  16.099  1.5883  0.4704 -1.5866
  155DOPC  C21318625   1.672   2.579  16.211 -0.1508  0.5152  0.5644
  155DOPC  H13R18626   1.580   2.641  16.202 -1.7389 -1.6661  0.8440
  155DOPC  H13S18627   1.764   2.641  16.217  0.1764  0.0262  0.6529
  155DOPC  C21418628   1.658   2.495  16.332  0.1511  0.4008 -0.4049
  155DOPC  H14R18629   1.758   2.451  16.353  0.2863  1.5401  1.4867
  155DOPC  H14S18630   1.587   2.412  16.311  1.9325 -1.6093  1.0949
  155DOPC  C21518631   1.621   2.571  16.460  0.4990  0.4804  0.9751
  155DOPC  H15R18632   1.513   2.593  16.449  0.6743  2.1041  2.1066
  155DOPC  H15S18633   1.673   2.668  16.471 -2.4691  2.0112  2.7274
  155DOPC  C21618634   1.639   2.490  16.588  0.0212  0.1061  0.2183
  155DOPC  H16R18635   1.743   2.456  16.609 -0.2388 -0.5023  0.5393
  155DOPC  H16S18636   1.576   2.399  16.584 -0.3049  0.2988  0.8050
  155DOPC  C21718637   1.580   2.566  16.704  0.1068  0.2340 -0.2532
  155DOPC  H17R18638   1.469   2.564  16.707  0.1191 -0.1445 -0.0574
  155DOPC  H17S18639   1.594   2.676  16.694  1.3095  0.2049  0.7517
  155DOPC  C21818640   1.627   2.528  16.849  0.1783  0.1144  0.9727
  155DOPC  H18R18641   1.729   2.571  16.863  1.2177 -2.1806  0.8341
  155DOPC  H18S18642   1.615   2.420  16.868 -0.0443 -0.1235 -0.3864
  155DOPC  H18T18643   1.568   2.584  16.925  0.0397  2.2036 -0.5720
  155DOPC   C3318644   0.869   2.909  16.367 -0.0204 -0.3511  0.7711
  155DOPC   H3X18645   0.881   3.020  16.362 -0.2666 -0.3662 -1.1776
  155DOPC   H3Y18646   0.775   2.881  16.315 -0.1091  0.2884  0.5702
  155DOPC   C3418647   0.982   2.827  16.297 -0.0445 -0.0393 -1.0969
  155DOPC   H4X18648   0.942   2.724  16.301 -0.3968  0.1174 -0.4282
  155DOPC   H4Y18649   1.076   2.826  16.357  0.3442 -1.6107 -1.6869
  155DOPC   C3518650   1.021   2.869  16.157  0.3660 -0.0770 -0.0461
  155DOPC   H5X18651   1.104   2.801  16.128  1.5068  1.2364  0.0303
  155DOPC   H5Y18652   1.074   2.967  16.157 -2.5744  1.8372 -4.4526
  155DOPC   C3618653   0.904   2.877  16.049  0.0737  0.0136  0.1435
  155DOPC   H6X18654   0.857   2.777  16.045 -0.8409  0.2998  2.3315
  155DOPC   H6Y18655   0.823   2.944  16.086  1.8561  1.5000  1.5834
  155DOPC   C3718656   0.968   2.905  15.913 -0.0799  0.0847 -0.6704
  155DOPC   H7X18657   1.037   2.992  15.915 -0.0038  0.0335 -1.0180
  155DOPC   H7Y18658   1.024   2.814  15.886  0.3347  0.1371 -0.0165
  155DOPC   C3818659   0.870   2.928  15.796  0.3185 -0.1334  0.3179
  155DOPC   H8X18660   0.920   2.983  15.714 -2.8281  1.6977 -0.5337
  155DOPC   H8Y18661   0.794   2.997  15.841  1.2396  1.4139 -0.4226
  155DOPC   C3918662   0.810   2.793  15.747 -0.1282 -0.0482  0.1753
  155DOPC   H9X18663   0.776   2.726  15.828  0.6556 -1.7097 -0.8155
  155DOPC  C31018664   0.809   2.744  15.622 -0.8413  0.2395  0.5314
  155DOPC  H10X18665   0.756   2.649  15.606  2.1507 -1.6338  0.9928
  155DOPC  C31118666   0.866   2.792  15.486  0.1433 -0.0645 -0.3487
  155DOPC  H11X18667   0.942   2.725  15.441  2.7706  2.6070 -0.2296
  155DOPC  H11Y18668   0.903   2.897  15.488  0.8449 -0.1643 -3.2089
  155DOPC  C31218669   0.756   2.796  15.379 -0.2470 -0.4287 -0.2662
  155DOPC  H12X18670   0.679   2.871  15.408  0.4110  0.1300  0.0751
  155DOPC  H12Y18671   0.715   2.693  15.371 -0.9457 -0.2248  0.5617
  155DOPC  C31318672   0.813   2.839  15.239  0.3710  0.1428  0.2542
  155DOPC  H13X18673   0.834   2.948  15.231 -0.0310  0.1575 -0.6417
  155DOPC  H13Y18674   0.900   2.771  15.229  0.6333  0.3821  0.8085
  155DOPC  C31418675   0.718   2.809  15.120 -0.3224 -0.2397  0.0594
  155DOPC  H14X18676   0.703   2.704  15.089 -0.5885  0.0531 -0.8472
  155DOPC  H14Y18677   0.617   2.851  15.140 -0.8497 -1.6036  0.3394
  155DOPC  C31518678   0.771   2.885  14.999  0.2614  0.1364 -0.1548
  155DOPC  H15X18679   0.864   2.836  14.964 -0.4326 -1.0403 -0.3989
  155DOPC  H15Y18680   0.791   2.992  15.020  0.5833  0.1083 -0.3092
  155DOPC  C31618681   0.667   2.865  14.883  0.7819  0.1887 -0.2068
  155DOPC  H16X18682   0.629   2.762  14.898 -0.1480  0.6654  0.9061
  155DOPC  H16Y18683   0.580   2.933  14.897  0.5004 -0.4792  1.6554
  155DOPC  C31718684   0.715   2.873  14.736  0.1053  0.8010 -0.4839
  155DOPC  H17X18685   0.758   2.975  14.726 -0.3978  1.2171  1.2424
  155DOPC  H17Y18686   0.803   2.805  14.727 -0.5092 -0.2829  1.1310
  155DOPC  C31818687   0.602   2.852  14.632 -0.7915  0.4127  0.9054
  155DOPC  H18X18688   0.510   2.899  14.674 -0.9972  1.9520 -1.1386
  155DOPC  H18Y18689   0.612   2.899  14.532  1.8312 -1.9523 -0.0763
  155DOPC  H18Z18690   0.584   2.744  14.614 -0.5028  0.4391  0.4494
  156DOPC     N18691   4.170   5.252  17.821 -0.4438  0.0981  0.4109
  156DOPC   C1218692   4.103   5.329  17.713  0.2264 -0.3217  0.1999
  156DOPC  H12A18693   4.019   5.269  17.681  0.3097  0.0229 -0.6983
  156DOPC  H12B18694   4.163   5.337  17.624 -0.6771  0.9485 -0.3192
  156DOPC   C1318695   4.215   5.125  17.765  0.2166 -0.4787 -0.3064
  156DOPC  H13A18696   4.287   5.144  17.687 -0.3856 -0.9484 -0.9862
  156DOPC  H13B18697   4.249   5.063  17.847 -3.6624  0.3251  2.1665
  156DOPC  H13C18698   4.132   5.075  17.718  0.0317  1.7615 -2.5528
  156DOPC   C1418699   4.070   5.227  17.935  0.0709  0.6059 -0.2837
  156DOPC  H14A18700   4.109   5.153  18.002 -1.1294  0.3409  0.1450
  156DOPC  H14B18701   4.041   5.319  17.983  2.2744  1.7492 -0.9841
  156DOPC  H14C18702   3.985   5.180  17.888  2.5519 -2.4072 -2.1763
  156DOPC   C1518703   4.295   5.316  17.875  0.2363 -0.4190 -0.1162
  156DOPC  H15A18704   4.368   5.339  17.799  1.2199  1.2665  1.2829
  156DOPC  H15B18705   4.344   5.253  17.948 -1.4595 -0.7330  0.7967
  156DOPC  H15C18706   4.264   5.409  17.920 -0.0715 -0.4275 -0.3060
  156DOPC   C1118707   4.048   5.475  17.742 -0.5450 -0.4479 -0.2906
  156DOPC  H11A18708   3.999   5.504  17.647 -1.9458 -0.4755  0.4043
  156DOPC  H11B18709   3.977   5.478  17.827  0.0622  4.2214  0.3339
  156DOPC     P18710   4.227   5.631  17.670 -0.0017  0.0913 -0.0715
  156DOPC   O1318711   4.366   5.664  17.697 -0.0865  0.5894  0.1036
  156DOPC   O1418712   4.138   5.738  17.632 -0.0539  0.0650 -0.5507
  156DOPC   O1218713   4.163   5.549  17.783  0.2452  0.5405 -0.0944
  156DOPC   O1118714   4.234   5.528  17.556 -0.1343 -0.2290  0.3096
  156DOPC    C118715   4.181   5.568  17.427  0.1091 -0.3677 -0.3442
  156DOPC    HA18716   4.139   5.670  17.416 -2.9614 -1.8079 -4.4326
  156DOPC    HB18717   4.102   5.494  17.403 -1.0460  0.7237 -0.0121
  156DOPC    C218718   4.294   5.557  17.319 -0.5709 -0.7098  0.3394
  156DOPC    HS18719   4.349   5.652  17.334 -2.9708  0.7621  0.4268
  156DOPC   O2118720   4.225   5.552  17.189 -0.2052  0.7292 -0.1296
  156DOPC   C2118721   4.268   5.644  17.101 -0.8939  0.4982  0.4341
  156DOPC   O2218722   4.359   5.720  17.116 -0.2783 -0.1075 -0.0330
  156DOPC   C2218723   4.164   5.650  16.986 -0.5937  0.3134  0.4125
  156DOPC   H2R18724   4.083   5.723  17.004 -0.4437  1.0909 -1.8101
  156DOPC   H2S18725   4.113   5.551  16.989 -0.7584  0.3617 -0.4315
  156DOPC    C318726   4.390   5.437  17.342  0.4202  0.1100  0.0521
  156DOPC    HX18727   4.311   5.359  17.350 -0.5819  0.6638 -3.0050
  156DOPC    HY18728   4.438   5.443  17.442 -0.8187 -1.9559  0.8294
  156DOPC   O3118729   4.480   5.407  17.223  0.2160  0.3221 -0.2710
  156DOPC   C3118730   4.579   5.484  17.211 -0.4489 -0.4646 -0.1933
  156DOPC   O3218731   4.624   5.562  17.299 -0.5396 -0.1272  0.1102
  156DOPC   C3218732   4.643   5.471  17.077  0.4652  0.1633 -0.1195
  156DOPC   H2X18733   4.743   5.516  17.094  0.0312  1.3282 -0.5487
  156DOPC   H2Y18734   4.641   5.363  17.047  1.3511 -0.1082  0.7536
  156DOPC   C2318735   4.225   5.701  16.856 -0.5567 -0.4665  0.1196
  156DOPC   H3R18736   4.302   5.627  16.824 -0.5077  0.0302 -0.9572
  156DOPC   H3S18737   4.276   5.799  16.871 -0.2050 -0.5451 -0.5189
  156DOPC   C2418738   4.139   5.697  16.730 -0.7144 -0.7993 -0.1155
  156DOPC   H4R18739   4.039   5.744  16.738 -0.6369 -0.4821 -0.8447
  156DOPC   H4S18740   4.118   5.591  16.704 -2.4310 -0.6848  0.6603
  156DOPC   C2518741   4.220   5.758  16.614  0.3683 -0.6357  0.5478
  156DOPC   H5R18742   4.328   5.740  16.631 -0.1659 -2.6455  2.2141
  156DOPC   H5S18743   4.207   5.868  16.627  0.0546 -0.3854 -1.5216
  156DOPC   C2618744   4.167   5.727  16.482 -0.3262 -0.5212  0.3104
  156DOPC   H6R18745   4.061   5.760  16.494  0.3213  1.7523  0.3193
  156DOPC   H6S18746   4.169   5.619  16.459 -3.7316 -0.6837  0.1929
  156DOPC   C2718747   4.232   5.819  16.378 -0.3372 -0.3940 -0.0390
  156DOPC   H7R18748   4.338   5.836  16.407 -0.9937  0.3914  2.0921
  156DOPC   H7S18749   4.175   5.915  16.378  1.7910  0.9454 -1.1732
  156DOPC   C2818750   4.244   5.754  16.234  0.7378 -0.0451 -0.6973
  156DOPC   H8R18751   4.305   5.662  16.240  2.5763  1.0301 -1.7497
  156DOPC   H8S18752   4.297   5.823  16.164  0.0132 -0.0605 -1.2776
  156DOPC   C2918753   4.098   5.722  16.192  0.6951 -0.0509 -0.0841
  156DOPC   H9R18754   4.019   5.732  16.268 -1.1272 -1.2351 -1.7212
  156DOPC  C21018755   4.062   5.686  16.064  0.4515  0.2183  0.1394
  156DOPC  H10R18756   3.958   5.655  16.045  0.5235  0.6960 -1.1963
  156DOPC  C21118757   4.151   5.669  15.950 -0.5575 -0.2903 -0.2900
  156DOPC  H11R18758   4.107   5.581  15.897 -0.5275 -1.1520  1.0855
  156DOPC  H11S18759   4.254   5.643  15.980  0.2458  1.5857 -1.2218
  156DOPC  C21218760   4.157   5.793  15.868 -0.1364 -1.1822  0.1908
  156DOPC  H12R18761   4.220   5.863  15.927 -1.2935  0.1024 -0.0608
  156DOPC  H12S18762   4.055   5.828  15.842  0.1980 -0.9326 -0.8410
  156DOPC  C21318763   4.228   5.767  15.739  0.2281  0.1255 -0.5073
  156DOPC  H13R18764   4.302   5.685  15.750  0.5960  0.5468  0.2662
  156DOPC  H13S18765   4.282   5.859  15.706  0.3760  0.2508  0.0580
  156DOPC  C21418766   4.123   5.730  15.635 -0.5196 -0.4055 -0.2854
  156DOPC  H14R18767   4.068   5.823  15.610 -1.3568 -0.8134  0.0040
  156DOPC  H14S18768   4.051   5.659  15.681  0.8901 -1.0489  1.0184
  156DOPC  C21518769   4.172   5.679  15.504 -0.2189  0.6882  0.0089
  156DOPC  H15R18770   4.087   5.623  15.459  0.6075 -0.4622 -0.1626
  156DOPC  H15S18771   4.253   5.604  15.518 -0.7190  0.3266  1.0571
  156DOPC  C21618772   4.234   5.787  15.411 -0.6149  0.2404 -0.1223
  156DOPC  H16R18773   4.340   5.807  15.436 -1.2046  2.6136  0.7968
  156DOPC  H16S18774   4.179   5.882  15.432  1.7023  1.4215  0.9326
  156DOPC  C21718775   4.219   5.757  15.259 -0.5508  0.0991  0.3362
  156DOPC  H17R18776   4.258   5.846  15.204  1.6886 -1.2450 -0.3700
  156DOPC  H17S18777   4.111   5.762  15.235 -0.5606  0.5316  0.4590
  156DOPC  C21818778   4.295   5.637  15.203  0.0499 -0.0570  0.4826
  156DOPC  H18R18779   4.246   5.540  15.227  2.8225 -1.3338  1.3655
  156DOPC  H18S18780   4.398   5.627  15.243  0.3315 -0.1810 -0.2534
  156DOPC  H18T18781   4.305   5.644  15.092  0.9766 -3.5567  0.2460
  156DOPC   C3318782   4.577   5.560  16.966 -0.0614  0.2346 -0.5277
  156DOPC   H3X18783   4.593   5.668  16.983 -0.8850  0.4640 -1.1699
  156DOPC   H3Y18784   4.468   5.539  16.964 -0.2620  1.2579 -1.1505
  156DOPC   C3418785   4.642   5.525  16.830 -0.1483  0.6854  0.3211
  156DOPC   H4X18786   4.595   5.427  16.809  0.0641  0.5667  0.3922
  156DOPC   H4Y18787   4.753   5.518  16.838 -0.1606 -1.0893 -0.6375
  156DOPC   C3518788   4.608   5.621  16.711  0.3992  0.0430  0.4413
  156DOPC   H5X18789   4.635   5.727  16.727 -3.3268  1.2004  0.1411
  156DOPC   H5Y18790   4.497   5.620  16.707  0.4251  0.0306 -0.4321
  156DOPC   C3618791   4.656   5.576  16.572 -0.0627  0.2215 -0.4372
  156DOPC   H6X18792   4.767   5.581  16.573 -0.0619  0.7840  1.5569
  156DOPC   H6Y18793   4.622   5.475  16.540 -2.4787  0.3055  1.5687
  156DOPC   C3718794   4.611   5.679  16.469 -0.8487 -0.5011 -0.7410
  156DOPC   H7X18795   4.508   5.722  16.475 -0.1934  0.9578  2.2025
  156DOPC   H7Y18796   4.675   5.768  16.488  1.9026 -2.0367 -2.1949
  156DOPC   C3818797   4.659   5.642  16.329  0.6492  0.4470 -0.4677
  156DOPC   H8X18798   4.609   5.547  16.300 -0.4572  0.7320  0.4380
  156DOPC   H8Y18799   4.770   5.636  16.328  0.6158 -1.4318  0.8291
  156DOPC   C3918800   4.621   5.754  16.233  0.0911 -0.1280  0.2210
  156DOPC   H9X18801   4.654   5.850  16.275 -1.1613  0.3691  0.1095
  156DOPC  C31018802   4.579   5.749  16.102 -0.5680 -0.0203 -0.3508
  156DOPC  H10X18803   4.575   5.849  16.056 -2.2187  0.9174  1.6834
  156DOPC  C31118804   4.552   5.628  16.009 -1.4384 -0.4753 -0.5406
  156DOPC  H11X18805   4.444   5.611  16.031 -1.1979 -0.3799  0.7966
  156DOPC  H11Y18806   4.632   5.556  16.034  0.4649  1.2496 -1.3994
  156DOPC  C31218807   4.559   5.671  15.860 -0.0307 -0.3622 -0.1434
  156DOPC  H12X18808   4.499   5.764  15.846 -0.0210 -0.2979  0.2267
  156DOPC  H12Y18809   4.511   5.597  15.794 -1.7040  1.1193 -0.6656
  156DOPC  C31318810   4.699   5.685  15.808 -0.1954 -0.1090 -0.1323
  156DOPC  H13X18811   4.750   5.777  15.842 -0.9407  0.5854 -0.8507
  156DOPC  H13Y18812   4.763   5.606  15.853  1.2806 -0.4862 -2.7144
  156DOPC  C31418813   4.720   5.678  15.654 -0.3785  0.0521  0.1158
  156DOPC  H14X18814   4.828   5.684  15.630 -1.0138  1.4359 -2.7767
  156DOPC  H14Y18815   4.680   5.586  15.607 -0.5486  0.3671 -0.3543
  156DOPC  C31518816   4.653   5.789  15.577  0.2056  0.2454 -0.1070
  156DOPC  H15X18817   4.685   5.889  15.613  2.0544 -0.9600  1.8549
  156DOPC  H15Y18818   4.543   5.779  15.576  0.0215  2.0187 -1.6510
  156DOPC  C31618819   4.693   5.798  15.427  0.3064  0.8520 -0.3585
  156DOPC  H16X18820   4.804   5.804  15.421  0.3512  0.5779  0.1917
  156DOPC  H16Y18821   4.664   5.705  15.374  0.2304 -0.0462  1.2004
  156DOPC  C31718822   4.623   5.910  15.351 -0.5088  0.3036  0.2268
  156DOPC  H17X18823   4.513   5.899  15.335 -0.1273 -0.3730 -2.4893
  156DOPC  H17Y18824   4.645   6.000  15.411 -1.6217 -0.0482  1.1917
  156DOPC  C31818825   4.686   5.941  15.215  0.5965  0.3238 -0.2520
  156DOPC  H18X18826   4.634   6.024  15.163 -1.7165 -1.3658 -0.7879
  156DOPC  H18Y18827   4.796   5.954  15.230  0.5844 -0.1803  0.3137
  156DOPC  H18Z18828   4.669   5.852  15.151  0.9607  0.6773 -0.8564
  157DOPC     N18829   4.815   2.031  17.918  1.0744 -0.6218 -0.0058
  157DOPC   C1218830   4.918   2.086  17.834 -0.3254 -0.1844  0.5249
  157DOPC  H12A18831   5.017   2.059  17.867 -1.0019 -0.8058  2.1632
  157DOPC  H12B18832   4.914   2.193  17.831  0.1567 -0.1805 -0.1414
  157DOPC   C1318833   4.801   1.890  17.888  1.2136  0.4653  0.2931
  157DOPC  H13A18834   4.747   1.874  17.795  0.3441 -1.7909  1.1187
  157DOPC  H13B18835   4.896   1.839  17.888  0.5431 -0.8331  1.5252
  157DOPC  H13C18836   4.736   1.840  17.958 -0.7306  3.6157  0.9227
  157DOPC   C1418837   4.683   2.116  17.907 -1.1832  0.0823 -0.0637
  157DOPC  H14A18838   4.615   2.088  17.986  0.5284 -2.3656  0.6369
  157DOPC  H14B18839   4.710   2.219  17.928  0.0005 -0.5921  2.0231
  157DOPC  H14C18840   4.637   2.096  17.811 -0.4165 -2.1614 -0.0106
  157DOPC   C1518841   4.858   2.032  18.058  0.8552  1.0320 -0.5352
  157DOPC  H15A18842   4.855   2.130  18.103 -0.0153  0.3268  0.9752
  157DOPC  H15B18843   4.956   1.995  18.085  0.3124 -0.1856 -0.1931
  157DOPC  H15C18844   4.782   1.977  18.110 -0.2694 -0.8314 -3.8120
  157DOPC   C1118845   4.908   2.060  17.680 -0.2424  0.2762  1.0115
  157DOPC  H11A18846   5.003   2.086  17.629 -0.6747  0.4858  0.2970
  157DOPC  H11B18847   4.893   1.955  17.649 -1.6061  0.9856 -0.9530
  157DOPC     P18848   4.816   2.297  17.582  0.1596  0.1592  0.0892
  157DOPC   O1318849   4.910   2.364  17.675  0.2917  0.0167  0.5421
  157DOPC   O1418850   4.678   2.360  17.565  0.1285  0.0169  0.0787
  157DOPC   O1218851   4.804   2.147  17.622  0.5093  0.1875  0.5811
  157DOPC   O1118852   4.881   2.287  17.441  0.8143  0.6481  0.0152
  157DOPC    C118853   4.813   2.216  17.340  0.3838  0.7648 -0.9839
  157DOPC    HA18854   4.726   2.157  17.376  0.8713 -0.1237 -1.2120
  157DOPC    HB18855   4.887   2.145  17.295 -0.6653 -1.1346  0.1378
  157DOPC    C218856   4.768   2.315  17.234 -0.4418 -0.2555 -0.2056
  157DOPC    HS18857   4.702   2.394  17.276  1.9467  1.6310  0.2625
  157DOPC   O2118858   4.712   2.245  17.127  0.1075  0.5949  0.7036
  157DOPC   C2118859   4.624   2.313  17.058  0.0420  0.3908 -0.6724
  157DOPC   O2218860   4.589   2.424  17.079 -0.2801 -0.1681 -0.2387
  157DOPC   C2218861   4.575   2.224  16.950  0.0121  0.0880  0.1101
  157DOPC   H2R18862   4.491   2.274  16.896 -2.3104 -2.3657  1.2354
  157DOPC   H2S18863   4.534   2.140  17.010 -1.4109  0.9632  0.4182
  157DOPC    C318864   4.894   2.392  17.181 -0.0029 -0.5903 -0.4791
  157DOPC    HX18865   4.966   2.311  17.160  0.2726 -0.4648 -0.0311
  157DOPC    HY18866   4.933   2.449  17.268 -0.8776 -2.2620  1.0676
  157DOPC   O3118867   4.863   2.473  17.065  0.4365  0.0747 -0.3497
  157DOPC   C3118868   4.825   2.602  17.093 -0.1143  0.4136  0.2800
  157DOPC   O3218869   4.830   2.659  17.201  0.1061  0.5696  0.4032
  157DOPC   C3218870   4.775   2.671  16.969 -0.0043 -0.4617  0.0478
  157DOPC   H2X18871   4.854   2.650  16.894  0.0924  3.7410 -1.3136
  157DOPC   H2Y18872   4.679   2.620  16.945 -1.1185  1.3437  0.4416
  157DOPC   C2318873   4.686   2.165  16.856 -0.8796 -0.1454  0.3566
  157DOPC   H3R18874   4.628   2.083  16.807 -0.9649 -0.5693  1.1459
  157DOPC   H3S18875   4.776   2.125  16.906  0.3043  1.6791 -0.2381
  157DOPC   C2418876   4.728   2.266  16.747 -0.2967  0.0089 -0.1466
  157DOPC   H4R18877   4.787   2.343  16.801  0.5963  0.7969 -2.1620
  157DOPC   H4S18878   4.649   2.319  16.689 -0.4178  0.3480  0.3220
  157DOPC   C2518879   4.820   2.207  16.634  0.4637 -0.6057 -0.1820
  157DOPC   H5R18880   4.806   2.097  16.629  2.2854 -0.8397 -0.6777
  157DOPC   H5S18881   4.923   2.235  16.661 -0.0687  0.3580  0.9393
  157DOPC   C2618882   4.778   2.266  16.502 -0.1425  0.0496  0.3775
  157DOPC   H6R18883   4.853   2.261  16.420 -1.8755  0.1153 -1.2955
  157DOPC   H6S18884   4.759   2.376  16.502 -1.2405 -0.1275  0.4804
  157DOPC   C2718885   4.655   2.196  16.447  0.6135  0.4318 -0.0261
  157DOPC   H7R18886   4.560   2.228  16.494 -0.1145 -1.8592  0.1869
  157DOPC   H7S18887   4.668   2.086  16.457  0.2205  0.2712 -1.1173
  157DOPC   C2818888   4.644   2.218  16.295  0.4742 -0.7653 -0.2227
  157DOPC   H8R18889   4.648   2.327  16.272 -0.8947 -0.6678 -0.0628
  157DOPC   H8S18890   4.541   2.183  16.273 -0.2233  1.5424 -0.9839
  157DOPC   C2918891   4.751   2.140  16.225  0.4563 -0.5930 -0.2259
  157DOPC   H9R18892   4.839   2.107  16.282  0.8883  0.7869 -0.0735
  157DOPC  C21018893   4.736   2.103  16.092 -0.1407 -0.1735 -0.2701
  157DOPC  H10R18894   4.815   2.042  16.045  0.4119  0.2317  0.1312
  157DOPC  C21118895   4.615   2.136  16.012 -0.0129  0.4516 -0.7456
  157DOPC  H11R18896   4.605   2.247  16.011  3.3089  0.8557  0.0374
  157DOPC  H11S18897   4.522   2.103  16.064 -1.9172  3.3574 -2.0135
  157DOPC  C21218898   4.623   2.072  15.872  0.6287 -0.6776 -0.8767
  157DOPC  H12R18899   4.531   2.112  15.824  0.2727  3.2914  2.5190
  157DOPC  H12S18900   4.594   1.965  15.874 -1.3115 -0.1848 -0.7652
  157DOPC  C21318901   4.751   2.094  15.788  0.2929 -0.1755 -0.2226
  157DOPC  H13R18902   4.836   2.028  15.814 -1.3609 -2.3134  0.0050
  157DOPC  H13S18903   4.783   2.200  15.797 -0.8003  0.3163 -1.7064
  157DOPC  C21418904   4.718   2.062  15.636 -0.3348  0.6233 -0.3850
  157DOPC  H14R18905   4.626   2.117  15.610  0.6239  1.9464 -1.1030
  157DOPC  H14S18906   4.707   1.951  15.630 -0.1087  0.4761  1.3350
  157DOPC  C21518907   4.831   2.099  15.540  0.0639  0.4103  1.0208
  157DOPC  H15R18908   4.924   2.055  15.579  0.6734  1.8317  1.2232
  157DOPC  H15S18909   4.833   2.210  15.529 -2.0637  0.3195 -1.4395
  157DOPC  C21618910   4.808   2.034  15.404 -0.2046 -0.2822 -0.1825
  157DOPC  H16R18911   4.836   1.927  15.410 -0.9515 -0.4418  0.5994
  157DOPC  H16S18912   4.874   2.093  15.336 -1.1441  2.1057  0.8600
  157DOPC  C21718913   4.666   2.028  15.344  0.1943 -0.3790  0.0902
  157DOPC  H17R18914   4.601   1.959  15.403  1.9596 -2.0457  0.2087
  157DOPC  H17S18915   4.671   1.978  15.245 -0.2139  0.3526 -0.3086
  157DOPC  C21818916   4.593   2.167  15.303  0.2608 -0.3602  1.1854
  157DOPC  H18R18917   4.618   2.240  15.382 -1.2692 -0.3785  1.7183
  157DOPC  H18S18918   4.483   2.157  15.306  0.1352  0.4158 -0.0670
  157DOPC  H18T18919   4.631   2.207  15.206  0.2730  3.6860  2.6710
  157DOPC   C3318920   4.733   2.819  16.979  0.6074 -0.2025 -0.0711
  157DOPC   H3X18921   4.740   2.856  17.083 -0.1352 -1.3989  0.4165
  157DOPC   H3Y18922   4.627   2.841  16.954  0.5612  0.9998  1.0782
  157DOPC   C3418923   4.828   2.910  16.902  0.3393 -0.4394  0.1803
  157DOPC   H4X18924   4.931   2.870  16.907 -0.0535 -1.3827  1.0434
  157DOPC   H4Y18925   4.833   3.009  16.952 -1.3756 -0.3294  0.2126
  157DOPC   C3518926   4.785   2.926  16.752 -0.1665 -0.6948 -0.1322
  157DOPC   H5X18927   4.865   2.996  16.720 -0.8542 -1.1153 -3.1252
  157DOPC   H5Y18928   4.682   2.969  16.746  0.0684 -0.1877 -0.6190
  157DOPC   C3618929   4.796   2.796  16.678 -0.6065  0.1914  0.5122
  157DOPC   H6X18930   4.901   2.759  16.675 -0.7083 -0.0375 -1.1353
  157DOPC   H6Y18931   4.731   2.716  16.720  0.2284 -0.6384  0.2579
  157DOPC   C3718932   4.770   2.807  16.531  0.0588 -0.0148  0.7761
  157DOPC   H7X18933   4.673   2.854  16.505  0.4396 -0.9963 -2.9943
  157DOPC   H7Y18934   4.851   2.879  16.510  0.3084 -0.2199  1.0168
  157DOPC   C3818935   4.789   2.677  16.454  0.4971  0.3652  0.1168
  157DOPC   H8X18936   4.856   2.607  16.509  0.5020 -2.0670 -2.7553
  157DOPC   H8Y18937   4.853   2.690  16.364  1.3174 -0.8402  0.5048
  157DOPC   C3918938   4.653   2.621  16.421  0.7533  0.1010  0.4020
  157DOPC   H9X18939   4.583   2.605  16.504  2.2724  1.7274  2.0922
  157DOPC  C31018940   4.592   2.623  16.300 -0.0843  0.2605 -0.0857
  157DOPC  H10X18941   4.484   2.602  16.299 -0.4039  1.7716  0.6310
  157DOPC  C31118942   4.654   2.664  16.174 -0.3343 -0.4734 -0.1869
  157DOPC  H11X18943   4.753   2.714  16.181 -0.7597  0.4656 -0.6404
  157DOPC  H11Y18944   4.592   2.750  16.139 -0.8119 -0.3607  0.8948
  157DOPC  C31218945   4.671   2.560  16.065 -0.3138  0.2246 -0.0424
  157DOPC  H12X18946   4.580   2.498  16.056  1.1443 -2.0148 -0.3480
  157DOPC  H12Y18947   4.755   2.497  16.102  0.1269  0.9031  0.1214
  157DOPC  C31318948   4.697   2.629  15.923  0.2369  0.0583 -0.2020
  157DOPC  H13X18949   4.629   2.716  15.913  1.6198  1.1361 -0.5977
  157DOPC  H13Y18950   4.805   2.651  15.911  0.5626 -2.4071 -3.3247
  157DOPC  C31418951   4.666   2.540  15.809  0.2470  0.6909 -0.0194
  157DOPC  H14X18952   4.736   2.454  15.815 -0.4675  0.2114  2.7385
  157DOPC  H14Y18953   4.564   2.495  15.815  1.5070 -2.3165  0.5797
  157DOPC  C31518954   4.685   2.620  15.677  0.2685 -0.0759  0.1949
  157DOPC  H15X18955   4.781   2.677  15.674 -0.3408  0.9722  0.0917
  157DOPC  H15Y18956   4.609   2.701  15.668  0.7198  0.3780  0.3422
  157DOPC  C31618957   4.668   2.530  15.553  0.2007  0.3624 -1.1352
  157DOPC  H16X18958   4.762   2.478  15.524  0.5679  1.4974 -2.0642
  157DOPC  H16Y18959   4.596   2.451  15.582  2.0021 -0.9554 -0.0040
  157DOPC  C31718960   4.629   2.609  15.427  0.6687 -0.1750 -0.1383
  157DOPC  H17X18961   4.640   2.533  15.347  2.1902 -0.4522  0.3103
  157DOPC  H17Y18962   4.524   2.646  15.433  0.3389 -1.2377  0.7660
  157DOPC  C31818963   4.726   2.717  15.373 -0.5400 -0.1212 -0.5935
  157DOPC  H18X18964   4.719   2.752  15.268  0.6502  0.9424 -0.3452
  157DOPC  H18Y18965   4.704   2.808  15.432 -2.6420 -0.4417 -0.8303
  157DOPC  H18Z18966   4.831   2.683  15.385 -0.1160  1.5602  0.8438
  158DOPC     N18967   3.423   0.682  17.437  0.4518  0.0232 -0.2025
  158DOPC   C1218968   3.563   0.633  17.452  0.5013 -0.2859  0.0554
  158DOPC  H12A18969   3.626   0.692  17.386  1.7876 -1.5128  0.1382
  158DOPC  H12B18970   3.568   0.529  17.423 -0.3999 -0.0335 -1.0931
  158DOPC   C1318971   3.336   0.621  17.541  0.3668  0.0248  0.6218
  158DOPC  H13A18972   3.230   0.638  17.529  0.3168 -1.1300 -0.7897
  158DOPC  H13B18973   3.351   0.515  17.554 -1.6232 -0.1902  1.5498
  158DOPC  H13C18974   3.360   0.662  17.638 -1.5094  0.3871  0.9837
  158DOPC   C1418975   3.372   0.644  17.301  0.1234 -0.0175  0.1408
  158DOPC  H14A18976   3.430   0.688  17.221 -0.9574 -2.5387 -2.2241
  158DOPC  H14B18977   3.366   0.537  17.288  1.8120 -0.5526  2.9818
  158DOPC  H14C18978   3.272   0.685  17.298 -0.6806 -1.8770  0.0146
  158DOPC   C1518979   3.414   0.833  17.440 -0.6481 -0.2087 -0.3474
  158DOPC  H15A18980   3.463   0.875  17.526 -1.0147  1.1706 -0.7895
  158DOPC  H15B18981   3.312   0.869  17.441 -0.8185 -0.6706  1.0167
  158DOPC  H15C18982   3.466   0.865  17.350  0.3109  2.2139  0.9867
  158DOPC   C1118983   3.646   0.648  17.579 -0.1596 -0.1000 -0.9757
  158DOPC  H11A18984   3.604   0.580  17.656  1.4092 -0.1797 -0.1502
  158DOPC  H11B18985   3.744   0.594  17.576  0.0228 -0.1154  2.3774
  158DOPC     P18986   3.786   0.871  17.533  0.0224  0.0612  0.4085
  158DOPC   O1318987   3.911   0.871  17.616  0.4672  0.2862  0.4505
  158DOPC   O1418988   3.721   1.000  17.507  0.0462  0.2498  0.2453
  158DOPC   O1218989   3.674   0.786  17.607 -0.4717  0.3595  0.1193
  158DOPC   O1118990   3.798   0.781  17.398 -0.4714 -0.5318  0.1165
  158DOPC    C118991   3.930   0.761  17.335 -0.1242 -0.3420  0.0239
  158DOPC    HA18992   3.927   0.674  17.266 -0.4706  0.4161 -0.9563
  158DOPC    HB18993   3.998   0.734  17.418 -0.3310  0.6100  0.5174
  158DOPC    C218994   3.996   0.879  17.254 -0.1216  0.3526 -0.4794
  158DOPC    HS18995   4.054   0.933  17.332  0.5182 -1.1600  0.1235
  158DOPC   O2118996   3.889   0.961  17.201  0.2897  0.1591  0.6701
  158DOPC   C2118997   3.936   1.081  17.164 -0.3984 -0.5782 -0.9745
  158DOPC   O2218998   4.051   1.119  17.196 -0.0014 -0.3746  0.0623
  158DOPC   C2218999   3.824   1.169  17.125  0.4183  0.2378 -0.4767
  158DOPC   H2R19000   3.780   1.224  17.211 -0.2690 -0.5513 -0.3019
  158DOPC   H2S19001   3.741   1.108  17.081 -0.8549  1.2425  0.4561
  158DOPC    C319002   4.108   0.835  17.161  0.4611 -0.1436 -0.0124
  158DOPC    HX19003   4.179   0.764  17.208  0.1725 -1.1614 -1.0826
  158DOPC    HY19004   4.167   0.927  17.137  1.1887  0.0969  2.4739
  158DOPC   O3119005   4.051   0.788  17.038  0.1146  0.3285 -0.5580
  158DOPC   C3119006   4.136   0.724  16.954  0.2988 -0.5459 -0.2535
  158DOPC   O3219007   4.256   0.731  16.964 -0.1859 -0.6162  0.0034
  158DOPC   C3219008   4.045   0.650  16.861  0.0325 -0.0245  0.4012
  158DOPC   H2X19009   4.009   0.560  16.915 -0.6979 -0.4699 -0.7990
  158DOPC   H2Y19010   3.956   0.716  16.847 -0.3131 -1.0473 -3.2497
  158DOPC   C2319011   3.881   1.282  17.029  0.2776  0.7733  0.5209
  158DOPC   H3R19012   3.953   1.342  17.088  0.0948 -0.2628  1.8584
  158DOPC   H3S19013   3.810   1.364  17.004  0.2940  1.2418  1.9524
  158DOPC   C2419014   3.946   1.222  16.903  0.4117 -0.0280 -0.3408
  158DOPC   H4R19015   4.037   1.170  16.940 -0.2052 -1.2607 -0.5184
  158DOPC   H4S19016   4.004   1.298  16.845  1.6075 -1.3798 -0.9853
  158DOPC   C2519017   3.847   1.147  16.816 -0.4465  0.2081 -0.1432
  158DOPC   H5R19018   3.761   1.212  16.788 -2.3868 -0.9786  2.6337
  158DOPC   H5S19019   3.804   1.056  16.864  0.9737 -0.2116  0.3773
  158DOPC   C2619020   3.925   1.094  16.691  0.7159 -0.5514  0.3064
  158DOPC   H6R19021   4.025   1.064  16.730  0.2641  0.9318  2.8201
  158DOPC   H6S19022   3.934   1.178  16.619  0.5442  0.4564  1.4327
  158DOPC   C2719023   3.868   0.971  16.626 -0.5117 -0.4846  0.4110
  158DOPC   H7R19024   3.765   0.992  16.590 -0.1047  1.1435  0.1474
  158DOPC   H7S19025   3.862   0.885  16.697 -2.4317  0.0894  1.0196
  158DOPC   C2819026   3.962   0.938  16.510 -0.8187 -0.1173 -0.3501
  158DOPC   H8R19027   3.951   0.829  16.494 -1.5754  0.0521 -1.0397
  158DOPC   H8S19028   4.070   0.947  16.536 -0.5373 -0.5203 -1.3571
  158DOPC   C2919029   3.950   1.023  16.382  0.4541  0.1934  0.0260
  158DOPC   H9R19030   3.940   1.130  16.407  0.5576  0.1318  0.3354
  158DOPC  C21019031   3.971   0.988  16.256  0.2651  0.0392 -0.4789
  158DOPC  H10R19032   3.942   1.062  16.180 -1.0088 -0.1970 -0.2575
  158DOPC  C21119033   3.980   0.847  16.207  0.1032  0.2544 -0.9219
  158DOPC  H11R19034   3.938   0.783  16.288 -0.2048 -1.8145 -2.6363
  158DOPC  H11S19035   4.087   0.818  16.201  0.3198 -0.1365  2.6424
  158DOPC  C21219036   3.911   0.819  16.069 -0.2672 -0.3900  0.3938
  158DOPC  H12R19037   3.802   0.839  16.072  0.0429  1.3427  1.6690
  158DOPC  H12S19038   3.926   0.714  16.036 -0.0604  0.2661 -1.7355
  158DOPC  C21319039   3.980   0.894  15.952  0.6226 -0.2738  0.2716
  158DOPC  H13R19040   4.086   0.863  15.941  0.3527 -0.8043 -1.0029
  158DOPC  H13S19041   3.975   1.003  15.971  0.3194 -0.7015  3.1804
  158DOPC  C21419042   3.912   0.876  15.815  0.1990  0.1397  0.2539
  158DOPC  H14R19043   3.805   0.907  15.817  0.0227 -0.4751  0.3609
  158DOPC  H14S19044   3.914   0.770  15.782 -0.5485  0.3340 -0.4716
  158DOPC  C21519045   3.988   0.969  15.719  0.3619  0.6447 -0.8511
  158DOPC  H15R19046   4.099   0.958  15.721  0.6422  3.0530 -0.5234
  158DOPC  H15S19047   3.961   1.075  15.739  1.1352  0.5192  1.2008
  158DOPC  C21619048   3.949   0.946  15.572 -0.7120 -0.1709  0.0339
  158DOPC  H16R19049   3.845   0.980  15.554 -0.3287  0.3508 -1.2941
  158DOPC  H16S19050   3.950   0.836  15.557 -1.6794 -0.3553  1.1249
  158DOPC  C21719051   4.039   1.021  15.480 -0.1289 -0.5191 -0.6793
  158DOPC  H17R19052   4.147   1.002  15.491 -0.3389 -0.4227  2.7766
  158DOPC  H17S19053   4.027   1.128  15.508  2.1019 -0.0656 -1.2669
  158DOPC  C21819054   4.020   0.978  15.339  0.7351 -0.8469  0.1648
  158DOPC  H18R19055   4.066   1.049  15.266 -0.1084 -1.1572 -0.6949
  158DOPC  H18S19056   3.913   0.976  15.309  1.0046 -0.5858 -0.8592
  158DOPC  H18T19057   4.054   0.872  15.332 -0.5647 -1.2033 -1.2097
  158DOPC   C3319058   4.111   0.633  16.723  0.1790 -0.4370 -0.4345
  158DOPC   H3X19059   4.197   0.569  16.750  1.5939  2.3309  2.2761
  158DOPC   H3Y19060   4.144   0.733  16.687  1.7297 -0.2709  1.3175
  158DOPC   C3419061   4.027   0.546  16.619 -0.4074 -0.4698  0.4715
  158DOPC   H4X19062   3.930   0.597  16.601  0.0682  0.0804 -0.6793
  158DOPC   H4Y19063   4.006   0.442  16.650 -0.4774 -1.5148 -2.7803
  158DOPC   C3519064   4.101   0.538  16.479 -0.1018  0.1152  0.5956
  158DOPC   H5X19065   4.196   0.481  16.490 -0.1318  0.3082  2.0640
  158DOPC   H5Y19066   4.135   0.640  16.451  2.6731 -0.8385  0.1819
  158DOPC   C3619067   4.015   0.477  16.364 -0.7998 -0.2218 -0.0119
  158DOPC   H6X19068   3.994   0.374  16.400  0.7593 -0.8991 -0.9394
  158DOPC   H6Y19069   3.920   0.533  16.349  0.1642  1.5179  0.0546
  158DOPC   C3719070   4.103   0.461  16.246 -0.3610  0.3333  0.3136
  158DOPC   H7X19071   4.144   0.551  16.197 -1.2089  0.2298 -0.6199
  158DOPC   H7Y19072   4.198   0.407  16.265 -0.5285 -0.6792 -1.5459
  158DOPC   C3819073   4.033   0.381  16.135 -0.4787 -0.5455  0.2708
  158DOPC   H8X19074   3.956   0.439  16.081  0.2892  0.3072  0.0752
  158DOPC   H8Y19075   3.980   0.299  16.189  0.4679 -0.5844  1.1672
  158DOPC   C3919076   4.138   0.322  16.037 -0.0394  0.3935  0.1211
  158DOPC   H9X19077   4.219   0.265  16.086  0.7546  0.3802 -1.1664
  158DOPC  C31019078   4.142   0.331  15.903  0.6051 -0.3520  0.0934
  158DOPC  H10X19079   4.230   0.290  15.851  0.6329  0.0389 -0.1736
  158DOPC  C31119080   4.050   0.405  15.810 -0.4059 -0.0534  0.0916
  158DOPC  H11X19081   4.008   0.490  15.868 -0.9014 -0.2669  0.0562
  158DOPC  H11Y19082   3.960   0.348  15.777 -1.1805  2.0932 -1.7874
  158DOPC  C31219083   4.117   0.461  15.680  0.0713  0.1290 -0.8010
  158DOPC  H12X19084   4.178   0.385  15.627  0.1899  0.4806 -1.1749
  158DOPC  H12Y19085   4.189   0.541  15.707 -0.8372  1.1489 -1.2907
  158DOPC  C31319086   4.006   0.519  15.591  0.2550 -0.1623  0.4406
  158DOPC  H13X19087   3.938   0.439  15.556  1.2610 -1.5730  1.6092
  158DOPC  H13Y19088   3.941   0.580  15.658  0.2172 -2.1492  2.3166
  158DOPC  C31419089   4.058   0.594  15.465 -0.5698 -0.1753  0.1686
  158DOPC  H14X19090   3.970   0.640  15.415  1.0509  0.1896 -2.5282
  158DOPC  H14Y19091   4.119   0.683  15.490 -0.3613  0.1283 -1.3483
  158DOPC  C31519092   4.140   0.514  15.364  0.5380  0.0282 -0.1861
  158DOPC  H15X19093   4.080   0.421  15.361 -0.0431  0.4132 -0.5136
  158DOPC  H15Y19094   4.240   0.484  15.403 -0.5212 -2.5958  0.6826
  158DOPC  C31619095   4.143   0.581  15.232  0.3114 -0.4460 -0.1881
  158DOPC  H16X19096   4.039   0.605  15.200  0.5180  1.7533  0.6625
  158DOPC  H16Y19097   4.196   0.677  15.241  0.6640 -0.3532 -2.5989
  158DOPC  C31719098   4.191   0.496  15.116 -0.7688  1.0853  0.3450
  158DOPC  H17X19099   4.281   0.448  15.161 -0.8894 -0.6990 -1.2119
  158DOPC  H17Y19100   4.121   0.411  15.099  1.5737 -0.5937 -1.6901
  158DOPC  C31819101   4.218   0.580  14.984  0.4368 -0.1270  0.3916
  158DOPC  H18X19102   4.126   0.639  14.965  0.9894  0.1285 -1.8400
  158DOPC  H18Y19103   4.304   0.649  14.981  0.1430  0.2096 -0.9180
  158DOPC  H18Z19104   4.244   0.508  14.903  1.6431 -1.7014  2.0939
  159DOPC     N19105   4.923   2.750  17.805  0.1398 -1.1964  0.5043
  159DOPC   C1219106   4.994   2.791  17.675  0.5582  0.5694 -1.1034
  159DOPC  H12A19107   5.044   2.886  17.687  1.2949  0.0292  0.2424
  159DOPC  H12B19108   4.928   2.811  17.592  0.8055  1.6483 -1.0535
  159DOPC   C1319109   5.027   2.712  17.902  0.5074  0.4731  0.1469
  159DOPC  H13A19110   5.033   2.607  17.925 -1.8515 -0.0557 -1.3818
  159DOPC  H13B19111   5.124   2.739  17.861  0.9771 -1.3379 -0.0210
  159DOPC  H13C19112   5.019   2.767  17.995  0.8779  0.5392  0.1438
  159DOPC   C1419113   4.823   2.646  17.773  0.4188  0.4904 -0.1174
  159DOPC  H14A19114   4.864   2.558  17.726 -1.9480 -0.4221 -0.6165
  159DOPC  H14B19115   4.789   2.603  17.866  0.9098 -0.2001 -0.2478
  159DOPC  H14C19116   4.736   2.690  17.727 -0.7426  0.4111  1.9118
  159DOPC   C1519117   4.854   2.873  17.857  0.5383  0.5014 -0.4386
  159DOPC  H15A19118   4.918   2.945  17.906 -0.8527 -0.0414  2.3429
  159DOPC  H15B19119   4.772   2.842  17.919  2.0302 -1.4749  0.6850
  159DOPC  H15C19120   4.817   2.910  17.762 -0.6030 -0.7233 -0.5042
  159DOPC   C1119121   5.098   2.692  17.616 -0.1731 -0.8740 -0.1580
  159DOPC  H11A19122   5.045   2.595  17.612  0.7175 -1.3418 -1.0445
  159DOPC  H11B19123   5.116   2.697  17.506  1.7043  0.7386  0.1684
  159DOPC     P19124   5.340   2.757  17.649 -0.1378 -0.2112 -0.3630
  159DOPC   O1319125   5.460   2.693  17.708  0.1663 -0.1686 -0.7079
  159DOPC   O1419126   5.310   2.895  17.690 -0.6028 -0.2107  0.6628
  159DOPC   O1219127   5.216   2.673  17.685 -0.0011 -0.0061  0.4278
  159DOPC   O1119128   5.351   2.754  17.488  0.3541  0.1767  0.1185
  159DOPC    C119129   5.414   2.647  17.423 -0.1955 -0.2696  0.0509
  159DOPC    HA19130   5.397   2.553  17.478  1.4991 -1.5317 -1.4569
  159DOPC    HB19131   5.523   2.664  17.436 -0.7876  2.6779  2.3561
  159DOPC    C219132   5.388   2.630  17.269  0.2043 -0.5047 -0.1233
  159DOPC    HS19133   5.469   2.561  17.238 -1.2306 -2.8415  1.0284
  159DOPC   O2119134   5.388   2.753  17.196  0.3835  0.1338  0.3675
  159DOPC   C2119135   5.501   2.772  17.130  0.3402  0.0882  0.0334
  159DOPC   O2219136   5.602   2.702  17.128  0.1055 -0.6237  0.1516
  159DOPC   C2219137   5.500   2.897  17.047 -0.1438  0.0864  0.1779
  159DOPC   H2R19138   5.537   2.982  17.109  0.8401 -0.9368  1.0227
  159DOPC   H2S19139   5.394   2.924  17.028  0.1277  1.2667  0.2264
  159DOPC    C319140   5.244   2.571  17.242 -0.0788 -0.7072 -0.3917
  159DOPC    HX19141   5.172   2.646  17.282  0.0297 -0.8099  0.0046
  159DOPC    HY19142   5.219   2.483  17.306 -0.9728 -1.5849 -1.8985
  159DOPC   O3119143   5.227   2.549  17.100  0.2328 -0.4021  0.1574
  159DOPC   C3119144   5.170   2.647  17.030 -0.7632 -0.0225  0.4924
  159DOPC   O3219145   5.123   2.751  17.070  0.1446  0.1703 -0.9933
  159DOPC   C3219146   5.191   2.615  16.886  0.0346 -0.4205 -0.3680
  159DOPC   H2X19147   5.292   2.569  16.877  1.0428  0.7051  3.4602
  159DOPC   H2Y19148   5.110   2.549  16.848 -1.0020  0.0056  1.0454
  159DOPC   C2319149   5.575   2.883  16.909 -0.3415 -0.4827 -0.5180
  159DOPC   H3R19150   5.530   2.809  16.840 -0.0633 -0.0854 -1.1273
  159DOPC   H3S19151   5.681   2.856  16.932 -0.9912 -2.7413  0.0828
  159DOPC   C2419152   5.574   3.022  16.843  0.2282 -0.5417  0.2313
  159DOPC   H4R19153   5.621   3.092  16.916  0.0735 -0.1199 -0.0715
  159DOPC   H4S19154   5.466   3.047  16.838  0.1740 -0.7474  0.3642
  159DOPC   C2519155   5.651   3.043  16.709 -0.2097  0.1316 -0.1058
  159DOPC   H5R19156   5.760   3.020  16.714 -0.2319 -1.3906 -3.3846
  159DOPC   H5S19157   5.655   3.153  16.695  0.2736  0.0863 -0.3514
  159DOPC   C2619158   5.582   2.985  16.585  0.7045 -0.3391  0.7971
  159DOPC   H6R19159   5.484   3.037  16.572  0.6279 -0.8472 -0.8107
  159DOPC   H6S19160   5.567   2.875  16.582  1.2093 -0.4196  1.0586
  159DOPC   C2719161   5.665   3.025  16.460 -0.1509 -0.0770 -0.0890
  159DOPC   H7R19162   5.770   2.999  16.481 -0.3138 -0.6343  0.0441
  159DOPC   H7S19163   5.659   3.135  16.443  2.4874  0.1673  0.2796
  159DOPC   C2819164   5.609   2.956  16.341 -0.1833 -0.0655 -1.0022
  159DOPC   H8R19165   5.506   2.998  16.332  0.3402  0.9043 -3.4193
  159DOPC   H8S19166   5.601   2.847  16.355 -0.3507 -0.1882 -1.9522
  159DOPC   C2919167   5.688   2.982  16.218  0.2313 -0.1732  0.6081
  159DOPC   H9R19168   5.765   2.906  16.201  0.2030 -0.4470  1.6250
  159DOPC  C21019169   5.653   3.059  16.110  0.1305  0.4280 -0.5285
  159DOPC  H10R19170   5.721   3.060  16.024  2.3627 -4.1367  0.9222
  159DOPC  C21119171   5.530   3.151  16.102  0.2038  0.5175  0.2900
  159DOPC  H11R19172   5.541   3.261  16.120  0.6977  0.4649  0.3246
  159DOPC  H11S19173   5.476   3.134  16.198  1.2234 -0.1951  0.7511
  159DOPC  C21219174   5.443   3.128  15.978 -0.8521 -0.0397  0.3160
  159DOPC  H12R19175   5.348   3.185  15.981 -0.6889  0.3091 -0.6111
  159DOPC  H12S19176   5.422   3.019  15.974  1.7262 -0.5834 -0.2742
  159DOPC  C21319177   5.517   3.148  15.835 -0.6041 -0.2113 -0.7879
  159DOPC  H13R19178   5.615   3.096  15.833  0.0491  0.9916 -1.2102
  159DOPC  H13S19179   5.526   3.255  15.805 -0.4607  0.2936  0.9241
  159DOPC  C21419180   5.445   3.073  15.724 -0.2063  0.3480 -0.4822
  159DOPC  H14R19181   5.342   3.114  15.728  0.7686  2.9131  1.3237
  159DOPC  H14S19182   5.442   2.963  15.735  2.0485  0.1086 -1.7109
  159DOPC  C21519183   5.508   3.096  15.586 -0.5907 -0.1943  0.3630
  159DOPC  H15R19184   5.617   3.080  15.605 -0.1551  2.1306  0.0833
  159DOPC  H15S19185   5.494   3.200  15.550 -1.6609 -0.5489 -0.2833
  159DOPC  C21619186   5.442   2.999  15.489 -0.3365  0.0570 -0.0589
  159DOPC  H16R19187   5.350   3.053  15.458 -0.5399 -0.9087 -1.2007
  159DOPC  H16S19188   5.420   2.900  15.534 -1.3630 -0.2698 -1.2427
  159DOPC  C21719189   5.523   2.966  15.361 -0.5105 -0.6295  0.0446
  159DOPC  H17R19190   5.463   2.912  15.284 -0.6574 -0.5546  0.1061
  159DOPC  H17S19191   5.609   2.906  15.396  0.1579 -0.0516 -0.5720
  159DOPC  C21819192   5.570   3.099  15.299  0.1794  0.4661 -0.1958
  159DOPC  H18R19193   5.586   3.098  15.189 -0.9460  1.9527 -0.4101
  159DOPC  H18S19194   5.650   3.154  15.354  1.5654 -3.0941  1.6294
  159DOPC  H18T19195   5.487   3.173  15.300  0.2099  0.5012 -0.2868
  159DOPC   C3319196   5.192   2.749  16.803 -0.3815  0.2928 -0.4111
  159DOPC   H3X19197   5.286   2.801  16.832 -1.0939  0.2360  2.2480
  159DOPC   H3Y19198   5.113   2.823  16.829  0.7638  1.0606  1.0400
  159DOPC   C3419199   5.188   2.730  16.652 -0.6351 -0.4692  0.5640
  159DOPC   H4X19200   5.096   2.671  16.632 -1.3636  0.3372  1.4381
  159DOPC   H4Y19201   5.283   2.687  16.614 -0.3108  1.1271 -0.5615
  159DOPC   C3519202   5.185   2.864  16.575 -0.0389  0.1031  0.4689
  159DOPC   H5X19203   5.281   2.919  16.582 -0.1408  0.3228  0.1391
  159DOPC   H5Y19204   5.109   2.936  16.610  0.0525  0.5651 -0.2725
  159DOPC   C3619205   5.159   2.836  16.425  0.6031 -0.2627 -0.1418
  159DOPC   H6X19206   5.228   2.752  16.405  1.8248 -0.2658  3.4571
  159DOPC   H6Y19207   5.054   2.804  16.408  1.3547 -2.5179 -0.9181
  159DOPC   C3719208   5.209   2.956  16.347 -0.6605  0.0596  0.0512
  159DOPC   H7X19209   5.139   3.036  16.381 -0.6133 -0.3065  1.0343
  159DOPC   H7Y19210   5.313   2.982  16.374 -0.6992  0.5591 -0.2655
  159DOPC   C3819211   5.203   2.952  16.189  0.2010  0.5107  0.4048
  159DOPC   H8X19212   5.279   2.877  16.158  0.0028  0.1767  0.7313
  159DOPC   H8Y19213   5.236   3.051  16.151  2.0512  1.0105  3.0371
  159DOPC   C3919214   5.061   2.935  16.140 -0.4834  0.6999  0.3661
  159DOPC   H9X19215   4.977   2.979  16.196 -0.7930 -0.0320  0.4775
  159DOPC  C31019216   5.028   2.849  16.036 -0.8566  0.2785 -0.5824
  159DOPC  H10X19217   4.928   2.836  15.992 -0.0055 -2.1600 -2.0030
  159DOPC  C31119218   5.133   2.770  15.964  0.6260  1.0497 -0.1356
  159DOPC  H11X19219   5.142   2.670  16.011 -0.7744  1.5213  1.2691
  159DOPC  H11Y19220   5.235   2.815  15.961  0.8199  0.6063 -3.0102
  159DOPC  C31219221   5.094   2.752  15.809  0.5798 -0.2354  0.6008
  159DOPC  H12X19222   5.001   2.692  15.802  0.7014 -0.3415 -0.0935
  159DOPC  H12Y19223   5.178   2.702  15.756  2.4120  2.3360  0.8336
  159DOPC  C31319224   5.072   2.889  15.744  0.7817  0.4062 -0.6082
  159DOPC  H13X19225   4.985   2.948  15.780  0.4901  1.0690 -2.3094
  159DOPC  H13Y19226   5.166   2.943  15.768  0.5755  0.4565  0.0911
  159DOPC  C31419227   5.064   2.877  15.596 -0.0315 -0.2041 -0.5594
  159DOPC  H14X19228   5.161   2.829  15.568 -0.6827 -1.4134 -0.8087
  159DOPC  H14Y19229   4.972   2.818  15.575  0.1024 -0.2458 -1.0440
  159DOPC  C31519230   5.039   3.007  15.521 -0.0375 -0.0968 -0.2271
  159DOPC  H15X19231   5.122   3.078  15.544  1.0930 -1.3195 -0.4092
  159DOPC  H15Y19232   4.945   3.054  15.558  0.0359 -0.9470  1.1155
  159DOPC  C31619233   5.034   2.997  15.367  0.1733 -0.0559  0.7758
  159DOPC  H16X19234   5.123   2.935  15.343  0.1184  0.0996  0.1704
  159DOPC  H16Y19235   4.942   2.943  15.337 -0.5235  0.1128  2.4902
  159DOPC  C31719236   5.030   3.139  15.303  0.4442  0.4838 -0.5074
  159DOPC  H17X19237   4.954   3.203  15.354  1.5659  1.4423 -0.0106
  159DOPC  H17Y19238   5.132   3.179  15.318  0.4928  0.7122 -1.4076
  159DOPC  C31819239   4.995   3.141  15.155  0.7890  0.4440  0.7454
  159DOPC  H18X19240   4.998   3.248  15.125  0.2253  0.3227  0.2375
  159DOPC  H18Y19241   5.069   3.082  15.097  1.7532  1.0546  1.3158
  159DOPC  H18Z19242   4.892   3.102  15.141  0.1987  2.0974  0.2872
  160DOPC     N19243   1.930   6.459  17.734  0.5520 -0.4485  0.3792
  160DOPC   C1219244   1.984   6.547  17.621 -0.1336 -0.3876 -0.3520
  160DOPC  H12A19245   1.947   6.508  17.528 -0.6795 -3.1365  0.9001
  160DOPC  H12B19246   2.091   6.550  17.616 -0.2168  2.0607 -3.5526
  160DOPC   C1319247   1.790   6.420  17.711 -0.0092  0.2380  0.2301
  160DOPC  H13A19248   1.790   6.363  17.619 -0.0524  0.2293  0.2364
  160DOPC  H13B19249   1.755   6.340  17.774 -1.2433  0.2794 -0.3734
  160DOPC  H13C19250   1.722   6.504  17.709  1.3794  1.4083 -0.0341
  160DOPC   C1419251   1.927   6.530  17.867 -0.4118 -0.7949 -0.1106
  160DOPC  H14A19252   2.023   6.575  17.888  1.1658 -3.4096 -1.2251
  160DOPC  H14B19253   1.844   6.598  17.862 -1.8815 -2.6421 -2.7680
  160DOPC  H14C19254   1.907   6.471  17.956  1.3876 -0.6301  0.4548
  160DOPC   C1519255   2.012   6.337  17.748 -0.3686 -1.0181  0.5065
  160DOPC  H15A19256   1.989   6.270  17.666 -0.6191  0.9403 -1.1022
  160DOPC  H15B19257   1.979   6.280  17.834 -0.0284 -3.3324 -0.8030
  160DOPC  H15C19258   2.118   6.356  17.742 -0.9961  2.9305 -0.9025
  160DOPC   C1119259   1.943   6.698  17.617  0.1498  0.1996  0.4951
  160DOPC  H11A19260   1.987   6.741  17.709  2.5313 -0.1841 -0.4021
  160DOPC  H11B19261   2.002   6.758  17.544 -0.1925 -1.9898 -1.7355
  160DOPC     P19262   1.708   6.709  17.487  0.6664  0.2950 -0.1337
  160DOPC   O1319263   1.681   6.839  17.430  0.0700 -0.3480  0.7540
  160DOPC   O1419264   1.595   6.627  17.521 -0.2433 -0.8222 -0.5732
  160DOPC   O1219265   1.799   6.725  17.616 -0.2477  0.0546  0.8896
  160DOPC   O1119266   1.787   6.626  17.379 -0.3538 -0.2380 -0.0229
  160DOPC    C119267   1.898   6.678  17.311 -0.7156 -0.0982  0.0019
  160DOPC    HA19268   1.992   6.633  17.349 -1.3302 -1.3599  0.0730
  160DOPC    HB19269   1.918   6.787  17.325  1.8810 -0.4949 -0.1060
  160DOPC    C219270   1.884   6.638  17.162  0.4924 -0.1457 -0.2630
  160DOPC    HS19271   1.969   6.679  17.103 -0.2920 -2.9296 -3.6478
  160DOPC   O2119272   1.766   6.687  17.101  0.3629  0.0446  0.0025
  160DOPC   C2119273   1.751   6.820  17.099 -1.0284  0.3823 -0.0420
  160DOPC   O2219274   1.841   6.900  17.132  0.4727 -0.6310 -0.1139
  160DOPC   C2219275   1.614   6.865  17.046  1.1295 -0.0329  0.0168
  160DOPC   H2R19276   1.541   6.863  17.130  1.3998 -0.7882  0.2360
  160DOPC   H2S19277   1.593   6.791  16.966 -1.6101  1.3390 -0.6623
  160DOPC    C319278   1.891   6.487  17.145 -0.8578 -0.3865  0.2638
  160DOPC    HX19279   1.808   6.444  17.205  0.3759  1.7857  3.8423
  160DOPC    HY19280   1.985   6.453  17.194  0.7600  3.0146 -0.1787
  160DOPC   O3119281   1.897   6.444  17.008  0.6634 -0.2344  0.1661
  160DOPC   C3119282   1.772   6.414  16.955 -0.3098  0.2293 -0.1489
  160DOPC   O3219283   1.660   6.424  17.009 -0.1577  0.9076  0.4837
  160DOPC   C3219284   1.794   6.358  16.818  0.4154 -0.3081 -0.8564
  160DOPC   H2X19285   1.888   6.401  16.778  0.0964  2.5702  1.2088
  160DOPC   H2Y19286   1.802   6.249  16.839  0.3973  0.2837  3.0265
  160DOPC   C2319287   1.614   7.002  16.977 -0.4764  0.8876 -0.0666
  160DOPC   H3R19288   1.681   7.005  16.888 -1.1823  0.8358 -0.6053
  160DOPC   H3S19289   1.670   7.061  17.052 -0.9132  0.4136  0.6374
  160DOPC   C2419290   1.480   7.065  16.946  0.3130  0.2681 -0.3717
  160DOPC   H4R19291   1.434   7.080  17.046  1.2589 -1.2807  0.3362
  160DOPC   H4S19292   1.419   6.999  16.881 -0.2042 -1.3385  1.6344
  160DOPC   C2519293   1.476   7.203  16.885  0.2086  0.1075 -0.1573
  160DOPC   H5R19294   1.526   7.260  16.966  2.0757  0.5087 -1.5238
  160DOPC   H5S19295   1.371   7.235  16.868  0.2033  0.6888  0.8965
  160DOPC   C2619296   1.555   7.224  16.749  0.3127  0.2448  0.6767
  160DOPC   H6R19297   1.654   7.176  16.765  0.3836  0.0801 -0.2060
  160DOPC   H6S19298   1.575   7.330  16.724 -0.3588  0.1598 -0.2779
  160DOPC   C2719299   1.494   7.146  16.627 -0.0214  0.1346 -0.7025
  160DOPC   H7R19300   1.384   7.165  16.625 -0.0039  0.2048 -1.7469
  160DOPC   H7S19301   1.507   7.037  16.646  2.6469  0.5134 -0.0942
  160DOPC   C2819302   1.565   7.189  16.503  0.6528  0.2024 -0.5709
  160DOPC   H8R19303   1.672   7.159  16.507  0.1552 -2.0002 -2.3627
  160DOPC   H8S19304   1.575   7.300  16.495  2.2725 -0.0157 -2.2507
  160DOPC   C2919305   1.495   7.119  16.389  0.3625  0.0694 -0.2099
  160DOPC   H9R19306   1.389   7.141  16.367 -0.0936 -2.4270 -0.8921
  160DOPC  C21019307   1.560   7.038  16.304 -0.2173 -0.3364  0.2026
  160DOPC  H10R19308   1.487   6.995  16.234  0.1950  0.3383 -0.6547
  160DOPC  C21119309   1.709   6.996  16.288 -0.5163 -0.0750 -0.5240
  160DOPC  H11R19310   1.712   6.893  16.247  0.2283 -0.8442  1.3700
  160DOPC  H11S19311   1.754   6.995  16.389 -0.2590  3.1205 -0.5154
  160DOPC  C21219312   1.796   7.082  16.188  1.0589 -0.1652  0.3087
  160DOPC  H12R19313   1.905   7.084  16.208  0.7182  0.3448  2.3038
  160DOPC  H12S19314   1.762   7.187  16.201  3.3805  0.9307 -1.7688
  160DOPC  C21319315   1.779   7.024  16.050  0.2873  0.2711 -0.5404
  160DOPC  H13R19316   1.670   7.010  16.037  0.0793 -2.5309  2.8855
  160DOPC  H13S19317   1.838   6.931  16.035 -1.8382 -1.8031  2.7137
  160DOPC  C21419318   1.834   7.121  15.939 -0.7321 -0.0911  0.8132
  160DOPC  H14R19319   1.943   7.103  15.933 -0.9463 -0.9944 -1.3278
  160DOPC  H14S19320   1.809   7.223  15.973 -0.7744  0.8307 -1.7815
  160DOPC  C21519321   1.778   7.090  15.800  0.1196  0.2655 -0.0718
  160DOPC  H15R19322   1.677   7.135  15.786  0.3344  0.9405  0.4865
  160DOPC  H15S19323   1.769   6.979  15.797 -0.2669  0.2626  0.9462
  160DOPC  C21619324   1.872   7.138  15.686  0.1136  0.2378 -0.2801
  160DOPC  H16R19325   1.962   7.073  15.677 -0.2302 -0.2431 -0.2739
  160DOPC  H16S19326   1.906   7.242  15.706  0.3604  0.2022 -0.5161
  160DOPC  C21719327   1.793   7.142  15.554  0.1738  0.1263  0.5616
  160DOPC  H17R19328   1.724   7.230  15.552 -0.3171 -0.2647 -0.7802
  160DOPC  H17S19329   1.728   7.052  15.551 -0.4630  0.4755  2.5255
  160DOPC  C21819330   1.886   7.137  15.432  0.5056  0.1769 -0.0114
  160DOPC  H18R19331   1.949   7.228  15.428 -1.1878  1.3583 -1.8126
  160DOPC  H18S19332   1.830   7.125  15.337 -0.6897  0.9828  0.5627
  160DOPC  H18T19333   1.957   7.052  15.424  0.5114  0.3041 -1.6974
  160DOPC   C3319334   1.677   6.386  16.722 -0.5171  0.6179 -0.1464
  160DOPC   H3X19335   1.582   6.357  16.772 -0.6584 -2.8274 -2.0580
  160DOPC   H3Y19336   1.687   6.327  16.629  0.9471  0.3643  0.1419
  160DOPC   C3419337   1.681   6.532  16.687  0.3586  0.0421  0.1936
  160DOPC   H4X19338   1.791   6.549  16.676 -0.0407  1.3613 -2.6846
  160DOPC   H4Y19339   1.646   6.597  16.769 -0.9450  0.7364 -0.8813
  160DOPC   C3519340   1.611   6.578  16.558  0.6209 -0.2232 -0.4632
  160DOPC   H5X19341   1.564   6.676  16.580 -1.8242 -1.5549  0.6286
  160DOPC   H5Y19342   1.529   6.507  16.536  0.7403 -1.3652  2.3358
  160DOPC   C3619343   1.705   6.583  16.435 -0.6252  0.1128 -0.0671
  160DOPC   H6X19344   1.723   6.692  16.426  1.3783 -0.2786 -1.2280
  160DOPC   H6Y19345   1.805   6.542  16.459  0.1338  2.9206  2.0862
  160DOPC   C3719346   1.660   6.510  16.308  0.3028 -0.4036  0.2633
  160DOPC   H7X19347   1.688   6.403  16.312 -1.6454 -0.9265  0.7397
  160DOPC   H7Y19348   1.549   6.519  16.310  0.2117 -1.3685 -0.0486
  160DOPC   C3819349   1.718   6.584  16.190 -0.6051  0.6854  0.4044
  160DOPC   H8X19350   1.680   6.688  16.196  0.2319  1.0041  0.3140
  160DOPC   H8Y19351   1.664   6.542  16.102 -0.5166  0.2514  0.5584
  160DOPC   C3919352   1.868   6.580  16.176  0.2079  0.1216 -0.0284
  160DOPC   H9X19353   1.927   6.662  16.221 -0.4144  0.2465  0.5586
  160DOPC  C31019354   1.932   6.469  16.132 -0.1348  0.0392 -0.1702
  160DOPC  H10X19355   2.041   6.455  16.129 -0.2236 -0.5501 -2.8152
  160DOPC  C31119356   1.870   6.351  16.064 -0.1366  0.4523  0.4431
  160DOPC  H11X19357   1.779   6.392  16.015 -0.1034 -1.3969 -1.3223
  160DOPC  H11Y19358   1.840   6.281  16.145  0.3006  0.4527  0.6096
  160DOPC  C31219359   1.974   6.272  15.973 -0.1480 -0.1009  0.0781
  160DOPC  H12X19360   2.065   6.238  16.027 -0.4488 -1.5455 -0.2742
  160DOPC  H12Y19361   2.016   6.338  15.895  1.8212 -0.1724  1.0174
  160DOPC  C31319362   1.918   6.143  15.911 -0.2436  0.5953 -0.0862
  160DOPC  H13X19363   2.002   6.098  15.854 -0.4310 -1.5364  1.1729
  160DOPC  H13Y19364   1.902   6.064  15.988 -1.6653 -0.8340 -1.7773
  160DOPC  C31419365   1.818   6.152  15.798  0.5316  0.2999 -0.0315
  160DOPC  H14X19366   1.749   6.065  15.807  0.8960  0.2481  3.3595
  160DOPC  H14Y19367   1.754   6.242  15.806 -0.2069 -0.2862  0.8179
  160DOPC  C31519368   1.877   6.144  15.659  0.1364 -0.0966 -0.1030
  160DOPC  H15X19369   1.951   6.061  15.647  2.1102  1.4937  0.4863
  160DOPC  H15Y19370   1.930   6.239  15.637 -1.5245  0.7803 -0.4700
  160DOPC  C31619371   1.762   6.140  15.563  0.6408  0.1253  0.2896
  160DOPC  H16X19372   1.670   6.088  15.596  0.6761  0.2384  0.5701
  160DOPC  H16Y19373   1.721   6.243  15.560  1.0764  0.2942 -0.0527
  160DOPC  C31719374   1.798   6.103  15.427 -0.7836  0.5320 -0.0684
  160DOPC  H17X19375   1.888   6.163  15.402 -0.3786  1.4309  3.0709
  160DOPC  H17Y19376   1.831   5.997  15.418 -2.3991  0.0836 -0.8933
  160DOPC  C31819377   1.694   6.131  15.323  0.5312 -0.0991  0.7366
  160DOPC  H18X19378   1.744   6.112  15.225 -0.7120 -1.6967  0.3604
  160DOPC  H18Y19379   1.621   6.047  15.334 -1.2119  1.3543  0.6904
  160DOPC  H18Z19380   1.639   6.227  15.323  1.0566  0.3316 -2.7148
  161DOPC     N19381   2.582   0.345  17.797  0.1042 -0.1871 -0.1594
  161DOPC   C1219382   2.703   0.442  17.764 -0.0370 -0.4987 -0.3799
  161DOPC  H12A19383   2.779   0.383  17.716  0.9484  0.0012  0.5277
  161DOPC  H12B19384   2.729   0.483  17.861 -2.3066  0.1498  0.0193
  161DOPC   C1319385   2.491   0.420  17.895 -0.1914 -0.3990  0.0567
  161DOPC  H13A19386   2.547   0.445  17.984  0.0676 -0.9546  0.0564
  161DOPC  H13B19387   2.460   0.512  17.848 -1.1216  0.1897  1.7375
  161DOPC  H13C19388   2.400   0.369  17.923  0.1982 -1.3391 -0.3376
  161DOPC   C1419389   2.634   0.225  17.873  0.2240 -0.7210 -0.4481
  161DOPC  H14A19390   2.687   0.154  17.812 -0.3855  0.5524 -2.5787
  161DOPC  H14B19391   2.706   0.261  17.944  0.2494 -1.1517 -0.2512
  161DOPC  H14C19392   2.551   0.187  17.931 -0.4214  0.6738 -0.4169
  161DOPC   C1519393   2.508   0.312  17.675  0.3034  0.4560 -0.6165
  161DOPC  H15A19394   2.487   0.402  17.620 -3.0664 -0.2249 -0.6552
  161DOPC  H15B19395   2.413   0.262  17.691 -0.3814  1.8691 -0.1386
  161DOPC  H15C19396   2.568   0.240  17.621 -1.2236 -0.9841 -0.4700
  161DOPC   C1119397   2.670   0.554  17.664 -0.3306 -0.1841 -0.5887
  161DOPC  H11A19398   2.583   0.613  17.699 -1.0113 -1.8272  0.6559
  161DOPC  H11B19399   2.752   0.627  17.675 -1.0347  0.7567 -1.4776
  161DOPC     P19400   2.762   0.475  17.437  0.0505 -0.1431 -0.4208
  161DOPC   O1319401   2.717   0.420  17.303 -0.4407  0.0106 -0.3504
  161DOPC   O1419402   2.856   0.392  17.512  0.2353 -0.5113  0.3923
  161DOPC   O1219403   2.644   0.509  17.531 -0.9188 -0.0387 -0.1781
  161DOPC   O1119404   2.838   0.604  17.402  0.0678 -0.3230 -0.1806
  161DOPC    C119405   2.766   0.713  17.339  0.0847 -0.0150 -0.0560
  161DOPC    HA19406   2.781   0.803  17.403  1.0552 -1.5824  2.0389
  161DOPC    HB19407   2.657   0.699  17.325 -0.0076 -2.2495  2.2329
  161DOPC    C219408   2.826   0.766  17.198  0.6749  0.5665  0.4764
  161DOPC    HS19409   2.812   0.876  17.199  1.3863  0.7242 -1.6110
  161DOPC   O2119410   2.750   0.700  17.087  0.3182  0.0745 -0.6279
  161DOPC   C2119411   2.624   0.735  17.072 -0.5334 -0.7868  0.1657
  161DOPC   O2219412   2.564   0.813  17.142  0.2601  0.4345  0.1808
  161DOPC   C2219413   2.579   0.682  16.935 -0.8457 -0.2985 -0.1024
  161DOPC   H2R19414   2.468   0.673  16.931 -0.9818 -0.8082  2.7525
  161DOPC   H2S19415   2.628   0.583  16.929  0.5700  0.2893  1.1627
  161DOPC    C319416   2.978   0.736  17.180  0.0095  0.1948  0.7616
  161DOPC    HX19417   2.997   0.632  17.214 -1.9260  0.0701  1.5770
  161DOPC    HY19418   3.044   0.802  17.241  1.1207 -0.3606  0.1982
  161DOPC   O3119419   3.012   0.756  17.043 -0.9262 -0.1945 -0.4654
  161DOPC   C3119420   3.028   0.649  16.961 -0.0137 -0.5280 -1.4138
  161DOPC   O3219421   3.016   0.536  16.995 -0.1463  0.2078  0.2129
  161DOPC   C3219422   3.064   0.709  16.826 -0.3191  0.1485  0.8304
  161DOPC   H2X19423   3.002   0.795  16.795 -0.6156 -0.5952 -0.7312
  161DOPC   H2Y19424   3.173   0.733  16.829  0.3934 -2.2938 -1.4640
  161DOPC   C2319425   2.631   0.773  16.820  0.6365 -0.0409  0.5238
  161DOPC   H3R19426   2.738   0.794  16.842  0.4050  1.8076  0.0381
  161DOPC   H3S19427   2.583   0.873  16.825  0.5329 -0.0573 -0.1046
  161DOPC   C2419428   2.590   0.720  16.684  0.7098 -0.3567 -0.0295
  161DOPC   H4R19429   2.485   0.754  16.671  0.5209 -0.2214  1.6008
  161DOPC   H4S19430   2.585   0.609  16.695  0.2952 -0.3435 -0.0538
  161DOPC   C2519431   2.686   0.761  16.585  0.4346  0.0629  0.0802
  161DOPC   H5R19432   2.781   0.707  16.603  0.6341  0.6920  0.9874
  161DOPC   H5S19433   2.708   0.870  16.583  0.9602 -0.0473 -1.0850
  161DOPC   C2619434   2.636   0.722  16.451 -0.6949  0.7384  0.1315
  161DOPC   H6R19435   2.538   0.774  16.437 -0.9313  0.1887 -0.2739
  161DOPC   H6S19436   2.627   0.612  16.442  1.4035  0.5831 -0.4736
  161DOPC   C2719437   2.742   0.764  16.344  0.2591  0.3246  0.3139
  161DOPC   H7R19438   2.833   0.706  16.370 -0.2758 -2.1459 -2.6805
  161DOPC   H7S19439   2.752   0.875  16.341 -3.1372  0.7397 -0.0377
  161DOPC   C2819440   2.695   0.712  16.207 -0.3855  0.4973  0.4879
  161DOPC   H8R19441   2.605   0.765  16.169 -1.1338 -0.9960  0.1138
  161DOPC   H8S19442   2.670   0.605  16.223  0.6652 -0.3413 -2.8114
  161DOPC   C2919443   2.819   0.721  16.121  0.5423 -0.4757 -0.1671
  161DOPC   H9R19444   2.908   0.734  16.183  0.5743  1.5566 -0.5735
  161DOPC  C21019445   2.818   0.723  15.988  0.1250 -0.6037  0.1095
  161DOPC  H10R19446   2.909   0.735  15.927  0.5813 -0.0200  0.8708
  161DOPC  C21119447   2.703   0.711  15.887  0.4572 -0.2560  0.2306
  161DOPC  H11R19448   2.696   0.802  15.823 -1.2202 -0.2014  0.4587
  161DOPC  H11S19449   2.605   0.700  15.938 -0.3850  0.3714 -1.1761
  161DOPC  C21219450   2.698   0.581  15.802  0.2686  0.4543  0.3261
  161DOPC  H12R19451   2.645   0.504  15.863  0.3938 -0.6371 -0.9067
  161DOPC  H12S19452   2.801   0.541  15.793 -0.0636 -1.2851  3.0381
  161DOPC  C21319453   2.621   0.611  15.669  0.7805  0.9275 -0.6741
  161DOPC  H13R19454   2.676   0.699  15.629  1.2188  0.8295 -0.3042
  161DOPC  H13S19455   2.522   0.639  15.711  0.9311 -1.3639  1.4405
  161DOPC  C21419456   2.604   0.501  15.569  0.0391 -0.2630  0.7872
  161DOPC  H14R19457   2.703   0.471  15.529 -0.0333  1.4807 -0.8187
  161DOPC  H14S19458   2.538   0.534  15.486 -1.8243 -1.2396  1.8281
  161DOPC  C21519459   2.543   0.379  15.629 -0.3101 -0.6275 -0.4031
  161DOPC  H15R19460   2.457   0.416  15.688  1.9704  2.8092  1.0510
  161DOPC  H15S19461   2.621   0.336  15.696  0.1172 -1.4745 -1.3996
  161DOPC  C21619462   2.528   0.262  15.529  0.1125  0.3589 -0.1486
  161DOPC  H16R19463   2.540   0.163  15.578 -0.5270  1.0897  1.5679
  161DOPC  H16S19464   2.618   0.249  15.466 -1.0185 -2.0865 -1.3754
  161DOPC  C21719465   2.404   0.259  15.438  0.0565 -0.2059  0.2033
  161DOPC  H17R19466   2.403   0.160  15.388 -2.0669  0.6364 -1.5924
  161DOPC  H17S19467   2.407   0.340  15.361 -0.3455 -1.2023 -0.8934
  161DOPC  C21819468   2.274   0.270  15.515  0.3422 -0.6303 -0.0154
  161DOPC  H18R19469   2.198   0.226  15.448  0.6151  0.8270 -1.3155
  161DOPC  H18S19470   2.258   0.376  15.542  1.9869 -0.0507 -1.1382
  161DOPC  H18T19471   2.275   0.210  15.609 -2.3133 -0.6349  0.0734
  161DOPC   C3319472   3.062   0.611  16.707  0.4972 -0.2726 -0.3682
  161DOPC   H3X19473   2.955   0.597  16.681  0.6454 -1.6998 -0.2823
  161DOPC   H3Y19474   3.109   0.513  16.729  2.6196  0.8338  0.3921
  161DOPC   C3419475   3.123   0.683  16.579  0.8285 -0.4575 -0.5770
  161DOPC   H4X19476   3.228   0.712  16.598  0.8608 -1.3620  0.7202
  161DOPC   H4Y19477   3.059   0.770  16.553 -0.2338 -0.7604  0.8930
  161DOPC   C3519478   3.140   0.583  16.468 -0.1879  0.0496  0.9029
  161DOPC   H5X19479   3.044   0.533  16.441  0.5976 -0.6282 -0.7963
  161DOPC   H5Y19480   3.207   0.501  16.501  0.1791  0.3416  0.8942
  161DOPC   C3619481   3.178   0.645  16.329 -0.3886 -0.5694 -0.0961
  161DOPC   H6X19482   3.111   0.731  16.307  0.2567 -0.3835 -1.4281
  161DOPC   H6Y19483   3.284   0.678  16.330 -0.5313 -0.0923  0.7321
  161DOPC   C3719484   3.167   0.551  16.212 -0.2088 -0.2158 -0.7407
  161DOPC   H7X19485   3.201   0.449  16.240 -0.3609 -0.1493 -0.2946
  161DOPC   H7Y19486   3.061   0.533  16.184 -0.7328 -1.7215  1.7928
  161DOPC   C3819487   3.242   0.604  16.087  0.1795  0.6264 -0.1713
  161DOPC   H8X19488   3.347   0.612  16.123  0.5667 -0.4539 -1.0228
  161DOPC   H8Y19489   3.211   0.707  16.059 -1.6853  0.6894  1.8933
  161DOPC   C3919490   3.246   0.502  15.973  0.3878  0.0021  1.0029
  161DOPC   H9X19491   3.249   0.398  16.010  0.5098  0.4467  2.2807
  161DOPC  C31019492   3.214   0.525  15.849  0.2238 -0.6806 -0.0734
  161DOPC  H10X19493   3.231   0.445  15.776 -0.6481 -2.1453  1.2644
  161DOPC  C31119494   3.189   0.658  15.788 -0.2338  0.1046  0.9880
  161DOPC  H11X19495   3.232   0.738  15.851 -2.4096  0.1209  2.5357
  161DOPC  H11Y19496   3.078   0.662  15.786 -0.2566 -0.5648  0.4054
  161DOPC  C31219497   3.247   0.670  15.643  0.4400  0.4619 -0.3484
  161DOPC  H12X19498   3.349   0.626  15.648  1.0901  2.0591  2.4191
  161DOPC  H12Y19499   3.264   0.774  15.607 -0.3656  0.5584 -0.4818
  161DOPC  C31319500   3.158   0.597  15.541  0.6380  0.5801  0.3638
  161DOPC  H13X19501   3.130   0.502  15.592 -0.3980  0.4774 -0.3639
  161DOPC  H13Y19502   3.064   0.650  15.513  0.6247  0.0178 -0.6714
  161DOPC  C31419503   3.234   0.566  15.413 -0.7548  0.2231  1.0418
  161DOPC  H14X19504   3.238   0.658  15.350  0.3856 -0.7948 -0.4428
  161DOPC  H14Y19505   3.338   0.536  15.439  0.1934  0.2660 -2.2451
  161DOPC  C31519506   3.187   0.456  15.309  0.0283 -0.0303 -0.5361
  161DOPC  H15X19507   3.078   0.472  15.298 -0.0756  0.7382  1.2447
  161DOPC  H15Y19508   3.204   0.368  15.374  4.0954  0.9416  0.0285
  161DOPC  C31619509   3.260   0.462  15.173  0.1814  0.4167  0.1234
  161DOPC  H16X19510   3.369   0.474  15.187  0.4174 -2.0505  0.7128
  161DOPC  H16Y19511   3.247   0.356  15.143 -1.1891  0.6798 -0.2735
  161DOPC  C31719512   3.204   0.558  15.075  0.6906  0.1097 -0.2266
  161DOPC  H17X19513   3.107   0.525  15.032  0.8341 -0.0385 -0.4350
  161DOPC  H17Y19514   3.176   0.652  15.128 -1.7729 -0.3995 -0.4767
  161DOPC  C31819515   3.300   0.601  14.960  0.4716 -0.3893 -0.2737
  161DOPC  H18X19516   3.244   0.659  14.884  1.8312  1.6753  0.2160
  161DOPC  H18Y19517   3.380   0.665  15.003 -1.0738  0.6698  1.1643
  161DOPC  H18Z19518   3.346   0.515  14.907 -0.0597  1.1844 -3.5226
  162DOPC     N19519   0.910   6.434  17.590  0.0850  0.7484  0.2268
  162DOPC   C1219520   0.914   6.377  17.442  0.2886  0.0506 -0.1910
  162DOPC  H12A19521   0.916   6.270  17.459 -0.3751  0.3763  2.5598
  162DOPC  H12B19522   1.007   6.407  17.397  0.7401  0.2371  0.8368
  162DOPC   C1319523   0.853   6.572  17.592  0.2816 -0.5234  0.3545
  162DOPC  H13A19524   0.905   6.643  17.529  1.1618 -1.5182 -0.0674
  162DOPC  H13B19525   0.755   6.560  17.549  0.2939 -0.7629  0.3915
  162DOPC  H13C19526   0.841   6.603  17.694 -0.2092  1.5658 -0.2895
  162DOPC   C1419527   1.048   6.418  17.645  0.4057 -0.5149 -0.1901
  162DOPC  H14A19528   1.112   6.470  17.575  0.8245  0.0752  0.6135
  162DOPC  H14B19529   1.058   6.450  17.748  0.8135 -0.9190 -0.1034
  162DOPC  H14C19530   1.070   6.313  17.648  4.2807  0.1485  3.2372
  162DOPC   C1519531   0.821   6.343  17.668 -0.6463  0.0766  0.0218
  162DOPC  H15A19532   0.722   6.352  17.627  0.8256  4.2128 -3.4148
  162DOPC  H15B19533   0.818   6.380  17.769  0.0543  0.2844 -0.0266
  162DOPC  H15C19534   0.857   6.241  17.662 -2.4003 -0.5013 -4.1593
  162DOPC   C1119535   0.792   6.415  17.356  0.5118 -0.8097 -0.4031
  162DOPC  H11A19536   0.804   6.525  17.341 -1.9570 -0.4738 -0.3543
  162DOPC  H11B19537   0.814   6.368  17.258 -1.1904 -0.9555 -0.7399
  162DOPC     P19538   0.622   6.215  17.386  0.1056  0.2338  0.4605
  162DOPC   O1319539   0.478   6.199  17.424 -0.5758  0.3972 -0.0300
  162DOPC   O1419540   0.712   6.124  17.460 -0.3944  0.7571  0.5560
  162DOPC   O1219541   0.670   6.363  17.408  0.1741 -0.4892 -0.3541
  162DOPC   O1119542   0.644   6.199  17.226  0.2911 -0.1212  0.0308
  162DOPC    C119543   0.582   6.301  17.143  0.3765 -0.0783 -1.0139
  162DOPC    HA19544   0.597   6.404  17.180  1.5159 -0.2534 -0.9238
  162DOPC    HB19545   0.472   6.286  17.141  0.6713 -2.6686 -1.1401
  162DOPC    C219546   0.625   6.293  16.992  0.0852  0.0228 -0.1929
  162DOPC    HS19547   0.587   6.384  16.941  0.4599 -0.1990 -0.8767
  162DOPC   O2119548   0.574   6.170  16.934  0.1134 -0.3995  0.3166
  162DOPC   C2119549   0.549   6.178  16.807 -0.2606  0.3698 -0.3812
  162DOPC   O2219550   0.549   6.282  16.740 -0.2705  0.3121 -0.2482
  162DOPC   C2219551   0.510   6.044  16.750  0.2179  0.1338  0.4891
  162DOPC   H2R19552   0.429   6.008  16.817 -0.0279  1.2965  0.8431
  162DOPC   H2S19553   0.598   5.977  16.762  1.1295  1.1896 -0.1332
  162DOPC    C319554   0.782   6.278  16.980  0.0459 -0.1039  0.5398
  162DOPC    HX19555   0.829   6.199  17.043  2.3367  0.6751 -0.1099
  162DOPC    HY19556   0.835   6.363  17.028  1.1469 -1.1980  1.3325
  162DOPC   O3119557   0.825   6.267  16.839 -0.1886 -0.2563  0.5614
  162DOPC   C3119558   0.857   6.367  16.772 -0.3347 -0.8074  0.3324
  162DOPC   O3219559   0.874   6.484  16.806 -0.3280  0.1727  0.2419
  162DOPC   C3219560   0.880   6.318  16.636 -0.4209  0.2891  0.4938
  162DOPC   H2X19561   0.983   6.279  16.640 -1.2262 -1.8423  2.1345
  162DOPC   H2Y19562   0.809   6.236  16.612 -2.5317  1.7803  1.3196
  162DOPC   C2319563   0.461   6.039  16.602  0.1969  0.0079 -0.1555
  162DOPC   H3R19564   0.390   6.123  16.590  0.5404  0.0175 -2.7017
  162DOPC   H3S19565   0.407   5.944  16.577  0.2483 -0.4716  1.4542
  162DOPC   C2419566   0.567   6.053  16.494  0.3375  0.3093 -0.4018
  162DOPC   H4R19567   0.651   5.981  16.509  0.0732  0.6087  3.5624
  162DOPC   H4S19568   0.613   6.153  16.503  0.2010  0.2868  0.7683
  162DOPC   C2519569   0.497   6.038  16.360  0.0726 -0.0148 -0.7329
  162DOPC   H5R19570   0.409   6.106  16.359 -0.2922 -0.3503  1.6362
  162DOPC   H5S19571   0.463   5.936  16.333 -0.2184  0.4365 -2.1820
  162DOPC   C2619572   0.586   6.079  16.240  0.3000 -0.1719 -0.2519
  162DOPC   H6R19573   0.671   6.011  16.216  1.3416  1.0934 -0.2966
  162DOPC   H6S19574   0.628   6.179  16.264 -1.6674  0.7119 -0.3459
  162DOPC   C2719575   0.498   6.108  16.115 -0.3210  0.0708 -0.7127
  162DOPC   H7R19576   0.408   6.172  16.132 -0.9745 -0.9340 -0.2919
  162DOPC   H7S19577   0.446   6.016  16.081 -1.8607 -0.0670  1.7674
  162DOPC   C2819578   0.569   6.177  16.000 -0.2270 -0.7142  0.0372
  162DOPC   H8R19579   0.626   6.254  16.057  0.8762  0.1021 -2.0656
  162DOPC   H8S19580   0.503   6.236  15.934  2.3333  0.2139 -1.8618
  162DOPC   C2919581   0.664   6.098  15.928 -0.2283  0.3413  1.1497
  162DOPC   H9R19582   0.763   6.076  15.971  0.8436  1.0590 -0.8200
  162DOPC  C21019583   0.641   6.048  15.803 -0.2717 -0.0987  0.1845
  162DOPC  H10R19584   0.713   5.976  15.760 -1.2932 -1.3093  0.4270
  162DOPC  C21119585   0.515   6.070  15.721 -0.1902 -0.1506 -0.2564
  162DOPC  H11R19586   0.448   6.148  15.761 -0.2608 -0.4541  0.2267
  162DOPC  H11S19587   0.461   5.973  15.728  1.5997 -1.2525 -0.8174
  162DOPC  C21219588   0.551   6.102  15.576 -0.1412 -0.4434  0.5057
  162DOPC  H12R19589   0.602   6.201  15.571  0.0630 -0.4570  2.0399
  162DOPC  H12S19590   0.457   6.125  15.522  1.1609  1.7299 -1.0410
  162DOPC  C21319591   0.630   6.004  15.495 -0.8423  0.5153 -0.2248
  162DOPC  H13R19592   0.593   5.900  15.507  2.1190 -0.6439 -0.2155
  162DOPC  H13S19593   0.730   5.995  15.542  0.0424  1.3155 -1.9005
  162DOPC  C21419594   0.666   6.054  15.357  0.3341 -0.8044  0.3471
  162DOPC  H14R19595   0.716   6.153  15.353 -1.6597  0.2583  0.4265
  162DOPC  H14S19596   0.566   6.067  15.310 -1.1122 -0.6337  3.2603
  162DOPC  C21519597   0.742   5.949  15.278 -0.6239  0.5002  0.3852
  162DOPC  H15R19598   0.685   5.854  15.282  1.9600 -1.2662 -1.5689
  162DOPC  H15S19599   0.833   5.929  15.339  0.3738 -1.0208 -1.4984
  162DOPC  C21619600   0.765   5.985  15.131 -0.4946 -0.1855 -0.1334
  162DOPC  H16R19601   0.824   6.079  15.125  0.3749 -0.3860  3.2439
  162DOPC  H16S19602   0.669   6.014  15.084 -0.4960  1.1744  0.6755
  162DOPC  C21719603   0.837   5.875  15.059 -1.4224  0.0898 -0.2758
  162DOPC  H17R19604   0.782   5.778  15.045 -0.8037 -0.6217  1.8948
  162DOPC  H17S19605   0.924   5.849  15.123 -1.4055  1.1086  0.1283
  162DOPC  C21819606   0.884   5.921  14.917  0.1730 -0.2097 -0.1036
  162DOPC  H18R19607   0.799   5.904  14.848 -0.4482  0.5462  0.4503
  162DOPC  H18S19608   0.972   5.863  14.882  0.6060  0.2278  0.2396
  162DOPC  H18T19609   0.925   6.024  14.906  3.9203 -1.6056 -0.7016
  162DOPC   C3319610   0.865   6.424  16.522 -0.8236 -0.2573  0.5474
  162DOPC   H3X19611   0.947   6.497  16.538 -0.3796 -0.7039  0.3325
  162DOPC   H3Y19612   0.778   6.492  16.532  2.5226  4.7214 -0.5826
  162DOPC   C3419613   0.875   6.360  16.384  0.0793  0.1751  0.1681
  162DOPC   H4X19614   0.773   6.332  16.351 -0.0223  0.1293  0.5238
  162DOPC   H4Y19615   0.948   6.278  16.370 -0.4059 -0.1588 -0.4744
  162DOPC   C3519616   0.916   6.455  16.267  0.1091 -0.3718 -0.8208
  162DOPC   H5X19617   1.020   6.488  16.284  1.0236 -3.5197  0.3456
  162DOPC   H5Y19618   0.841   6.537  16.257 -0.5829 -0.9270 -0.2778
  162DOPC   C3619619   0.917   6.374  16.132 -0.1913  0.2751  0.2705
  162DOPC   H6X19620   0.990   6.291  16.140 -0.7563 -0.2555 -0.0313
  162DOPC   H6Y19621   0.814   6.336  16.112 -0.2519  1.7555 -2.9857
  162DOPC   C3719622   0.956   6.463  16.011  0.0107  0.3277 -0.4322
  162DOPC   H7X19623   0.883   6.542  15.987  0.8386  0.9185 -1.0487
  162DOPC   H7Y19624   1.039   6.524  16.051 -0.2831 -0.0095  0.7437
  162DOPC   C3819625   1.004   6.387  15.889 -0.0234  0.7081 -0.3108
  162DOPC   H8X19626   1.051   6.290  15.916  0.2583  0.8293 -0.3637
  162DOPC   H8Y19627   1.087   6.449  15.849 -0.5624  1.6236 -0.0645
  162DOPC   C3919628   0.903   6.363  15.784  0.6633 -0.6083 -0.0843
  162DOPC   H9X19629   0.838   6.282  15.820 -0.9321  1.1121  1.1106
  162DOPC  C31019630   0.874   6.441  15.676 -0.2918 -0.1184  0.6065
  162DOPC  H10X19631   0.787   6.420  15.612  1.1485 -2.9019 -0.6020
  162DOPC  C31119632   0.934   6.570  15.633 -0.5143 -0.2137  0.4531
  162DOPC  H11X19633   1.013   6.605  15.703 -0.1097 -2.5887  1.2690
  162DOPC  H11Y19634   0.860   6.649  15.608  1.9303  2.5531  1.2964
  162DOPC  C31219635   1.024   6.558  15.505  0.2120  0.0373 -0.1330
  162DOPC  H12X19636   1.109   6.486  15.514  0.9840  1.0871  1.4347
  162DOPC  H12Y19637   1.064   6.660  15.491  0.0179 -0.1176 -2.0760
  162DOPC  C31319638   0.954   6.522  15.375  0.7173  0.4668 -0.0626
  162DOPC  H13X19639   0.927   6.415  15.366 -0.8011  0.8617 -0.4292
  162DOPC  H13Y19640   0.851   6.563  15.377 -1.0061 -3.2431 -2.1084
  162DOPC  C31419641   1.047   6.567  15.264 -0.7720 -0.2345  0.2781
  162DOPC  H14X19642   1.067   6.676  15.274 -0.2564 -0.1741 -1.1805
  162DOPC  H14Y19643   1.143   6.514  15.277 -0.2883  0.1538 -1.5240
  162DOPC  C31519644   0.995   6.541  15.126 -0.0386 -0.1493 -0.3796
  162DOPC  H15X19645   1.009   6.434  15.099 -0.6934  0.0389 -1.5360
  162DOPC  H15Y19646   1.058   6.603  15.058  3.7197 -0.5296  2.4452
  162DOPC  C31619647   0.847   6.582  15.103  0.4504 -0.0179  0.0131
  162DOPC  H16X19648   0.783   6.529  15.176  1.7504  0.4383  1.5216
  162DOPC  H16Y19649   0.839   6.691  15.122 -0.7206 -0.1040  0.1017
  162DOPC  C31719650   0.795   6.540  14.961 -0.0978 -0.0282 -0.0398
  162DOPC  H17X19651   0.848   6.592  14.877 -0.0410 -0.0559 -0.0217
  162DOPC  H17Y19652   0.802   6.430  14.949 -0.4280 -0.2958  2.0296
  162DOPC  C31819653   0.646   6.575  14.952 -0.1198  0.3254 -0.2464
  162DOPC  H18X19654   0.626   6.683  14.962 -1.4355 -0.0282  1.3479
  162DOPC  H18Y19655   0.600   6.524  14.864  0.7793 -0.7146 -0.1373
  162DOPC  H18Z19656   0.589   6.521  15.030  1.2015 -1.4385 -0.4254
  163DOPC     N19657   0.640   2.799  17.393  0.0327  0.0981  0.7189
  163DOPC   C1219658   0.713   2.785  17.264  0.4572  0.2613  0.3620
  163DOPC  H12A19659   0.763   2.689  17.256  0.4252  0.2449  0.3577
  163DOPC  H12B19660   0.795   2.854  17.274  1.0859 -0.7176  2.4610
  163DOPC   C1319661   0.526   2.706  17.406 -0.3702  0.1955  0.0244
  163DOPC  H13A19662   0.487   2.709  17.506  0.4461 -0.1153  0.3556
  163DOPC  H13B19663   0.445   2.733  17.340  0.2311 -2.2609 -1.8730
  163DOPC  H13C19664   0.552   2.602  17.391 -0.8355 -0.4359  3.0768
  163DOPC   C1419665   0.600   2.940  17.416  0.1323 -0.4427 -0.5701
  163DOPC  H14A19666   0.546   2.948  17.510  0.2874 -0.4396 -0.4805
  163DOPC  H14B19667   0.691   2.997  17.431  0.9567 -1.2410 -2.2632
  163DOPC  H14C19668   0.544   2.977  17.332  0.2954 -2.4564 -1.6159
  163DOPC   C1519669   0.734   2.751  17.505  0.0236 -0.1297 -0.9962
  163DOPC  H15A19670   0.788   2.662  17.478 -0.2437  0.1581 -2.5410
  163DOPC  H15B19671   0.691   2.727  17.601  0.2926 -0.1686 -0.8829
  163DOPC  H15C19672   0.802   2.830  17.535 -1.2829  0.0322  1.9580
  163DOPC   C1119673   0.634   2.811  17.130  0.2597 -0.1864  0.8622
  163DOPC  H11A19674   0.705   2.788  17.048 -0.5034  0.4634 -0.0032
  163DOPC  H11B19675   0.553   2.736  17.121 -0.5802  0.9457 -2.4765
  163DOPC     P19676   0.454   2.977  17.053 -0.2750 -0.1579  0.0685
  163DOPC   O1319677   0.451   3.121  17.030  0.8539  0.3000 -0.2242
  163DOPC   O1419678   0.337   2.920  17.123  0.1043 -0.5822  0.0615
  163DOPC   O1219679   0.589   2.948  17.128  0.2345  0.1398  0.1625
  163DOPC   O1119680   0.467   2.905  16.916  0.5497 -0.2254  0.7121
  163DOPC    C119681   0.577   2.944  16.828 -0.1367 -0.3271 -0.0316
  163DOPC    HA19682   0.634   2.855  16.793  1.0598 -0.2305  1.5921
  163DOPC    HB19683   0.665   2.994  16.873  1.2205 -2.1042 -0.5808
  163DOPC    C219684   0.514   3.029  16.710  0.1039  0.3989  0.3143
  163DOPC    HS19685   0.423   3.080  16.748  1.0678  2.2807  0.1865
  163DOPC   O2119686   0.484   2.930  16.614  0.5074 -0.2568 -0.1491
  163DOPC   C2119687   0.384   2.949  16.527  0.6087  0.4087  0.3865
  163DOPC   O2219688   0.307   3.039  16.538  0.2233 -0.0932 -0.2995
  163DOPC   C2219689   0.384   2.845  16.421  0.1534  1.0776 -0.1528
  163DOPC   H2R19690   0.349   2.749  16.466  0.3929  1.2353  0.3790
  163DOPC   H2S19691   0.491   2.830  16.395  1.4421  3.0355  3.2875
  163DOPC    C319692   0.614   3.134  16.654  0.3445 -0.0170 -0.5272
  163DOPC    HX19693   0.720   3.104  16.672  0.6513  1.3335  0.0974
  163DOPC    HY19694   0.587   3.226  16.710 -0.3407 -1.1297  1.0318
  163DOPC   O3119695   0.593   3.163  16.517  0.3053  0.4334 -0.1612
  163DOPC   C3119696   0.645   3.278  16.462 -0.2027  0.0555  0.0094
  163DOPC   O3219697   0.722   3.355  16.518 -0.1699  0.0016 -0.1684
  163DOPC   C3219698   0.577   3.309  16.329 -0.1893  0.7253 -0.0752
  163DOPC   H2X19699   0.468   3.324  16.337 -0.5504 -1.3792 -0.6536
  163DOPC   H2Y19700   0.623   3.403  16.291  0.3758  0.5761  0.2133
  163DOPC   C2319701   0.293   2.872  16.299 -0.3553 -0.1692  0.3989
  163DOPC   H3R19702   0.300   2.981  16.277 -1.2465 -0.0918  0.4699
  163DOPC   H3S19703   0.186   2.862  16.328 -0.3734  1.1481  0.8575
  163DOPC   C2419704   0.330   2.794  16.175  0.1936  0.2102  0.0286
  163DOPC   H4R19705   0.394   2.705  16.195 -0.9421 -0.5244  0.4786
  163DOPC   H4S19706   0.399   2.853  16.110 -0.1188 -0.2160 -0.7085
  163DOPC   C2519707   0.204   2.753  16.088  0.2393 -0.5669  0.0963
  163DOPC   H5R19708   0.140   2.843  16.082 -1.7724 -1.9871 -1.1066
  163DOPC   H5S19709   0.130   2.686  16.137 -0.8958  1.7578  1.7258
  163DOPC   C2619710   0.248   2.688  15.957  0.4186 -0.7842  0.1026
  163DOPC   H6R19711   0.337   2.622  15.965  1.1816 -0.0469 -1.6515
  163DOPC   H6S19712   0.280   2.771  15.890  1.1568 -1.5030 -0.4461
  163DOPC   C2719713   0.142   2.623  15.873  0.2461 -0.1334  0.2010
  163DOPC   H7R19714   0.048   2.680  15.892  1.6117  2.4145 -0.1144
  163DOPC   H7S19715   0.124   2.526  15.923  2.1840 -0.8637 -0.4274
  163DOPC   C2819716   0.171   2.615  15.725  0.1504  0.1518  0.2421
  163DOPC   H8R19717   0.280   2.597  15.716  0.0321 -0.9347  0.8385
  163DOPC   H8S19718   0.146   2.718  15.691  1.6347  0.9331  1.4096
  163DOPC   C2919719   0.099   2.512  15.657  0.0367  0.4010 -0.4531
  163DOPC   H9R19720   0.076   2.424  15.720 -0.3147  1.2291  0.6157
  163DOPC  C21019721   0.051   2.520  15.529  0.0525  0.7946 -0.7581
  163DOPC  H10R19722  -0.004   2.435  15.485  0.1893  1.2261 -1.7820
  163DOPC  C21119723   0.069   2.635  15.436 -0.5257 -0.3034 -0.3918
  163DOPC  H11R19724   0.158   2.691  15.472 -0.8101 -0.0797 -0.0294
  163DOPC  H11S19725  -0.019   2.704  15.443  0.1630  0.4427  2.4759
  163DOPC  C21219726   0.107   2.597  15.295 -0.7447  0.4062  0.5002
  163DOPC  H12R19727   0.019   2.539  15.262 -0.9402 -1.7291  4.2095
  163DOPC  H12S19728   0.195   2.529  15.290 -0.6286  0.3530  2.4247
  163DOPC  C21319729   0.121   2.718  15.192 -0.2959  0.0744  0.0432
  163DOPC  H13R19730   0.182   2.796  15.243  0.1389 -1.0384  1.3105
  163DOPC  H13S19731   0.029   2.778  15.175  0.1446  1.4508  2.0335
  163DOPC  C21419732   0.197   2.674  15.066  0.5305 -0.2051  0.3188
  163DOPC  H14R19733   0.149   2.586  15.018  3.3134 -1.6479 -0.0768
  163DOPC  H14S19734   0.304   2.652  15.088  1.0876  0.0814 -1.8793
  163DOPC  C21519735   0.207   2.782  14.952 -0.1972 -0.0140  0.0113
  163DOPC  H15R19736   0.291   2.759  14.883 -1.2642 -0.0826 -1.2948
  163DOPC  H15S19737   0.236   2.875  15.005 -0.6416 -0.2097  0.6022
  163DOPC  C21619738   0.083   2.803  14.869  0.7530  0.0608 -0.3090
  163DOPC  H16R19739   0.048   2.908  14.872 -0.4178 -0.3369  1.8462
  163DOPC  H16S19740   0.002   2.737  14.907  1.4526 -0.7080 -0.1307
  163DOPC  C21719741   0.098   2.764  14.720  0.5928  0.5725  0.1747
  163DOPC  H17R19742   0.163   2.843  14.677 -0.7801  2.4504  1.3912
  163DOPC  H17S19743  -0.004   2.770  14.677  0.1244  1.2463  1.3426
  163DOPC  C21819744   0.166   2.628  14.685  0.1409  0.6352 -0.2831
  163DOPC  H18R19745   0.257   2.600  14.741 -0.3785 -1.2011 -0.2986
  163DOPC  H18S19746   0.189   2.622  14.576  0.8349 -0.9293 -0.0695
  163DOPC  H18T19747   0.080   2.558  14.697  0.6992 -0.0684 -0.3732
  163DOPC   C3319748   0.603   3.204  16.216 -0.0808 -0.1539 -0.2499
  163DOPC   H3X19749   0.576   3.110  16.270 -1.5379  0.5279  0.2729
  163DOPC   H3Y19750   0.703   3.195  16.170 -0.6107 -1.5152 -1.2063
  163DOPC   C3419751   0.493   3.229  16.105 -0.6404  1.0044 -0.3237
  163DOPC   H4X19752   0.503   3.332  16.063 -0.3657  1.0134 -0.2425
  163DOPC   H4Y19753   0.397   3.212  16.156  0.9043 -1.0983  2.1313
  163DOPC   C3519754   0.522   3.130  15.983  0.5297  0.2457  0.4041
  163DOPC   H5X19755   0.526   3.025  16.021 -2.6267 -0.6254 -1.2755
  163DOPC   H5Y19756   0.621   3.143  15.935 -0.6846  3.0500 -1.6261
  163DOPC   C3619757   0.412   3.122  15.875  0.1287  0.1330 -0.4442
  163DOPC   H6X19758   0.319   3.095  15.930  0.9407 -1.9634 -0.0210
  163DOPC   H6Y19759   0.393   3.224  15.834 -0.3323  0.3519  0.3018
  163DOPC   C3719760   0.439   3.018  15.772 -0.9806  0.0508 -0.3762
  163DOPC   H7X19761   0.537   3.040  15.723  0.0135  2.1489  2.3240
  163DOPC   H7Y19762   0.452   2.929  15.838 -0.0816  1.3539  1.2870
  163DOPC   C3819763   0.333   3.002  15.669 -0.0731 -0.8125  0.1920
  163DOPC   H8X19764   0.311   3.103  15.629 -0.0704 -0.3577  1.2938
  163DOPC   H8Y19765   0.241   2.974  15.726  1.0931 -2.3210  1.4034
  163DOPC   C3919766   0.364   2.900  15.561 -0.0303 -0.8610  0.7107
  163DOPC   H9X19767   0.381   2.800  15.604  0.9613 -0.1106  2.1603
  163DOPC  C31019768   0.368   2.922  15.431  0.0846  0.5197  0.4528
  163DOPC  H10X19769   0.390   2.836  15.366 -0.2840  1.8053 -1.4602
  163DOPC  C31119770   0.356   3.056  15.362 -0.5514  0.4445  0.1381
  163DOPC  H11X19771   0.409   3.137  15.417  0.4302 -0.0873 -0.0063
  163DOPC  H11Y19772   0.251   3.092  15.356 -0.7607 -0.2602 -0.6555
  163DOPC  C31219773   0.412   3.050  15.216 -0.3379  0.5083 -0.4317
  163DOPC  H12X19774   0.366   2.964  15.163 -1.9234  0.4625  0.9178
  163DOPC  H12Y19775   0.521   3.032  15.221 -0.1077  2.1045  2.4890
  163DOPC  C31319776   0.391   3.179  15.148  0.2816 -0.5926  0.0618
  163DOPC  H13X19777   0.286   3.206  15.124  1.4735  1.7950 -3.0395
  163DOPC  H13Y19778   0.433   3.261  15.208 -0.5515 -0.7419  0.8806
  163DOPC  C31419779   0.462   3.188  15.008 -0.3530 -0.4411 -0.3488
  163DOPC  H14X19780   0.565   3.149  15.017 -0.1099  0.5559  1.8833
  163DOPC  H14Y19781   0.408   3.122  14.938 -1.7913  0.8302 -0.4979
  163DOPC  C31519782   0.450   3.326  14.941  0.4723  0.7179  0.6404
  163DOPC  H15X19783   0.546   3.355  14.893 -0.0020  0.4831 -0.4903
  163DOPC  H15Y19784   0.432   3.407  15.014  0.2740  0.8670  0.4268
  163DOPC  C31619785   0.338   3.326  14.833 -0.1033 -0.0995 -0.2071
  163DOPC  H16X19786   0.365   3.248  14.758 -2.8294 -1.1567 -0.2133
  163DOPC  H16Y19787   0.237   3.302  14.871 -0.0244  2.4321  1.8142
  163DOPC  C31719788   0.331   3.456  14.758  0.2257  0.3083 -0.6472
  163DOPC  H17X19789   0.252   3.515  14.809 -1.1167 -0.5561 -1.6253
  163DOPC  H17Y19790   0.419   3.521  14.777 -1.5656  2.1795  1.9683
  163DOPC  C31819791   0.296   3.454  14.607  0.0877 -0.3698 -0.3511
  163DOPC  H18X19792   0.277   3.559  14.578 -2.5345 -0.8792 -0.7679
  163DOPC  H18Y19793   0.383   3.416  14.550  1.7387  0.1859  1.7046
  163DOPC  H18Z19794   0.203   3.397  14.585 -1.3373  1.2943  1.0060
  164DOPC     N19795   0.318   2.069  17.504  0.1895  0.6497 -0.7246
  164DOPC   C1219796   0.217   2.184  17.516 -0.2901  0.0241 -0.7156
  164DOPC  H12A19797   0.121   2.144  17.486 -0.5631 -2.5192  2.9102
  164DOPC  H12B19798   0.251   2.260  17.448 -2.5126  0.6587 -1.1902
  164DOPC   C1319799   0.445   2.134  17.540 -0.1789 -0.5426  0.5115
  164DOPC  H13A19800   0.444   2.170  17.642 -0.5392 -0.6509  0.5452
  164DOPC  H13B19801   0.533   2.071  17.533 -0.1839 -0.9170  2.8096
  164DOPC  H13C19802   0.465   2.217  17.475 -1.5646 -0.1274  0.5992
  164DOPC   C1419803   0.327   2.019  17.363  0.4068  0.1394 -0.5674
  164DOPC  H14A19804   0.236   1.986  17.316 -1.1452  1.2148  1.5397
  164DOPC  H14B19805   0.374   2.093  17.300  1.5609  0.3574  0.5168
  164DOPC  H14C19806   0.386   1.928  17.366 -0.5413 -0.5113 -1.0446
  164DOPC   C1519807   0.286   1.957  17.599  0.1837  0.1278  0.3083
  164DOPC  H15A19808   0.251   1.995  17.694 -0.1557 -0.4842  0.4345
  164DOPC  H15B19809   0.379   1.907  17.621  0.5886  0.5952 -0.2905
  164DOPC  H15C19810   0.211   1.887  17.566 -0.6174  1.0049  0.2288
  164DOPC   C1119811   0.205   2.238  17.654 -0.6623 -0.2825 -0.4519
  164DOPC  H11A19812   0.099   2.228  17.687 -0.1313 -0.9215  1.1735
  164DOPC  H11B19813   0.272   2.179  17.720  1.8577  0.2707 -2.3558
  164DOPC     P19814   0.203   2.482  17.571 -0.1054 -0.5381  0.1819
  164DOPC   O1319815   0.237   2.614  17.625 -0.0062 -0.5410 -0.6343
  164DOPC   O1419816   0.057   2.453  17.549  0.1614  0.7048  0.3911
  164DOPC   O1219817   0.258   2.372  17.662  0.7674 -0.8116  0.9735
  164DOPC   O1119818   0.280   2.465  17.436 -0.2376 -0.1905 -0.1975
  164DOPC    C119819   0.220   2.478  17.306  0.2843  0.0249 -0.2747
  164DOPC    HA19820   0.220   2.584  17.273  1.9878 -0.3993 -1.8118
  164DOPC    HB19821   0.116   2.440  17.307  1.1813 -2.6381  0.0104
  164DOPC    C219822   0.284   2.394  17.197  0.2151  0.2699 -0.2300
  164DOPC    HS19823   0.295   2.293  17.242 -2.8984  0.8625  2.1824
  164DOPC   O2119824   0.413   2.451  17.159 -0.1006 -0.0757  0.1235
  164DOPC   C2119825   0.503   2.358  17.122  0.3239  0.1241  0.1288
  164DOPC   O2219826   0.489   2.236  17.127  0.2325 -0.5745  0.4651
  164DOPC   C2219827   0.634   2.418  17.074  0.4682 -0.6614 -0.4168
  164DOPC   H2R19828   0.711   2.342  17.096  1.2123 -0.2680 -1.5779
  164DOPC   H2S19829   0.652   2.516  17.123  2.7131 -0.3308 -1.7818
  164DOPC    C319830   0.185   2.375  17.076 -0.4973  0.3900 -0.2526
  164DOPC    HX19831   0.154   2.477  17.043 -1.2265  0.2887  0.0748
  164DOPC    HY19832   0.086   2.337  17.109 -1.1189  0.1893 -2.2163
  164DOPC   O3119833   0.235   2.293  16.970  0.1220  0.6777 -0.2732
  164DOPC   C3119834   0.242   2.166  16.999 -0.4690 -0.1780  0.5044
  164DOPC   O3219835   0.195   2.114  17.099  0.1100  0.0123 -0.2662
  164DOPC   C3219836   0.339   2.083  16.908  0.3574 -0.5859 -0.5995
  164DOPC   H2X19837   0.442   2.125  16.906  0.3879 -0.6944 -1.5234
  164DOPC   H2Y19838   0.355   1.988  16.962  2.0421  0.5182  0.9496
  164DOPC   C2319839   0.626   2.431  16.912 -0.2485  0.5936  0.1570
  164DOPC   H3R19840   0.585   2.334  16.877 -0.3387  0.2372  1.2158
  164DOPC   H3S19841   0.731   2.438  16.878 -0.3519  1.8200  0.0267
  164DOPC   C2419842   0.542   2.551  16.860 -0.0185 -0.3875 -0.1880
  164DOPC   H4R19843   0.609   2.639  16.853  1.7645 -1.6839 -0.2744
  164DOPC   H4S19844   0.460   2.576  16.930  0.1312  0.1279 -0.1924
  164DOPC   C2519845   0.496   2.534  16.721 -0.5947 -0.0812 -0.1599
  164DOPC   H5R19846   0.421   2.611  16.694 -1.9910 -2.3473 -3.3271
  164DOPC   H5S19847   0.446   2.435  16.712 -1.3522  0.2265  0.5148
  164DOPC   C2619848   0.613   2.549  16.623 -0.1588 -0.5523 -1.5464
  164DOPC   H6R19849   0.700   2.490  16.660  0.7814  1.0854 -1.0340
  164DOPC   H6S19850   0.650   2.654  16.626 -0.8394 -0.3052  2.1417
  164DOPC   C2719851   0.579   2.504  16.480 -0.3890  0.4726 -0.2380
  164DOPC   H7R19852   0.482   2.555  16.462 -0.9877 -0.6777 -0.3394
  164DOPC   H7S19853   0.565   2.394  16.482 -2.5882  0.6653 -1.4647
  164DOPC   C2819854   0.670   2.545  16.365  0.0486 -0.5612 -0.1639
  164DOPC   H8R19855   0.694   2.653  16.363 -1.0352 -0.2574  1.3193
  164DOPC   H8S19856   0.620   2.523  16.268 -2.2458 -0.6921  0.9783
  164DOPC   C2919857   0.801   2.468  16.378  0.2692 -0.0849 -0.0464
  164DOPC   H9R19858   0.840   2.470  16.481 -1.8379 -0.5385  0.8144
  164DOPC  C21019859   0.862   2.390  16.293  0.4492  0.3049  0.8016
  164DOPC  H10R19860   0.954   2.337  16.322  0.5015  0.7245  1.4319
  164DOPC  C21119861   0.822   2.363  16.150  0.2984  0.0121  0.9470
  164DOPC  H11R19862   0.748   2.435  16.108 -1.0064 -3.0271 -2.5978
  164DOPC  H11S19863   0.770   2.264  16.153 -0.7294  0.4372 -1.0050
  164DOPC  C21219864   0.945   2.368  16.057 -0.2147 -0.4619 -0.2672
  164DOPC  H12R19865   1.001   2.273  16.071 -0.6319 -0.4979  1.3999
  164DOPC  H12S19866   1.016   2.451  16.082  0.3276 -0.6820 -1.0559
  164DOPC  C21319867   0.918   2.376  15.910 -0.1978  0.2410 -0.0806
  164DOPC  H13R19868   0.856   2.462  15.878  1.0944  1.0560 -0.4466
  164DOPC  H13S19869   0.865   2.283  15.879  2.9554 -0.9878 -2.2558
  164DOPC  C21419870   1.044   2.383  15.825 -0.0900 -0.5016 -0.4797
  164DOPC  H14R19871   1.024   2.320  15.735 -1.7129  0.5394 -0.8773
  164DOPC  H14S19872   1.120   2.336  15.892 -0.6890 -1.1492 -0.2445
  164DOPC  C21519873   1.094   2.521  15.793 -0.7235 -0.5096 -0.3862
  164DOPC  H15R19874   1.135   2.561  15.887  0.7043 -1.0629 -0.7485
  164DOPC  H15S19875   1.003   2.579  15.765  0.6300  1.8015 -0.2238
  164DOPC  C21619876   1.202   2.537  15.680  0.0960  0.1407  0.0442
  164DOPC  H16R19877   1.167   2.477  15.594 -2.6267  1.6106  0.0397
  164DOPC  H16S19878   1.300   2.499  15.717 -0.9905 -2.1897  0.6754
  164DOPC  C21719879   1.228   2.681  15.644 -0.1436 -0.2060  0.3643
  164DOPC  H17R19880   1.139   2.744  15.665  1.0995  1.8339 -0.1509
  164DOPC  H17S19881   1.238   2.682  15.533 -0.5016  0.4984  0.3355
  164DOPC  C21819882   1.346   2.741  15.712 -0.4407 -0.3697  0.1756
  164DOPC  H18R19883   1.360   2.848  15.686  3.4562 -0.6408  0.5333
  164DOPC  H18S19884   1.439   2.685  15.689  0.4060  0.1031  2.2252
  164DOPC  H18T19885   1.336   2.734  15.823  0.2712 -0.5356  0.2334
  164DOPC   C3319886   0.286   2.058  16.765  0.5815 -0.6183 -0.0157
  164DOPC   H3X19887   0.177   2.049  16.784  0.6430  1.5259  1.7030
  164DOPC   H3Y19888   0.323   1.962  16.724  1.6036 -0.5622  0.7375
  164DOPC   C3419889   0.317   2.170  16.665 -0.3430  0.0927  0.7578
  164DOPC   H4X19890   0.426   2.177  16.646 -0.4463  0.7320  0.3788
  164DOPC   H4Y19891   0.284   2.266  16.710 -1.6015 -0.8275  1.8927
  164DOPC   C3519892   0.255   2.137  16.526 -0.2047  0.2730 -0.3997
  164DOPC   H5X19893   0.147   2.119  16.541 -0.6279  1.8661 -1.2917
  164DOPC   H5Y19894   0.305   2.052  16.476  1.5045 -1.0084  3.1658
  164DOPC   C3619895   0.254   2.262  16.430 -0.3768  0.6181 -0.0279
  164DOPC   H6X19896   0.214   2.346  16.491  1.1391  0.1718  1.6894
  164DOPC   H6Y19897   0.360   2.286  16.409 -0.5552 -0.3887 -2.3441
  164DOPC   C3719898   0.179   2.223  16.303 -0.5982  0.1129  0.3248
  164DOPC   H7X19899   0.224   2.126  16.271 -2.0314 -0.4889  0.0796
  164DOPC   H7Y19900   0.077   2.199  16.340 -0.8321 -0.5116 -0.6942
  164DOPC   C3819901   0.185   2.330  16.200  0.0437 -0.2761 -0.8104
  164DOPC   H8X19902   0.291   2.363  16.186  0.4301 -1.1547 -0.0444
  164DOPC   H8Y19903   0.132   2.413  16.251  0.3432 -0.0798 -0.8176
  164DOPC   C3919904   0.120   2.298  16.066  0.5490  0.3742 -0.6291
  164DOPC   H9X19905   0.021   2.344  16.054 -1.1691 -2.4348  1.3272
  164DOPC  C31019906   0.183   2.233  15.966 -0.1069 -0.6802  0.8606
  164DOPC  H10X19907   0.123   2.201  15.880  0.3692 -1.1359  0.6945
  164DOPC  C31119908   0.332   2.220  15.949  0.0860  0.2407 -0.1614
  164DOPC  H11X19909   0.349   2.110  15.955 -0.6652  0.0983 -0.5082
  164DOPC  H11Y19910   0.394   2.268  16.028 -1.7856 -0.6622  1.9616
  164DOPC  C31219911   0.380   2.284  15.817  0.1188  0.6026  0.0734
  164DOPC  H12X19912   0.363   2.394  15.821  0.0700  0.6251 -0.6209
  164DOPC  H12Y19913   0.325   2.232  15.736  0.2326  0.0808  0.3252
  164DOPC  C31319914   0.530   2.263  15.790  0.1916 -0.1376 -0.2552
  164DOPC  H13X19915   0.594   2.304  15.870 -1.2446 -0.3180  1.0338
  164DOPC  H13Y19916   0.553   2.155  15.774 -0.4196 -0.1107 -1.4454
  164DOPC  C31419917   0.572   2.343  15.666  0.1957 -0.2536 -0.1066
  164DOPC  H14X19918   0.682   2.339  15.651 -0.1977 -0.8660 -3.8142
  164DOPC  H14Y19919   0.541   2.448  15.686 -1.4012 -0.5811 -0.7508
  164DOPC  C31519920   0.502   2.308  15.541  0.2044  0.1258  0.2509
  164DOPC  H15X19921   0.392   2.320  15.548 -0.0872 -1.7805 -0.3819
  164DOPC  H15Y19922   0.537   2.204  15.522 -0.1102 -0.1752  1.2316
  164DOPC  C31619923   0.548   2.395  15.417 -0.8264  0.0564 -0.0972
  164DOPC  H16X19924   0.522   2.501  15.438  0.7170  0.0933  1.9398
  164DOPC  H16Y19925   0.657   2.376  15.409 -0.9196 -0.2381 -0.6966
  164DOPC  C31719926   0.472   2.363  15.288 -0.0142  0.4994  0.1364
  164DOPC  H17X19927   0.498   2.257  15.266 -0.6361 -0.0410  1.8542
  164DOPC  H17Y19928   0.363   2.369  15.305 -0.1607  2.1313 -1.1588
  164DOPC  C31819929   0.514   2.445  15.161  0.1645  0.6868  0.2180
  164DOPC  H18X19930   0.502   2.553  15.183 -0.5416  0.3514  1.5602
  164DOPC  H18Y19931   0.610   2.418  15.111  0.5035  1.4935  0.4078
  164DOPC  H18Z19932   0.439   2.421  15.083 -0.0894  1.6593  0.1531
  165DOPC     N19933   3.787   2.548  17.400  0.6844  0.1686 -0.0920
  165DOPC   C1219934   3.821   2.560  17.245  0.3452 -0.2090  0.1261
  165DOPC  H12A19935   3.769   2.648  17.208 -0.1808 -0.0242  1.2642
  165DOPC  H12B19936   3.779   2.470  17.203  2.0081 -1.2041  0.5239
  165DOPC   C1319937   3.840   2.672  17.472  0.3670 -0.2093  0.0367
  165DOPC  H13A19938   3.946   2.688  17.485  0.3227 -0.3157  0.5520
  165DOPC  H13B19939   3.796   2.762  17.430  1.7631  1.1584  1.3831
  165DOPC  H13C19940   3.807   2.678  17.575  1.6403  2.2262  0.3942
  165DOPC   C1419941   3.850   2.423  17.457  0.5334  0.0206  0.0582
  165DOPC  H14A19942   3.957   2.428  17.444  0.6210  0.2576  0.8188
  165DOPC  H14B19943   3.837   2.405  17.563 -0.3724 -0.1870 -0.0747
  165DOPC  H14C19944   3.809   2.337  17.406 -1.2319  1.2019 -0.6284
  165DOPC   C1519945   3.639   2.553  17.415  0.2387 -0.6582  0.7220
  165DOPC  H15A19946   3.605   2.653  17.393 -2.4988 -1.6832 -0.1194
  165DOPC  H15B19947   3.601   2.529  17.514 -0.3898 -2.0999  0.1565
  165DOPC  H15C19948   3.601   2.488  17.338  1.4520  0.1787 -0.6286
  165DOPC   C1119949   3.977   2.567  17.201  0.0994 -0.0141 -0.4057
  165DOPC  H11A19950   3.986   2.595  17.094  1.4932  1.5987  0.0910
  165DOPC  H11B19951   4.013   2.657  17.256  0.0345  0.4028 -1.0309
  165DOPC     P19952   4.026   2.327  17.131 -0.1078 -0.2987  0.4134
  165DOPC   O1319953   3.887   2.307  17.101  0.1070 -0.5016 -0.2107
  165DOPC   O1419954   4.108   2.209  17.172  0.5194 -0.0074  0.2143
  165DOPC   O1219955   4.047   2.446  17.238 -0.4477 -0.0120  0.1111
  165DOPC   O1119956   4.095   2.393  17.001  0.2332  0.2882  0.0917
  165DOPC    C119957   4.231   2.432  16.992  0.2546  0.0059 -0.8657
  165DOPC    HA19958   4.297   2.344  16.976  1.7759  0.7191  1.0841
  165DOPC    HB19959   4.269   2.476  17.087 -1.5317  0.3663 -0.2738
  165DOPC    C219960   4.252   2.541  16.882 -0.0345  0.6198  0.2430
  165DOPC    HS19961   4.190   2.628  16.910  0.0694  1.3791 -1.7250
  165DOPC   O2119962   4.192   2.501  16.762  0.0129  0.2438  0.5994
  165DOPC   C2119963   4.252   2.410  16.689 -0.0371  0.4111 -0.2941
  165DOPC   O2219964   4.346   2.341  16.720 -0.9809  0.5663 -0.2163
  165DOPC   C2219965   4.188   2.415  16.556  0.1210  0.7121  0.1812
  165DOPC   H2R19966   4.159   2.518  16.527  0.7808  0.3324 -2.0538
  165DOPC   H2S19967   4.100   2.347  16.558  1.6970 -1.4176  0.5023
  165DOPC    C319968   4.402   2.587  16.863 -0.1405 -0.1477 -0.1936
  165DOPC    HX19969   4.465   2.498  16.846 -0.2192 -0.3539  0.5682
  165DOPC    HY19970   4.437   2.637  16.955 -1.6183  0.2087  0.2029
  165DOPC   O3119971   4.423   2.672  16.747 -0.3075  0.4227  0.7460
  165DOPC   C3119972   4.354   2.787  16.753 -0.5948  0.0204 -0.4625
  165DOPC   O3219973   4.310   2.837  16.854  0.3638 -0.4624 -0.1465
  165DOPC   C3219974   4.380   2.867  16.621  0.4325 -0.5240 -0.7983
  165DOPC   H2X19975   4.377   2.977  16.637 -0.0095 -0.2906 -2.2951
  165DOPC   H2Y19976   4.486   2.837  16.606  0.2813 -4.3825  3.5021
  165DOPC   C2319977   4.277   2.365  16.438 -0.1054 -0.0076  0.6181
  165DOPC   H3R19978   4.302   2.260  16.466  2.3897 -0.0823 -1.5295
  165DOPC   H3S19979   4.364   2.433  16.430  0.6184 -0.8980  0.8634
  165DOPC   C2419980   4.201   2.374  16.300  0.4571 -0.5478 -0.2552
  165DOPC   H4R19981   4.161   2.477  16.288 -0.7504 -0.9097  0.4531
  165DOPC   H4S19982   4.112   2.309  16.315  0.1733 -0.3448 -1.0076
  165DOPC   C2519983   4.282   2.327  16.187  0.0752  0.0042  0.2500
  165DOPC   H5R19984   4.328   2.226  16.193 -0.4804 -0.3618 -1.2738
  165DOPC   H5S19985   4.354   2.412  16.176 -2.6434  2.3836 -0.2930
  165DOPC   C2619986   4.197   2.333  16.063  0.2780 -0.2292  0.1331
  165DOPC   H6R19987   4.189   2.437  16.024  1.1020 -1.0310 -2.4132
  165DOPC   H6S19988   4.099   2.280  16.070  0.4382 -0.4417  0.8367
  165DOPC   C2719989   4.279   2.268  15.949 -0.0703  0.3134  0.2875
  165DOPC   H7R19990   4.306   2.167  15.984 -2.0710 -0.0999  0.7486
  165DOPC   H7S19991   4.362   2.338  15.924 -0.5351  1.0130  0.6460
  165DOPC   C2819992   4.189   2.258  15.827 -0.2451 -0.3779 -0.2682
  165DOPC   H8R19993   4.155   2.361  15.803  1.1528 -0.5183 -3.2839
  165DOPC   H8S19994   4.096   2.206  15.858  0.1608  0.0160  1.7481
  165DOPC   C2919995   4.257   2.191  15.713 -0.0204  0.5608  0.5598
  165DOPC   H9R19996   4.251   2.081  15.722 -1.6267  0.4926 -0.8209
  165DOPC  C21019997   4.306   2.245  15.607  0.1752  0.1219 -0.1917
  165DOPC  H10R19998   4.333   2.172  15.529 -0.2543 -1.3956  1.0339
  165DOPC  C21119999   4.299   2.387  15.568 -0.2251 -0.2044  0.1067
  165DOPC  H11R20000   4.379   2.427  15.503  0.7068 -2.3945 -0.1565
  165DOPC  H11S20001   4.293   2.441  15.665 -2.1517 -1.9073  1.0231
  165DOPC  C21220002   4.167   2.411  15.484  0.5793 -0.2389 -0.0212
  165DOPC  H12R20003   4.169   2.519  15.459  0.2161 -0.3934 -0.7433
  165DOPC  H12S20004   4.078   2.377  15.539  1.3420 -1.6407  0.3964
  165DOPC  C21320005   4.158   2.347  15.344 -0.5210 -0.2767 -0.1194
  165DOPC  H13R20006   4.058   2.365  15.298  0.2662  1.6832 -1.1569
  165DOPC  H13S20007   4.158   2.236  15.347 -0.4172 -0.3065 -0.9785
  165DOPC  C21420008   4.269   2.378  15.241  0.4258  0.9497  0.2006
  165DOPC  H14R20009   4.260   2.304  15.159 -1.1057 -0.8867  1.9090
  165DOPC  H14S20010   4.367   2.349  15.285  1.1466 -0.6297 -2.2249
  165DOPC  C21520011   4.263   2.516  15.187  0.4679 -0.0743  0.0946
  165DOPC  H15R20012   4.263   2.588  15.271  2.9740  0.2602 -0.1023
  165DOPC  H15S20013   4.162   2.539  15.146  0.8097  2.4953  0.5267
  165DOPC  C21620014   4.366   2.548  15.076 -0.1304  0.2233 -0.6353
  165DOPC  H16R20015   4.390   2.457  15.017 -0.2987  0.4751 -1.0923
  165DOPC  H16S20016   4.458   2.572  15.134 -0.6143 -1.2098  0.8303
  165DOPC  C21720017   4.332   2.664  14.990 -0.7149 -0.6554 -0.1157
  165DOPC  H17R20018   4.283   2.741  15.053 -0.2559 -1.9987  1.9999
  165DOPC  H17S20019   4.262   2.633  14.908 -1.1605 -0.8149  0.3187
  165DOPC  C21820020   4.460   2.719  14.918  0.0986  0.0952  0.2490
  165DOPC  H18R20021   4.425   2.809  14.864  1.4679 -0.1060 -1.0266
  165DOPC  H18S20022   4.492   2.652  14.836 -1.0145 -0.0902 -0.0523
  165DOPC  H18T20023   4.543   2.743  14.988 -0.6447  2.5096  0.3866
  165DOPC   C3320024   4.283   2.811  16.516 -0.7769 -0.6843  0.2397
  165DOPC   H3X20025   4.185   2.861  16.534  0.7554  2.7733 -0.1866
  165DOPC   H3Y20026   4.269   2.701  16.513  0.2623 -0.8037 -1.2500
  165DOPC   C3420027   4.316   2.855  16.376 -0.1784  0.0024  0.3662
  165DOPC   H4X20028   4.410   2.803  16.346  0.3340  0.1535  1.6399
  165DOPC   H4Y20029   4.330   2.965  16.365  1.1103 -0.2076 -0.2854
  165DOPC   C3520030   4.211   2.811  16.273  0.2930  0.1789  0.6839
  165DOPC   H5X20031   4.142   2.898  16.271  1.1717  0.9144  1.3057
  165DOPC   H5Y20032   4.176   2.710  16.301 -0.3872  0.4221  0.7111
  165DOPC   C3620033   4.275   2.785  16.135 -0.3314  0.2742  0.0653
  165DOPC   H6X20034   4.352   2.863  16.116 -1.0888  0.5452 -2.2240
  165DOPC   H6Y20035   4.330   2.689  16.129 -0.6156 -0.0235  1.7248
  165DOPC   C3720036   4.173   2.798  16.018 -0.5437 -0.6080  0.1403
  165DOPC   H7X20037   4.152   2.904  15.991 -2.4791 -0.7675  0.8026
  165DOPC   H7Y20038   4.079   2.754  16.057 -0.3282 -0.2939  1.0671
  165DOPC   C3820039   4.228   2.727  15.897  0.4398 -0.2162 -0.5580
  165DOPC   H8X20040   4.266   2.628  15.931  0.1692 -0.0313  0.2881
  165DOPC   H8Y20041   4.313   2.789  15.862  1.2365 -1.4294 -0.8427
  165DOPC   C3920042   4.133   2.703  15.782  0.5082  0.2193  0.1027
  165DOPC   H9X20043   4.061   2.621  15.793  1.5345 -0.5796  1.0630
  165DOPC  C31020044   4.144   2.761  15.659 -0.2531 -0.6377 -0.4923
  165DOPC  H10X20045   4.068   2.737  15.583 -0.9810 -0.5563  0.1966
  165DOPC  C31120046   4.240   2.864  15.607  0.7381 -0.1166  1.0102
  165DOPC  H11X20047   4.333   2.818  15.566  0.6708  0.1728  0.5264
  165DOPC  H11Y20048   4.264   2.932  15.692 -1.0554  0.3814  1.1492
  165DOPC  C31220049   4.187   2.955  15.496  0.3933  0.2350  0.4018
  165DOPC  H12X20050   4.268   3.027  15.472  0.4119 -0.1628 -0.8315
  165DOPC  H12Y20051   4.097   3.005  15.538 -0.4903 -2.2000  1.6083
  165DOPC  C31320052   4.161   2.878  15.368  0.5061  0.1170  0.3695
  165DOPC  H13X20053   4.245   2.872  15.295 -0.4284  0.3984 -0.7524
  165DOPC  H13Y20054   4.118   2.777  15.388  0.4174 -0.0247 -0.5106
  165DOPC  C31420055   4.063   2.959  15.283  0.3794 -0.2147  0.6792
  165DOPC  H14X20056   3.979   2.991  15.348 -1.1000  0.5908 -1.5240
  165DOPC  H14Y20057   4.119   3.050  15.253 -0.4013  0.0069 -0.1589
  165DOPC  C31520058   4.001   2.885  15.158 -0.0653 -0.0966  0.2741
  165DOPC  H15X20059   4.085   2.847  15.096  0.3668  0.1548  0.6908
  165DOPC  H15Y20060   3.950   2.961  15.095  1.3571  1.0939  0.4767
  165DOPC  C31620061   3.905   2.760  15.178 -0.0198 -0.3240 -0.0090
  165DOPC  H16X20062   3.960   2.670  15.214  0.5671 -0.1010 -0.3359
  165DOPC  H16Y20063   3.819   2.792  15.240  1.3849  0.7034  1.4805
  165DOPC  C31720064   3.848   2.720  15.038 -0.5711  0.3318  0.3057
  165DOPC  H17X20065   3.752   2.668  15.057  0.6021 -1.5985  1.1960
  165DOPC  H17Y20066   3.830   2.807  14.971 -3.3038 -0.4513 -0.1183
  165DOPC  C31820067   3.933   2.611  14.966  0.3003  0.2635 -0.8622
  165DOPC  H18X20068   3.905   2.602  14.859  0.3005 -1.6845 -0.7232
  165DOPC  H18Y20069   4.041   2.640  14.962  0.1724  0.7793 -0.6476
  165DOPC  H18Z20070   3.934   2.515  15.020  0.1393 -0.8124 -2.6835
  166DOPC     N20071   0.005   3.196  17.176  0.4336  0.0636  0.5045
  166DOPC   C1220072  -0.095   3.288  17.109 -0.3605 -0.7479 -0.3946
  166DOPC  H12A20073  -0.128   3.232  17.022  2.8008 -2.7572 -0.4674
  166DOPC  H12B20074  -0.038   3.372  17.074 -0.9263 -0.2250 -0.0875
  166DOPC   C1320075   0.089   3.270  17.280  0.8301  0.1911 -0.5001
  166DOPC  H13A20076   0.162   3.336  17.236  0.5747 -0.3151 -1.7333
  166DOPC  H13B20077   0.022   3.333  17.337  0.0561  0.3555 -1.5495
  166DOPC  H13C20078   0.138   3.200  17.345  2.0756  0.3337 -1.2472
  166DOPC   C1420079   0.096   3.130  17.073  0.2488 -0.4843 -0.5627
  166DOPC  H14A20080   0.144   3.210  17.018  2.3143 -2.0606 -1.2368
  166DOPC  H14B20081   0.169   3.057  17.105 -1.4405 -2.3274 -0.7297
  166DOPC  H14C20082   0.030   3.076  17.006 -0.1785  1.3529 -1.6846
  166DOPC   C1520083  -0.068   3.089  17.250 -0.2264  0.5165  0.1210
  166DOPC  H15A20084  -0.005   3.022  17.308 -0.7773  1.1633  1.5213
  166DOPC  H15B20085  -0.124   3.029  17.180  2.9576 -1.5892 -0.8548
  166DOPC  H15C20086  -0.143   3.137  17.312  0.9034 -0.0241  2.0013
  166DOPC   C1120087  -0.210   3.350  17.188 -0.3750  0.4166 -0.2132
  166DOPC  H11A20088  -0.176   3.403  17.279 -1.1335 -2.3770  1.8095
  166DOPC  H11B20089  -0.264   3.429  17.131 -1.5303  0.9313  1.5272
  166DOPC     P20090  -0.402   3.189  17.150  0.8329  0.0075  0.3394
  166DOPC   O1320091  -0.534   3.209  17.222  0.1437  0.3971  0.6953
  166DOPC   O1420092  -0.352   3.052  17.128 -0.2267 -0.1710  0.6096
  166DOPC   O1220093  -0.287   3.250  17.239  0.4335  0.3951 -0.1148
  166DOPC   O1120094  -0.393   3.262  17.010 -0.5446 -0.2533  0.6811
  166DOPC    C120095  -0.472   3.381  16.979  0.4531 -0.5501  0.2799
  166DOPC    HA20096  -0.414   3.449  16.913  0.8154 -1.0811  0.0476
  166DOPC    HB20097  -0.490   3.437  17.073  2.5168  1.5426 -0.4599
  166DOPC    C220098  -0.605   3.350  16.906  0.3697  0.7526 -0.4284
  166DOPC    HS20099  -0.658   3.280  16.973  0.4811 -1.0577 -2.1397
  166DOPC   O2120100  -0.590   3.300  16.774  0.6047  0.4395  0.0629
  166DOPC   C2120101  -0.671   3.210  16.736  0.0469 -0.2374 -0.2271
  166DOPC   O2220102  -0.754   3.153  16.805 -0.2917  0.2566 -0.1694
  166DOPC   C2220103  -0.636   3.167  16.591  0.3710  0.3333 -1.2181
  166DOPC   H2R20104  -0.697   3.075  16.576  1.7025 -0.9292  0.6831
  166DOPC   H2S20105  -0.527   3.147  16.593  0.6737  1.8659 -0.9790
  166DOPC    C320106  -0.694   3.477  16.901 -0.2018  0.1745 -0.0835
  166DOPC    HX20107  -0.706   3.509  17.006 -0.4854 -0.6487  0.1460
  166DOPC    HY20108  -0.795   3.443  16.869 -0.3676 -0.2949  0.9004
  166DOPC   O3120109  -0.641   3.581  16.812 -0.0716  0.5798  0.1009
  166DOPC   C3120110  -0.695   3.698  16.824  0.1401  0.1280  0.2603
  166DOPC   O3220111  -0.782   3.726  16.905 -0.2956 -0.5984 -0.4473
  166DOPC   C3220112  -0.652   3.784  16.710 -0.1794 -0.2290 -0.0001
  166DOPC   H2X20113  -0.634   3.887  16.747  0.4026 -0.0500 -0.7558
  166DOPC   H2Y20114  -0.559   3.739  16.668 -0.8762 -0.5862 -1.2133
  166DOPC   C2320115  -0.678   3.263  16.490 -0.2877 -0.7813  0.2233
  166DOPC   H3R20116  -0.616   3.355  16.490  1.1046 -1.6843 -0.8221
  166DOPC   H3S20117  -0.781   3.301  16.510  0.1818  0.8173 -0.2556
  166DOPC   C2420118  -0.662   3.201  16.343  0.5806 -0.4739 -0.7894
  166DOPC   H4R20119  -0.744   3.127  16.332 -0.1103 -0.5100  3.1822
  166DOPC   H4S20120  -0.559   3.159  16.331  0.9791  0.1935  0.1958
  166DOPC   C2520121  -0.668   3.315  16.233 -0.5400  0.0582 -0.4673
  166DOPC   H5R20122  -0.595   3.395  16.256 -2.5077  2.5226 -2.2710
  166DOPC   H5S20123  -0.768   3.362  16.230 -0.5305  0.0357 -1.2879
  166DOPC   C2620124  -0.628   3.253  16.104 -0.0308 -0.5278  0.8709
  166DOPC   H6R20125  -0.688   3.167  16.069 -0.6101 -0.4421  1.6346
  166DOPC   H6S20126  -0.525   3.210  16.102 -0.0444 -0.5451 -0.4282
  166DOPC   C2720127  -0.634   3.361  15.990 -0.1343  0.3895 -0.2771
  166DOPC   H7R20128  -0.564   3.335  15.908  2.4471  1.0640  1.5840
  166DOPC   H7S20129  -0.594   3.456  16.031 -1.2416 -0.2314  2.4333
  166DOPC   C2820130  -0.774   3.377  15.933  0.1837  0.1975 -0.0359
  166DOPC   H8R20131  -0.767   3.467  15.868  0.5357  1.1837  1.3089
  166DOPC   H8S20132  -0.853   3.409  16.004 -1.0269 -2.3115 -0.1659
  166DOPC   C2920133  -0.823   3.264  15.850 -0.2156 -0.0644  0.0691
  166DOPC   H9R20134  -0.914   3.216  15.890 -0.5587 -0.2912 -0.9735
  166DOPC  C21020135  -0.791   3.233  15.723  0.4470  0.0727 -0.4382
  166DOPC  H10R20136  -0.830   3.142  15.675 -1.2649  1.2096 -1.3191
  166DOPC  C21120137  -0.696   3.308  15.642 -0.2864 -0.1066  0.7490
  166DOPC  H11R20138  -0.595   3.267  15.666  0.6045  0.8750 -1.0850
  166DOPC  H11S20139  -0.701   3.414  15.674 -0.6740  0.2263 -0.3725
  166DOPC  C21220140  -0.704   3.288  15.488 -0.1881 -0.5043 -0.3055
  166DOPC  H12R20141  -0.709   3.180  15.462 -0.0876  0.0849 -3.1014
  166DOPC  H12S20142  -0.617   3.324  15.430 -1.5395  1.8761 -0.9976
  166DOPC  C21320143  -0.818   3.366  15.422  0.3417 -0.0129  0.4832
  166DOPC  H13R20144  -0.807   3.473  15.447 -2.9709  0.2510  1.2823
  166DOPC  H13S20145  -0.911   3.318  15.460  1.9337 -2.1427  1.9404
  166DOPC  C21420146  -0.828   3.346  15.271 -0.2433 -0.2246  0.2719
  166DOPC  H14R20147  -0.852   3.240  15.248  2.7239 -0.8753 -0.1974
  166DOPC  H14S20148  -0.731   3.366  15.220  0.2825 -1.4901  0.7441
  166DOPC  C21520149  -0.942   3.428  15.208  0.1591 -0.3250 -0.0940
  166DOPC  H15R20150  -0.921   3.535  15.228 -0.5556 -0.1919 -0.0044
  166DOPC  H15S20151  -1.042   3.415  15.255  0.2477  0.8101  0.4345
  166DOPC  C21620152  -0.960   3.401  15.059  0.1221  0.0729  0.4274
  166DOPC  H16R20153  -1.053   3.454  15.030  0.9231  0.2792 -2.0158
  166DOPC  H16S20154  -0.986   3.293  15.056  0.8635 -0.0934 -0.7299
  166DOPC  C21720155  -0.847   3.443  14.968 -0.1235  0.4166  0.2714
  166DOPC  H17R20156  -0.751   3.392  14.990 -0.8902 -0.3957  1.8804
  166DOPC  H17S20157  -0.825   3.552  14.973  0.5734  0.2969 -0.1035
  166DOPC  C21820158  -0.880   3.409  14.817 -0.3114 -0.8607 -0.2572
  166DOPC  H18R20159  -0.960   3.476  14.778  0.9015  0.2320 -0.9552
  166DOPC  H18S20160  -0.920   3.306  14.809 -0.1558 -0.7870 -2.6073
  166DOPC  H18T20161  -0.792   3.414  14.750 -2.2738 -1.5392 -3.0529
  166DOPC   C3320162  -0.765   3.787  16.601 -0.2790  0.2148 -0.3083
  166DOPC   H3X20163  -0.859   3.824  16.648 -0.7056  2.3286 -2.6069
  166DOPC   H3Y20164  -0.791   3.682  16.574  0.8745 -0.3958  0.8492
  166DOPC   C3420165  -0.745   3.865  16.469  0.3958  0.6331 -0.6216
  166DOPC   H4X20166  -0.742   3.975  16.483 -1.6772  0.8806 -1.7950
  166DOPC   H4Y20167  -0.836   3.856  16.406 -0.0087  1.4760 -0.1746
  166DOPC   C3520168  -0.628   3.808  16.383  0.0074  0.4934 -0.0800
  166DOPC   H5X20169  -0.663   3.704  16.364 -0.2404  0.4910  0.3764
  166DOPC   H5Y20170  -0.530   3.793  16.435  0.3473 -0.2977 -0.9261
  166DOPC   C3620171  -0.590   3.888  16.261  0.8715 -0.6536  0.1626
  166DOPC   H6X20172  -0.543   3.983  16.294 -0.6573 -0.3415  1.5848
  166DOPC   H6Y20173  -0.516   3.828  16.203  1.0623 -0.2991  0.0337
  166DOPC   C3720174  -0.708   3.915  16.170 -0.8217 -0.6293 -0.1918
  166DOPC   H7X20175  -0.749   3.815  16.143  0.8575 -1.0622 -1.3326
  166DOPC   H7Y20176  -0.778   3.983  16.223  1.8924  3.6274 -1.5419
  166DOPC   C3820177  -0.673   3.968  16.024  0.0441 -0.5938  0.3682
  166DOPC   H8X20178  -0.570   3.929  16.009  0.6117 -0.0054  2.4352
  166DOPC   H8Y20179  -0.667   4.079  16.031  1.2967 -0.6687  0.8017
  166DOPC   C3920180  -0.777   3.931  15.917  0.2530  0.3617 -0.2108
  166DOPC   H9X20181  -0.864   3.883  15.964  1.6691 -1.9165  0.2257
  166DOPC  C31020182  -0.764   3.928  15.784  0.1097 -0.7073  0.4423
  166DOPC  H10X20183  -0.851   3.903  15.722  1.8906 -1.3802 -1.9497
  166DOPC  C31120184  -0.632   3.978  15.721 -0.4677  0.6390  0.0047
  166DOPC  H11X20185  -0.552   3.985  15.798  0.0995 -0.5255 -0.4551
  166DOPC  H11Y20186  -0.640   4.081  15.682  0.0927  0.3888 -0.7972
  166DOPC  C31220187  -0.597   3.888  15.601  0.6278  0.0839  0.0446
  166DOPC  H12X20188  -0.627   3.786  15.635  1.0713  0.5727  2.0350
  166DOPC  H12Y20189  -0.487   3.884  15.585  0.6750  1.3654 -0.0370
  166DOPC  C31320190  -0.668   3.921  15.471  0.0536 -0.1744  0.5011
  166DOPC  H13X20191  -0.777   3.921  15.491  0.1582  1.0104  1.1373
  166DOPC  H13Y20192  -0.630   4.019  15.435 -1.8085  0.4011 -0.0060
  166DOPC  C31420193  -0.644   3.820  15.354  0.4666 -0.5913 -0.0679
  166DOPC  H14X20194  -0.539   3.789  15.339  0.5226 -0.7150  0.5538
  166DOPC  H14Y20195  -0.699   3.725  15.374  0.0021 -0.7401 -1.8859
  166DOPC  C31520196  -0.696   3.874  15.219  0.2531 -0.5186 -0.2109
  166DOPC  H15X20197  -0.642   3.970  15.204 -2.5562  1.2870  0.5830
  166DOPC  H15Y20198  -0.806   3.891  15.220  0.2662 -0.2229  2.6005
  166DOPC  C31620199  -0.658   3.778  15.105  0.3954  0.3935  0.1527
  166DOPC  H16X20200  -0.559   3.727  15.115  0.6657  0.1424 -2.8717
  166DOPC  H16Y20201  -0.733   3.696  15.108  0.6037  0.2296  1.3579
  166DOPC  C31720202  -0.651   3.835  14.964  0.2663  0.1073  0.5016
  166DOPC  H17X20203  -0.744   3.889  14.936  0.0943 -0.0529  0.7650
  166DOPC  H17Y20204  -0.565   3.906  14.965  0.5364 -0.2203  1.2449
  166DOPC  C31820205  -0.624   3.730  14.857  0.1564 -0.3080  0.2492
  166DOPC  H18X20206  -0.709   3.659  14.842  0.1037 -0.0168 -0.9119
  166DOPC  H18Y20207  -0.610   3.770  14.755 -2.1733 -1.7576 -0.7206
  166DOPC  H18Z20208  -0.535   3.667  14.880  0.7549 -0.3580 -1.9701
  167DOPC     N20209   6.273   1.502  17.971 -0.3974  0.2037 -0.1546
  167DOPC   C1220210   6.198   1.422  17.875 -0.1506  0.8228 -0.2812
  167DOPC  H12A20211   6.176   1.328  17.924 -0.3915  0.1984 -1.5238
  167DOPC  H12B20212   6.266   1.391  17.797 -0.2230  0.0465 -0.0523
  167DOPC   C1320213   6.382   1.414  18.034  0.3292  0.5640 -1.5185
  167DOPC  H13A20214   6.429   1.461  18.119  1.8902 -0.5474 -1.7354
  167DOPC  H13B20215   6.344   1.319  18.069  0.7514  0.9461  0.0703
  167DOPC  H13C20216   6.458   1.385  17.963  0.1637 -0.8097 -1.1648
  167DOPC   C1420217   6.179   1.548  18.077  0.3111  0.2797 -0.3488
  167DOPC  H14A20218   6.139   1.459  18.124  0.6532  0.6104  0.5914
  167DOPC  H14B20219   6.235   1.592  18.158 -0.2003 -1.0633  0.7707
  167DOPC  H14C20220   6.091   1.602  18.045 -0.4477 -0.7777 -0.1080
  167DOPC   C1520221   6.332   1.623  17.903 -0.1070 -0.2579 -0.3644
  167DOPC  H15A20222   6.372   1.687  17.981  0.8893 -1.1810 -0.0993
  167DOPC  H15B20223   6.252   1.672  17.850 -0.6148 -0.2590  0.3730
  167DOPC  H15C20224   6.399   1.594  17.824  2.3073  2.1595  0.6411
  167DOPC   C1120225   6.070   1.473  17.815  0.3013 -0.2044  0.3944
  167DOPC  H11A20226   6.079   1.568  17.759  2.6181 -0.8251 -0.3902
  167DOPC  H11B20227   6.041   1.402  17.735 -0.0776  1.6589 -1.1930
  167DOPC     P20228   5.869   1.367  17.930 -0.1741  0.3495  0.1245
  167DOPC   O1320229   5.755   1.421  18.005 -0.2729  0.2190  0.2378
  167DOPC   O1420230   5.933   1.246  17.985  1.0459  0.0764 -0.6135
  167DOPC   O1220231   5.960   1.491  17.905 -0.4551  0.2163 -0.1755
  167DOPC   O1120232   5.824   1.335  17.777  0.0635  0.2202  0.4164
  167DOPC    C120233   5.770   1.441  17.699 -0.2369  0.2584 -0.2250
  167DOPC    HA20234   5.794   1.420  17.592 -0.6017  3.0058 -0.9188
  167DOPC    HB20235   5.817   1.538  17.726  0.6629 -1.0937  3.7275
  167DOPC    C220236   5.617   1.439  17.689  0.4635  0.3845  0.5348
  167DOPC    HS20237   5.569   1.438  17.790 -1.4539  3.7250 -0.1779
  167DOPC   O2120238   5.572   1.327  17.605 -0.1447  0.1350  0.0652
  167DOPC   C2120239   5.459   1.267  17.622 -0.1077 -0.0550  0.0763
  167DOPC   O2220240   5.379   1.294  17.713 -0.0371  0.8260  0.5526
  167DOPC   C2220241   5.432   1.167  17.508  0.0803  0.7410 -0.1710
  167DOPC   H2R20242   5.457   1.068  17.553 -0.8175 -1.1643 -3.5355
  167DOPC   H2S20243   5.505   1.178  17.425 -0.8317 -1.6964 -1.3782
  167DOPC    C320244   5.573   1.575  17.635  0.1304 -0.0034 -0.0439
  167DOPC    HX20245   5.601   1.656  17.707  1.7759  0.2296 -0.9073
  167DOPC    HY20246   5.464   1.557  17.637 -0.0045  0.7314  1.4906
  167DOPC   O3120247   5.624   1.602  17.507  0.2028 -0.2086 -0.2512
  167DOPC   C3120248   5.554   1.588  17.401 -0.0827 -0.1167 -0.2489
  167DOPC   O3220249   5.443   1.533  17.395 -0.3844 -0.1408 -0.4524
  167DOPC   C3220250   5.625   1.662  17.284  0.6660 -0.1098 -0.1816
  167DOPC   H2X20251   5.602   1.771  17.287 -1.4149 -0.4715 -0.9007
  167DOPC   H2Y20252   5.735   1.648  17.286  0.7273  0.1916 -0.9761
  167DOPC   C2320253   5.287   1.151  17.452  0.7014 -0.2555 -0.2689
  167DOPC   H3R20254   5.219   1.151  17.540  1.8288 -1.8509  0.6501
  167DOPC   H3S20255   5.284   1.052  17.400  0.6985 -0.6335  0.4330
  167DOPC   C2420256   5.244   1.269  17.353  0.1870 -0.4554 -0.0455
  167DOPC   H4R20257   5.270   1.360  17.411 -0.7644 -1.4345  2.0378
  167DOPC   H4S20258   5.137   1.270  17.327 -0.0727  0.9409  0.9231
  167DOPC   C2520259   5.337   1.258  17.230  0.5642 -0.0136  0.1848
  167DOPC   H5R20260   5.370   1.153  17.211 -3.1159 -1.0203 -1.5951
  167DOPC   H5S20261   5.432   1.309  17.254  0.3791  0.3645  0.1223
  167DOPC   C2620262   5.267   1.312  17.096 -0.3867  0.4929  0.0686
  167DOPC   H6R20263   5.223   1.412  17.115  1.2223  1.1632  0.3569
  167DOPC   H6S20264   5.181   1.241  17.086 -0.0250  0.0884 -0.2234
  167DOPC   C2720265   5.373   1.311  16.978 -0.4645 -0.0166 -0.2845
  167DOPC   H7R20266   5.419   1.211  16.960  1.3512  0.8297 -0.5284
  167DOPC   H7S20267   5.459   1.373  17.008 -1.2094  0.7053  0.4282
  167DOPC   C2820268   5.306   1.358  16.847  0.1766 -0.0541 -0.5997
  167DOPC   H8R20269   5.210   1.307  16.823 -0.2190  1.9965 -4.1652
  167DOPC   H8S20270   5.372   1.330  16.762  0.7798  0.1286 -0.1969
  167DOPC   C2920271   5.283   1.506  16.860 -0.1535 -0.0780  0.0211
  167DOPC   H9R20272   5.187   1.527  16.909 -0.9392 -1.3161 -0.8977
  167DOPC  C21020273   5.339   1.606  16.797 -0.1716 -0.1084  0.4008
  167DOPC  H10R20274   5.310   1.711  16.811 -1.2815 -0.2920 -0.4278
  167DOPC  C21120275   5.452   1.598  16.700  0.5878  0.9255  0.2875
  167DOPC  H11R20276   5.493   1.495  16.700 -0.1553  0.5078 -3.2226
  167DOPC  H11S20277   5.533   1.669  16.728  1.9622 -0.9728  1.2817
  167DOPC  C21220278   5.399   1.629  16.559 -0.0762 -0.0883  0.5903
  167DOPC  H12R20279   5.293   1.597  16.550 -1.0017  2.9280 -0.5536
  167DOPC  H12S20280   5.409   1.738  16.541  1.4093 -0.3990 -0.6496
  167DOPC  C21320281   5.476   1.549  16.447  0.0653 -0.4819 -0.7513
  167DOPC  H13R20282   5.465   1.439  16.459 -1.3846 -0.4211 -1.2599
  167DOPC  H13S20283   5.583   1.567  16.469 -0.4412  1.7478  0.1223
  167DOPC  C21420284   5.443   1.601  16.308 -0.5261 -0.3136  0.3430
  167DOPC  H14R20285   5.451   1.710  16.286 -0.2528 -0.2650  0.6769
  167DOPC  H14S20286   5.338   1.572  16.285 -1.2495  0.0340  2.8932
  167DOPC  C21520287   5.535   1.533  16.204 -0.1816  0.2136  0.1877
  167DOPC  H15R20288   5.487   1.563  16.109 -1.4101  2.1586  1.3422
  167DOPC  H15S20289   5.543   1.423  16.215  2.0182  0.2559 -0.4198
  167DOPC  C21620290   5.683   1.583  16.208  0.4966  0.2478 -0.2051
  167DOPC  H16R20291   5.732   1.520  16.131  2.5334  0.0234  1.1842
  167DOPC  H16S20292   5.746   1.579  16.300  0.2576 -0.2346 -0.0564
  167DOPC  C21720293   5.690   1.722  16.148  0.1494  0.1500 -0.6188
  167DOPC  H17R20294   5.654   1.799  16.219  2.4759 -0.5888  1.5399
  167DOPC  H17S20295   5.627   1.734  16.057 -3.5075  1.4430  1.8574
  167DOPC  C21820296   5.833   1.762  16.120  0.5927  0.5568  0.1450
  167DOPC  H18R20297   5.835   1.867  16.085 -1.6320  0.6197  0.0715
  167DOPC  H18S20298   5.869   1.687  16.046  0.3468 -0.8993  1.4416
  167DOPC  H18T20299   5.896   1.752  16.211 -0.8892 -0.0837  1.1397
  167DOPC   C3320300   5.568   1.597  17.156 -0.3771  0.0250 -0.2430
  167DOPC   H3X20301   5.458   1.605  17.147 -0.7231 -1.2956  2.0831
  167DOPC   H3Y20302   5.577   1.487  17.169 -3.3336 -0.4968 -1.7456
  167DOPC   C3420303   5.652   1.642  17.037 -0.4084  0.5469 -0.1735
  167DOPC   H4X20304   5.626   1.576  16.951 -2.0759 -1.0687  1.4790
  167DOPC   H4Y20305   5.761   1.626  17.054 -0.6160 -0.8642 -0.0210
  167DOPC   C3520306   5.623   1.787  17.003 -0.2845 -0.2510  0.4685
  167DOPC   H5X20307   5.638   1.864  17.082 -2.8870 -1.4764  2.3140
  167DOPC   H5Y20308   5.519   1.798  16.966 -0.9683 -2.7440  1.4689
  167DOPC   C3620309   5.718   1.837  16.890  0.5485 -0.5577 -0.7246
  167DOPC   H6X20310   5.815   1.873  16.930 -0.7520  1.1288  1.1240
  167DOPC   H6Y20311   5.727   1.752  16.820 -0.5059 -1.4370  0.1632
  167DOPC   C3720312   5.666   1.969  16.824 -0.3162  0.0759  0.5826
  167DOPC   H7X20313   5.569   1.942  16.777 -1.4177  2.5426  1.2553
  167DOPC   H7Y20314   5.643   2.030  16.914 -2.6230 -1.8146  1.3968
  167DOPC   C3820315   5.755   2.019  16.716  0.0710  0.4038  0.0131
  167DOPC   H8X20316   5.862   2.012  16.747  0.4712  0.0217 -1.3719
  167DOPC   H8Y20317   5.743   2.129  16.699  3.1442  0.7549 -0.5825
  167DOPC   C3920318   5.754   1.934  16.587 -0.2400 -0.0734 -0.2314
  167DOPC   H9X20319   5.793   1.831  16.594 -0.2553  0.0314  1.8835
  167DOPC  C31020320   5.717   1.976  16.468 -0.4597  0.5459 -0.2886
  167DOPC  H10X20321   5.702   1.890  16.401 -2.4709 -0.0309  0.8608
  167DOPC  C31120322   5.668   2.102  16.417  0.9422 -0.3838 -0.1157
  167DOPC  H11X20323   5.725   2.139  16.330 -1.8653 -1.1790 -2.4507
  167DOPC  H11Y20324   5.690   2.180  16.493  0.8926 -0.9254  0.4715
  167DOPC  C31220325   5.518   2.098  16.382 -0.7027 -0.1914 -0.1438
  167DOPC  H12X20326   5.478   2.201  16.381  1.2523  0.6814 -2.8738
  167DOPC  H12Y20327   5.457   2.050  16.461 -1.3291  0.5978 -0.1377
  167DOPC  C31320328   5.480   2.043  16.244  0.4068  0.5691  0.2109
  167DOPC  H13X20329   5.484   1.932  16.255 -0.9574  0.4921  0.1369
  167DOPC  H13Y20330   5.376   2.073  16.220 -0.2663 -0.7409  1.3083
  167DOPC  C31420331   5.573   2.095  16.137  1.1672 -0.3266  0.5762
  167DOPC  H14X20332   5.565   2.203  16.114  2.2723 -0.0172  1.5111
  167DOPC  H14Y20333   5.682   2.073  16.147  1.7017  1.4382 -0.9550
  167DOPC  C31520334   5.543   2.043  15.990 -0.1224 -0.1618 -0.7954
  167DOPC  H15X20335   5.453   2.097  15.953 -1.3246 -1.5886 -0.0940
  167DOPC  H15Y20336   5.513   1.937  16.001 -0.0570 -0.2218 -1.2072
  167DOPC  C31620337   5.662   2.063  15.895  0.2188 -0.1997  0.4113
  167DOPC  H16X20338   5.684   2.168  15.869  0.2608  0.0621  1.4491
  167DOPC  H16Y20339   5.755   2.028  15.943  2.1518  3.9970  0.1169
  167DOPC  C31720340   5.639   1.986  15.763 -0.1803 -0.3351  0.0750
  167DOPC  H17X20341   5.737   1.971  15.712 -0.5709 -2.0925 -0.2336
  167DOPC  H17Y20342   5.618   1.880  15.791  0.7169 -0.4082  0.5141
  167DOPC  C31820343   5.524   2.028  15.673 -0.0218 -0.5508 -0.6156
  167DOPC  H18X20344   5.433   2.056  15.729 -0.6964  1.2023 -2.4647
  167DOPC  H18Y20345   5.549   2.115  15.608 -2.2708 -0.4362 -1.4107
  167DOPC  H18Z20346   5.496   1.938  15.613  0.4670 -1.6042  0.6839
  168DOPC     N20347   1.625   1.069  17.882 -0.0833 -0.1977  0.1951
  168DOPC   C1220348   1.645   1.112  17.739  0.2947  0.2030 -0.0905
  168DOPC  H12A20349   1.685   1.029  17.683  1.8997  0.3494  0.7707
  168DOPC  H12B20350   1.715   1.194  17.744  0.7139 -0.2188  3.2188
  168DOPC   C1320351   1.737   0.990  17.931  0.1714  0.2183  0.4486
  168DOPC  H13A20352   1.826   1.034  17.972 -0.4245  0.6031  1.3536
  168DOPC  H13B20353   1.706   0.945  18.024  0.2501 -0.4229  0.1730
  168DOPC  H13C20354   1.762   0.914  17.859  0.8452  1.9470 -1.2372
  168DOPC   C1420355   1.504   0.983  17.890  0.0041  0.3859  0.3117
  168DOPC  H14A20356   1.493   0.946  17.991  0.7456 -1.5623 -0.2702
  168DOPC  H14B20357   1.415   1.037  17.863 -0.8606 -0.8538  0.5657
  168DOPC  H14C20358   1.515   0.901  17.820 -0.3814  0.6945 -0.1127
  168DOPC   C1520359   1.607   1.180  17.975 -0.1556 -0.4264  0.0351
  168DOPC  H15A20360   1.596   1.139  18.075 -3.4075 -1.2989 -0.5743
  168DOPC  H15B20361   1.508   1.219  17.961 -0.2196 -0.7210 -0.3424
  168DOPC  H15C20362   1.679   1.260  17.974  0.6834 -1.1562 -1.4886
  168DOPC   C1120363   1.523   1.163  17.666  0.0544  0.2602  0.5262
  168DOPC  H11A20364   1.557   1.187  17.563 -2.1025  1.3417  0.0028
  168DOPC  H11B20365   1.451   1.078  17.667  1.7958 -1.2988 -0.2173
  168DOPC     P20366   1.319   1.322  17.676  0.3596  0.0520 -0.0224
  168DOPC   O1320367   1.267   1.444  17.736 -0.2417 -0.2840  0.0309
  168DOPC   O1420368   1.225   1.209  17.692  0.1736 -0.6342 -0.7755
  168DOPC   O1220369   1.466   1.282  17.726 -0.5845  0.4012  0.1811
  168DOPC   O1120370   1.332   1.344  17.516 -0.1791  0.0642  0.6202
  168DOPC    C120371   1.410   1.460  17.475  0.1137  0.6048  0.0900
  168DOPC    HA20372   1.520   1.452  17.488  0.2747  0.7816 -1.0813
  168DOPC    HB20373   1.374   1.550  17.529 -3.4802 -0.5378 -0.1378
  168DOPC    C220374   1.390   1.492  17.324 -0.0408 -0.1098 -0.0526
  168DOPC    HS20375   1.457   1.574  17.293  1.4181 -0.7600  1.2529
  168DOPC   O2120376   1.249   1.505  17.292  0.4572 -0.0098 -0.1396
  168DOPC   C2120377   1.187   1.623  17.328 -0.8543  0.3574 -0.5988
  168DOPC   O2220378   1.240   1.696  17.410 -0.3697 -0.9030  0.2013
  168DOPC   C2220379   1.067   1.639  17.236 -0.0656 -0.1953 -0.2851
  168DOPC   H2R20380   1.042   1.746  17.250 -1.3937 -0.6652  1.3427
  168DOPC   H2S20381   0.978   1.579  17.267 -0.5668  0.4670 -0.4262
  168DOPC    C320382   1.452   1.371  17.245 -0.0354 -0.5971  0.5683
  168DOPC    HX20383   1.415   1.270  17.272 -0.0423 -0.7619 -0.0483
  168DOPC    HY20384   1.559   1.362  17.273  0.2301 -0.0593 -0.2303
  168DOPC   O3120385   1.460   1.397  17.102 -0.8752  0.9851 -0.0886
  168DOPC   C3120386   1.380   1.335  17.022 -0.6855  0.3271  0.2936
  168DOPC   O3220387   1.296   1.253  17.051  0.7163  0.2268 -0.0730
  168DOPC   C3220388   1.412   1.387  16.879  0.3600 -0.2427  0.4776
  168DOPC   H2X20389   1.389   1.495  16.887 -0.1754 -0.3158  0.0128
  168DOPC   H2Y20390   1.517   1.355  16.862  0.6053  0.7083  0.1417
  168DOPC   C2320391   1.103   1.621  17.085 -0.2900 -0.0840 -0.6791
  168DOPC   H3R20392   1.169   1.534  17.063 -0.4540  0.1805 -2.3425
  168DOPC   H3S20393   1.160   1.710  17.052  1.3584  0.0674  2.1684
  168DOPC   C2420394   0.984   1.604  16.998 -0.1105 -0.2847  0.3142
  168DOPC   H4R20395   0.915   1.690  17.013  1.7587  1.0982  1.6627
  168DOPC   H4S20396   0.927   1.510  17.014 -1.3203 -0.0302 -1.9943
  168DOPC   C2520397   1.028   1.606  16.853  0.3446  0.0801  0.0024
  168DOPC   H5R20398   1.099   1.521  16.841  0.7099  0.3969 -0.0991
  168DOPC   H5S20399   1.089   1.696  16.831 -1.0990  0.7633 -1.3778
  168DOPC   C2620400   0.908   1.600  16.754 -0.1044  0.3482 -0.0120
  168DOPC   H6R20401   0.846   1.691  16.762  3.9847  3.2692  2.0309
  168DOPC   H6S20402   0.844   1.512  16.775  2.2954 -2.1025 -2.1365
  168DOPC   C2720403   0.956   1.582  16.608  0.5984 -0.3670 -0.8556
  168DOPC   H7R20404   0.992   1.477  16.603  0.3555 -0.3940 -2.3765
  168DOPC   H7S20405   1.040   1.654  16.594  2.1671 -2.0755 -0.5835
  168DOPC   C2820406   0.842   1.609  16.504  0.1183 -0.1874  0.1987
  168DOPC   H8R20407   0.880   1.568  16.408 -0.4390 -0.1199 -0.0550
  168DOPC   H8S20408   0.827   1.718  16.487 -0.2992 -0.4396 -1.1836
  168DOPC   C2920409   0.707   1.542  16.540  0.2226 -0.2254  0.2447
  168DOPC   H9R20410   0.649   1.590  16.621  0.4777 -0.6883  0.7084
  168DOPC  C21020411   0.654   1.441  16.470  0.0010 -0.1972 -0.3316
  168DOPC  H10R20412   0.560   1.401  16.511 -1.0205  2.5107  0.2077
  168DOPC  C21120413   0.712   1.358  16.359 -0.2464 -0.4350 -0.3559
  168DOPC  H11R20414   0.705   1.250  16.385 -1.7308 -0.7041 -1.7266
  168DOPC  H11S20415   0.822   1.373  16.358 -0.3816  1.1590  1.8437
  168DOPC  C21220416   0.646   1.379  16.224  0.3149  0.3484  0.5758
  168DOPC  H12R20417   0.539   1.370  16.250  0.7647 -0.4086  2.2850
  168DOPC  H12S20418   0.674   1.294  16.157  1.2411  0.3842  0.9060
  168DOPC  C21320419   0.662   1.522  16.162 -0.4970  0.3280 -0.1944
  168DOPC  H13R20420   0.772   1.536  16.154 -0.6178  0.2845 -2.7556
  168DOPC  H13S20421   0.622   1.591  16.239  2.3821  1.2116  0.6442
  168DOPC  C21420422   0.585   1.534  16.027 -0.1633 -0.3600 -0.4734
  168DOPC  H14R20423   0.576   1.640  15.996 -0.7227 -0.5971 -1.1391
  168DOPC  H14S20424   0.484   1.491  16.046 -0.1045  1.1465  4.9733
  168DOPC  C21520425   0.660   1.464  15.914 -0.1900  0.3030 -0.0206
  168DOPC  H15R20426   0.698   1.367  15.951 -1.1652 -0.4069 -0.8388
  168DOPC  H15S20427   0.744   1.526  15.876  1.3709 -0.5301  1.8926
  168DOPC  C21620428   0.571   1.436  15.795  0.2190 -0.1313 -0.1108
  168DOPC  H16R20429   0.518   1.529  15.768 -0.4437  0.1154  1.9051
  168DOPC  H16S20430   0.496   1.357  15.817  0.4272 -0.2391  0.2157
  168DOPC  C21720431   0.655   1.405  15.671  0.0823 -0.6359 -0.3607
  168DOPC  H17R20432   0.723   1.320  15.696  0.5700  0.3663  2.0183
  168DOPC  H17S20433   0.713   1.496  15.646  0.2795 -0.8176 -0.5718
  168DOPC  C21820434   0.585   1.355  15.543  0.1330 -0.4566 -0.5170
  168DOPC  H18R20435   0.514   1.437  15.520 -0.1132  0.4450  2.9024
  168DOPC  H18S20436   0.522   1.266  15.565  0.5367 -0.8751 -1.0071
  168DOPC  H18T20437   0.662   1.346  15.463  1.6020 -0.8273  0.8743
  168DOPC   C3320438   1.321   1.326  16.762 -0.4127  0.0187 -0.2636
  168DOPC   H3X20439   1.213   1.336  16.786 -0.7080  0.0615 -1.5451
  168DOPC   H3Y20440   1.353   1.222  16.740  1.1246  0.7268 -1.5939
  168DOPC   C3420441   1.333   1.402  16.624 -0.2468  0.4648 -0.4353
  168DOPC   H4X20442   1.439   1.408  16.593 -0.0293 -2.3310 -0.5241
  168DOPC   H4Y20443   1.299   1.506  16.639  2.3921  1.3713 -0.2889
  168DOPC   C3520444   1.255   1.335  16.508 -1.1340 -0.5223 -0.2286
  168DOPC   H5X20445   1.161   1.289  16.544 -1.2892 -0.9922 -1.1984
  168DOPC   H5Y20446   1.324   1.254  16.476  0.8741  0.6789  0.8410
  168DOPC   C3620447   1.245   1.433  16.386 -0.3436  0.4010 -0.7385
  168DOPC   H6X20448   1.171   1.508  16.419  0.0669  0.1216  0.9392
  168DOPC   H6Y20449   1.344   1.481  16.369  1.0064 -1.1543  1.9788
  168DOPC   C3720450   1.192   1.352  16.262  0.0770  0.2579  0.6671
  168DOPC   H7X20451   1.234   1.249  16.261 -0.0124  0.2245  0.0328
  168DOPC   H7Y20452   1.084   1.345  16.285 -0.0793 -1.5978 -0.4519
  168DOPC   C3820453   1.212   1.429  16.136  0.0278  0.5378  0.2556
  168DOPC   H8X20454   1.317   1.421  16.101 -1.0585 -1.1936 -3.0964
  168DOPC   H8Y20455   1.185   1.536  16.151 -1.9542 -0.0295  1.1192
  168DOPC   C3920456   1.122   1.359  16.036  0.1790 -0.0477 -0.2610
  168DOPC   H9X20457   1.094   1.254  16.054 -1.2653  0.5762  1.4813
  168DOPC  C31020458   1.075   1.421  15.928 -0.3853  0.4241  0.2352
  168DOPC  H10X20459   1.021   1.356  15.857  1.1954  1.1816 -1.7789
  168DOPC  C31120460   1.089   1.565  15.888  0.2552 -0.3238 -0.3408
  168DOPC  H11X20461   1.170   1.618  15.942  0.7766  0.1204 -1.5155
  168DOPC  H11Y20462   0.993   1.612  15.918 -0.9875 -1.7200 -1.8700
  168DOPC  C31220463   1.130   1.611  15.749 -0.0741  0.9772  0.1440
  168DOPC  H12X20464   1.233   1.574  15.733  0.6010  2.4718  0.8054
  168DOPC  H12Y20465   1.128   1.722  15.742 -0.5248  0.9473 -0.2823
  168DOPC  C31320466   1.023   1.558  15.650 -0.2189 -0.2383  0.2740
  168DOPC  H13X20467   1.019   1.448  15.662  0.7148 -0.1688  1.4154
  168DOPC  H13Y20468   0.922   1.597  15.672  0.1173  0.4944  0.5741
  168DOPC  C31420469   1.060   1.579  15.499 -0.5248  0.5896  0.5657
  168DOPC  H14X20470   1.000   1.663  15.458 -0.8722  0.0070 -0.1413
  168DOPC  H14Y20471   1.167   1.603  15.486 -0.5967  1.4406  1.4260
  168DOPC  C31520472   1.025   1.459  15.414  0.5835  0.0404 -0.1750
  168DOPC  H15X20473   0.923   1.422  15.435 -0.4920  0.7650 -3.5684
  168DOPC  H15Y20474   1.096   1.376  15.437 -1.6985 -2.0861 -0.4017
  168DOPC  C31620475   1.017   1.473  15.261 -0.2157  0.3073 -0.3614
  168DOPC  H16X20476   1.106   1.511  15.208 -0.3612 -0.1449 -0.9398
  168DOPC  H16Y20477   1.003   1.376  15.209  3.2823 -0.6087  0.1752
  168DOPC  C31720478   0.901   1.576  15.219  0.7293 -0.2245  0.0622
  168DOPC  H17X20479   0.808   1.550  15.273  0.8462 -0.6839  0.0451
  168DOPC  H17Y20480   0.919   1.682  15.247 -1.3028  0.1326  0.1905
  168DOPC  C31820481   0.865   1.570  15.068 -0.0500 -0.2893 -0.5183
  168DOPC  H18X20482   0.842   1.465  15.040  0.3463 -0.5508  0.1145
  168DOPC  H18Y20483   0.778   1.635  15.044 -0.1237 -0.3883 -0.5187
  168DOPC  H18Z20484   0.945   1.610  15.002 -0.8147 -0.7497 -1.7584
  169DOPC     N20485   5.941   2.432  17.936 -0.0134 -0.3197  0.2954
  169DOPC   C1220486   5.867   2.322  17.856 -0.4648  0.0589 -0.4315
  169DOPC  H12A20487   5.781   2.367  17.810 -0.9253 -0.8469 -0.4677
  169DOPC  H12B20488   5.834   2.259  17.937 -2.3247  1.1077 -0.3285
  169DOPC   C1320489   5.981   2.547  17.844 -0.2114  0.3670 -0.5570
  169DOPC  H13A20490   6.036   2.508  17.759 -2.4772 -0.9811 -1.5031
  169DOPC  H13B20491   5.893   2.584  17.793 -0.2629  0.3739 -0.4633
  169DOPC  H13C20492   6.019   2.636  17.890 -0.7325  1.1285 -1.5418
  169DOPC   C1420493   6.056   2.374  18.011  0.1980 -0.7234  0.4948
  169DOPC  H14A20494   6.137   2.350  17.944  1.6631  2.5035  0.9351
  169DOPC  H14B20495   6.096   2.441  18.086 -2.5202  0.4376  1.0300
  169DOPC  H14C20496   6.040   2.279  18.059 -0.9306 -1.2678 -0.8621
  169DOPC   C1520497   5.847   2.489  18.040  0.2744  0.2258 -0.8061
  169DOPC  H15A20498   5.913   2.546  18.104 -0.9042  0.6311  0.0934
  169DOPC  H15B20499   5.809   2.414  18.108  2.2340  0.0993  0.2444
  169DOPC  H15C20500   5.769   2.545  17.991  0.9957 -0.2481 -2.5830
  169DOPC   C1120501   5.952   2.245  17.744  0.1819 -0.0652 -0.0243
  169DOPC  H11A20502   5.886   2.182  17.680 -2.4559  2.1240  0.3834
  169DOPC  H11B20503   5.997   2.324  17.681 -0.8632  0.4642 -0.1258
  169DOPC     P20504   6.019   2.015  17.871  0.0377  0.4273  0.0846
  169DOPC   O1320505   5.988   2.033  18.017 -0.0741  0.4473  0.0480
  169DOPC   O1420506   6.138   1.928  17.841  0.2716  0.0987  0.5101
  169DOPC   O1220507   6.052   2.164  17.807  0.1020  0.1219  0.4846
  169DOPC   O1120508   5.886   1.964  17.803  0.3858  0.3365  0.4990
  169DOPC    C120509   5.888   1.846  17.711  1.1031 -0.1528  0.0906
  169DOPC    HA20510   5.779   1.822  17.706  0.9465  0.4768  0.3297
  169DOPC    HB20511   5.927   1.753  17.757  1.5382  0.1061  0.2435
  169DOPC    C220512   5.958   1.868  17.570  0.5762  0.1391  0.8002
  169DOPC    HS20513   6.062   1.906  17.585  0.5162  1.2618 -1.2130
  169DOPC   O2120514   5.877   1.961  17.489 -0.4328  0.4688 -0.7596
  169DOPC   C2120515   5.946   2.055  17.427 -0.2071  0.0893  0.3952
  169DOPC   O2220516   6.065   2.072  17.431  0.3162  0.4301 -0.5175
  169DOPC   C2220517   5.846   2.133  17.339  0.9259 -0.3417  0.0247
  169DOPC   H2R20518   5.857   2.238  17.373  0.6491 -0.2010 -0.3129
  169DOPC   H2S20519   5.745   2.089  17.351  0.3250  0.9237 -0.1848
  169DOPC    C320520   5.980   1.735  17.502  0.5475  0.0190  0.1233
  169DOPC    HX20521   5.886   1.702  17.452  1.9028  1.1499 -3.5320
  169DOPC    HY20522   6.001   1.658  17.579 -1.1550  0.5125  1.1262
  169DOPC   O3120523   6.093   1.750  17.407 -0.0066  0.1195 -0.4286
  169DOPC   C3120524   6.050   1.768  17.280  0.3992 -0.2468  0.0294
  169DOPC   O3220525   5.934   1.743  17.241 -0.5029  0.0888 -0.4778
  169DOPC   C3220526   6.166   1.810  17.197 -0.6762 -0.3447 -0.6285
  169DOPC   H2X20527   6.233   1.880  17.252 -1.1081  0.6484 -1.3425
  169DOPC   H2Y20528   6.241   1.728  17.190  1.7663  1.6765  0.2109
  169DOPC   C2320529   5.886   2.131  17.191  0.2931  0.1500  0.6567
  169DOPC   H3R20530   5.851   2.035  17.147  2.9504  0.0322 -1.5101
  169DOPC   H3S20531   5.996   2.145  17.181  0.3067  0.1145  0.7600
  169DOPC   C2420532   5.834   2.242  17.101 -0.2009  0.4419  1.3158
  169DOPC   H4R20533   5.867   2.218  16.998  0.4627  1.1766  1.3459
  169DOPC   H4S20534   5.885   2.338  17.122  3.2557 -0.6623 -1.1896
  169DOPC   C2520535   5.683   2.256  17.102  0.0713  0.3163 -0.1543
  169DOPC   H5R20536   5.657   2.284  17.206  0.2261 -1.3057  0.3477
  169DOPC   H5S20537   5.639   2.155  17.090 -0.3316  0.6161 -1.3573
  169DOPC   C2620538   5.632   2.376  17.017 -0.5724  0.1047 -0.4676
  169DOPC   H6R20539   5.713   2.451  17.025 -0.4415  0.0060 -0.8063
  169DOPC   H6S20540   5.538   2.408  17.066 -0.6790 -1.0317  0.1052
  169DOPC   C2720541   5.614   2.335  16.875  0.2909 -0.1689  0.8023
  169DOPC   H7R20542   5.546   2.247  16.870 -1.3503  0.8948  2.7292
  169DOPC   H7S20543   5.704   2.296  16.823 -0.1354 -0.4587  0.2717
  169DOPC   C2820544   5.560   2.457  16.796  0.1273 -0.4098 -0.0826
  169DOPC   H8R20545   5.479   2.509  16.851 -0.5303 -2.9327  1.5196
  169DOPC   H8S20546   5.503   2.414  16.710 -1.9580 -0.5132  1.2733
  169DOPC   C2920547   5.661   2.558  16.759 -0.0543  0.2380  0.6078
  169DOPC   H9R20548   5.705   2.619  16.839  1.9444 -0.4142  0.0549
  169DOPC  C21020549   5.704   2.581  16.635 -0.1340 -0.6097 -0.1072
  169DOPC  H10R20550   5.777   2.662  16.617 -2.1922  1.3709  0.0311
  169DOPC  C21120551   5.676   2.499  16.511 -0.9605  0.7977  0.9899
  169DOPC  H11R20552   5.597   2.423  16.529 -0.1975 -0.8779 -2.0366
  169DOPC  H11S20553   5.762   2.431  16.493 -1.0548  1.6056 -3.6483
  169DOPC  C21220554   5.648   2.571  16.384 -0.0341 -0.3369 -0.5070
  169DOPC  H12R20555   5.727   2.644  16.359 -0.5810  0.0978 -0.9863
  169DOPC  H12S20556   5.557   2.631  16.406 -1.1279 -2.5399  1.4232
  169DOPC  C21320557   5.619   2.488  16.261  0.4537  0.6848  0.5661
  169DOPC  H13R20558   5.548   2.410  16.297  0.1255  1.4583  1.6499
  169DOPC  H13S20559   5.707   2.440  16.214 -0.8504  0.1105 -1.4212
  169DOPC  C21420560   5.562   2.566  16.142 -1.3606 -0.4123 -0.1648
  169DOPC  H14R20561   5.644   2.634  16.112 -2.1301  0.8285  0.4466
  169DOPC  H14S20562   5.486   2.640  16.176  0.4427  1.4040  0.0806
  169DOPC  C21520563   5.524   2.469  16.026 -0.1036  0.2322  0.3150
  169DOPC  H15R20564   5.455   2.397  16.075 -1.0054  1.5665  1.0481
  169DOPC  H15S20565   5.600   2.393  15.997 -1.1176  0.0143 -1.9788
  169DOPC  C21620566   5.466   2.526  15.894 -0.2830  0.2592 -0.1645
  169DOPC  H16R20567   5.366   2.574  15.897 -1.0861 -1.1154 -2.1888
  169DOPC  H16S20568   5.447   2.436  15.832 -0.3156 -0.0840  0.3405
  169DOPC  C21720569   5.563   2.622  15.823 -0.2937 -0.3299  0.3645
  169DOPC  H17R20570   5.657   2.565  15.805  0.3234  0.1179  1.9965
  169DOPC  H17S20571   5.571   2.713  15.887 -2.2658  0.1798 -0.0540
  169DOPC  C21820572   5.511   2.671  15.686  1.0330 -0.1288 -0.2566
  169DOPC  H18R20573   5.511   2.593  15.607 -1.4314  0.6441 -1.1067
  169DOPC  H18S20574   5.569   2.758  15.647  0.5070  0.9412  1.2334
  169DOPC  H18T20575   5.408   2.710  15.698 -0.1842 -2.9996 -0.5408
  169DOPC   C3320576   6.135   1.845  17.055 -0.0898 -0.3196 -0.3598
  169DOPC   H3X20577   6.234   1.876  17.014 -0.6004  0.0312 -1.3876
  169DOPC   H3Y20578   6.073   1.936  17.041  1.6150  0.6232 -2.3161
  169DOPC   C3420579   6.085   1.729  16.965 -0.4554  0.1643 -0.1515
  169DOPC   H4X20580   5.989   1.696  17.009 -0.5503  0.8623  0.1752
  169DOPC   H4Y20581   6.159   1.647  16.975  0.3625  1.0641  1.4347
  169DOPC   C3520582   6.081   1.753  16.819  0.1262 -0.5142  0.1297
  169DOPC   H5X20583   6.183   1.777  16.780 -0.9234  0.9422 -1.8605
  169DOPC   H5Y20584   6.027   1.849  16.804  0.9355  0.1696  1.3486
  169DOPC   C3620585   6.013   1.641  16.739  0.3083  0.1937 -0.5971
  169DOPC   H6X20586   6.051   1.542  16.773 -0.7934 -0.0823 -0.1074
  169DOPC   H6Y20587   5.908   1.663  16.769  1.3811  2.3382  1.9114
  169DOPC   C3720588   6.023   1.659  16.588  0.5071 -0.3461  0.7930
  169DOPC   H7X20589   6.017   1.765  16.557 -2.0599 -0.6704 -0.0584
  169DOPC   H7Y20590   6.131   1.632  16.580  0.5440 -0.0163  0.1128
  169DOPC   C3820591   5.917   1.582  16.503 -0.5171  0.3304 -0.9221
  169DOPC   H8X20592   5.939   1.597  16.395 -3.2199  2.4332 -1.2836
  169DOPC   H8Y20593   5.815   1.622  16.521 -0.2123  1.4584 -1.5916
  169DOPC   C3920594   5.929   1.439  16.537 -0.0410  0.2418 -0.5082
  169DOPC   H9X20595   5.855   1.415  16.615  1.3783  0.4274  0.9450
  169DOPC  C31020596   5.986   1.339  16.469  0.0263 -0.0923  0.3502
  169DOPC  H10X20597   5.989   1.241  16.518 -1.0760 -0.0211  0.5850
  169DOPC  C31120598   6.074   1.355  16.351 -0.0831  0.4017 -0.6216
  169DOPC  H11X20599   6.151   1.276  16.364  0.0932  0.8999  1.8479
  169DOPC  H11Y20600   6.125   1.454  16.346 -0.3174  0.7185  1.9668
  169DOPC  C31220601   5.996   1.313  16.223 -0.5343  0.3987  0.8147
  169DOPC  H12X20602   5.909   1.380  16.206 -1.6901 -1.2051  0.1315
  169DOPC  H12Y20603   5.942   1.217  16.239  0.7031 -0.1144  2.1606
  169DOPC  C31320604   6.087   1.308  16.094 -0.8256 -0.0813  0.7373
  169DOPC  H13X20605   6.147   1.402  16.094 -0.2750 -0.3956  2.6156
  169DOPC  H13Y20606   6.141   1.212  16.104  1.3768  0.9286 -0.5969
  169DOPC  C31420607   6.015   1.308  15.957 -0.1502  0.5850 -0.2635
  169DOPC  H14X20608   5.938   1.228  15.948 -1.0898  1.4842 -0.3712
  169DOPC  H14Y20609   5.958   1.403  15.948 -1.0952 -0.1091 -2.1321
  169DOPC  C31520610   6.112   1.280  15.851 -0.2411 -0.1915 -0.4191
  169DOPC  H15X20611   6.119   1.170  15.836 -3.0791 -0.8274  2.0358
  169DOPC  H15Y20612   6.213   1.306  15.890 -0.7497 -0.2620  0.9790
  169DOPC  C31620613   6.073   1.352  15.720  0.3533  0.6287 -0.2359
  169DOPC  H16X20614   5.974   1.402  15.730  1.3608  2.4604  1.3648
  169DOPC  H16Y20615   6.145   1.433  15.695  1.0240 -0.7023 -2.9146
  169DOPC  C31720616   6.051   1.248  15.611 -0.1392  0.8149  0.3551
  169DOPC  H17X20617   6.146   1.194  15.590  2.2151  4.3690  1.0171
  169DOPC  H17Y20618   5.976   1.169  15.636  0.1603 -0.4330 -2.3003
  169DOPC  C31820619   6.001   1.318  15.485 -0.0583  0.6749 -0.5885
  169DOPC  H18X20620   6.088   1.360  15.429  1.4827 -1.7430 -0.1433
  169DOPC  H18Y20621   5.949   1.250  15.415 -0.6389 -0.8045  1.1921
  169DOPC  H18Z20622   5.929   1.398  15.513  0.4847  0.7037  0.8241
  170DOPC     N20623   6.602   0.914  17.691 -0.1556 -0.1564  0.7519
  170DOPC   C1220624   6.519   0.973  17.575  0.5120  0.2282 -0.7350
  170DOPC  H12A20625   6.529   1.080  17.568  1.9326  0.1895  0.2412
  170DOPC  H12B20626   6.413   0.967  17.592  0.6904 -0.8332  0.1259
  170DOPC   C1320627   6.578   1.005  17.807 -0.5023 -0.3767 -0.4721
  170DOPC  H13A20628   6.476   1.003  17.843  0.1294 -0.7977  1.4258
  170DOPC  H13B20629   6.636   0.967  17.890 -0.6085  1.4124  0.4787
  170DOPC  H13C20630   6.610   1.104  17.780  0.1247 -1.0222 -2.2396
  170DOPC   C1420631   6.745   0.908  17.659 -0.4197  0.8604  0.4044
  170DOPC  H14A20632   6.805   0.870  17.741 -1.8632  0.3914  1.2943
  170DOPC  H14B20633   6.746   0.851  17.568  1.3398  0.1866  0.8127
  170DOPC  H14C20634   6.785   1.005  17.636  2.6935 -0.8473 -2.0615
  170DOPC   C1520635   6.554   0.770  17.708  0.2947 -0.6290  0.9365
  170DOPC  H15A20636   6.627   0.721  17.770 -0.1597 -1.8341  0.5493
  170DOPC  H15B20637   6.549   0.715  17.615  0.3576 -0.4272  0.8118
  170DOPC  H15C20638   6.460   0.780  17.761  0.2133  0.6868  0.5744
  170DOPC   C1120639   6.546   0.921  17.432 -0.0828 -0.4482  1.0548
  170DOPC  H11A20640   6.475   0.976  17.367 -1.1381 -2.5740  0.3179
  170DOPC  H11B20641   6.646   0.955  17.398 -0.9797  2.1688  0.7864
  170DOPC     P20642   6.617   0.687  17.354 -0.2160  0.1141 -0.4199
  170DOPC   O1320643   6.558   0.548  17.372 -0.6723  0.0128  0.2746
  170DOPC   O1420644   6.749   0.712  17.424  0.2520  0.1677  0.3573
  170DOPC   O1220645   6.515   0.788  17.419  0.0709  0.2734 -0.5162
  170DOPC   O1120646   6.630   0.717  17.199 -0.0516 -0.0993 -0.1999
  170DOPC    C120647   6.523   0.768  17.120  0.7524 -0.4686  0.2295
  170DOPC    HA20648   6.531   0.874  17.087 -2.8859 -0.7169 -2.0532
  170DOPC    HB20649   6.423   0.748  17.164 -0.4921  0.9601 -1.7571
  170DOPC    C220650   6.500   0.688  16.990  0.4906  0.1897  0.5192
  170DOPC    HS20651   6.490   0.580  17.014  0.4884  0.3125  1.0914
  170DOPC   O2120652   6.612   0.711  16.909  0.4859 -0.4841 -0.1061
  170DOPC   C2120653   6.707   0.621  16.912  0.3682  0.1109  0.0407
  170DOPC   O2220654   6.698   0.504  16.952 -0.4154 -0.0425 -0.2743
  170DOPC   C2220655   6.826   0.673  16.836 -0.4516  0.1818  0.7652
  170DOPC   H2R20656   6.854   0.589  16.769 -1.2940  0.2147  0.3596
  170DOPC   H2S20657   6.906   0.680  16.913  0.2131 -3.8064  0.6600
  170DOPC    C320658   6.374   0.737  16.919 -0.0926 -0.3118 -0.2286
  170DOPC    HX20659   6.369   0.848  16.915  0.6650 -0.2747 -0.3758
  170DOPC    HY20660   6.288   0.702  16.980  0.1843  0.1090  0.4175
  170DOPC   O3120661   6.362   0.694  16.779 -0.1808  0.5598 -0.0329
  170DOPC   C3120662   6.342   0.569  16.760  0.7197  0.4237 -0.5263
  170DOPC   O3220663   6.322   0.488  16.850  0.2776  0.0497 -0.3213
  170DOPC   C3220664   6.364   0.533  16.615 -0.3971  0.3534 -0.2121
  170DOPC   H2X20665   6.341   0.626  16.558 -0.7495  0.8043  0.6421
  170DOPC   H2Y20666   6.471   0.505  16.614 -0.3605  0.4870  0.1369
  170DOPC   C2320667   6.823   0.814  16.770 -0.3017 -0.1393 -0.0057
  170DOPC   H3R20668   6.923   0.857  16.746 -0.8037  0.9430 -0.2285
  170DOPC   H3S20669   6.786   0.892  16.841  4.3165  1.0312  1.4488
  170DOPC   C2420670   6.735   0.808  16.645 -0.7096  0.4229  0.3427
  170DOPC   H4R20671   6.720   0.910  16.604  2.2601  0.2311 -1.4979
  170DOPC   H4S20672   6.640   0.771  16.688 -0.3536 -0.2716  0.5545
  170DOPC   C2520673   6.809   0.731  16.527  0.0661  0.0800  0.4259
  170DOPC   H5R20674   6.794   0.622  16.543 -1.2989  0.0509 -0.8352
  170DOPC   H5S20675   6.916   0.759  16.520  0.6377 -2.4046 -3.1722
  170DOPC   C2620676   6.730   0.743  16.399 -0.4206  1.0342  0.8566
  170DOPC   H6R20677   6.706   0.846  16.366 -2.6506  0.2280 -0.2595
  170DOPC   H6S20678   6.631   0.695  16.418 -0.7709  1.5021  0.2341
  170DOPC   C2720679   6.804   0.669  16.278 -0.0602 -0.0651  0.5907
  170DOPC   H7R20680   6.831   0.567  16.313  1.9093  1.0736  2.6989
  170DOPC   H7S20681   6.897   0.726  16.259  1.2835 -2.1991  0.4659
  170DOPC   C2820682   6.719   0.651  16.151 -1.1973 -0.2457 -0.3432
  170DOPC   H8R20683   6.653   0.738  16.131  0.3982  0.9496 -0.6221
  170DOPC   H8S20684   6.643   0.571  16.160 -1.7717  0.4644  1.6109
  170DOPC   C2920685   6.798   0.634  16.018  0.8069 -0.4100  0.1661
  170DOPC   H9R20686   6.898   0.596  16.045  1.3964 -0.2093 -1.6271
  170DOPC  C21020687   6.769   0.672  15.889  0.1168 -0.0662  0.1101
  170DOPC  H10R20688   6.847   0.656  15.813  1.2287  0.3355  1.1262
  170DOPC  C21120689   6.657   0.761  15.837 -0.7277  0.6627  0.4319
  170DOPC  H11R20690   6.681   0.869  15.847  1.9688  0.0797  0.9008
  170DOPC  H11S20691   6.565   0.734  15.892  1.6874 -0.8129  4.1100
  170DOPC  C21220692   6.643   0.742  15.684  0.1067  0.0818 -0.7808
  170DOPC  H12R20693   6.619   0.635  15.664 -2.0588 -0.2621  2.8114
  170DOPC  H12S20694   6.731   0.785  15.633  1.0029  1.0403  1.4656
  170DOPC  C21320695   6.517   0.825  15.639 -0.3038  0.1369  0.1231
  170DOPC  H13R20696   6.536   0.934  15.643 -0.0652  0.0738  0.9066
  170DOPC  H13S20697   6.438   0.802  15.714 -2.0453  1.2248 -1.2995
  170DOPC  C21420698   6.477   0.780  15.501 -0.0119 -0.9765  0.9104
  170DOPC  H14R20699   6.441   0.676  15.486  0.7134 -0.9421 -1.4825
  170DOPC  H14S20700   6.558   0.790  15.426 -1.5674 -0.3729 -0.7651
  170DOPC  C21520701   6.372   0.884  15.456 -0.0551  1.1739 -0.5420
  170DOPC  H15R20702   6.407   0.989  15.461 -0.6005  1.3024  1.6127
  170DOPC  H15S20703   6.280   0.875  15.518  0.8961  1.4106  0.9472
  170DOPC  C21620704   6.331   0.858  15.310  0.2774  0.0460 -0.2390
  170DOPC  H16R20705   6.328   0.749  15.291 -0.5071 -0.1162  0.7545
  170DOPC  H16S20706   6.421   0.903  15.262  0.6988  1.7484  1.9974
  170DOPC  C21720707   6.207   0.931  15.268 -0.6221 -0.2966 -0.1605
  170DOPC  H17R20708   6.224   1.041  15.274  1.7335 -0.6748  1.3011
  170DOPC  H17S20709   6.129   0.921  15.347  0.2107 -3.0545  0.3974
  170DOPC  C21820710   6.127   0.885  15.143 -0.7126 -0.6766  0.3511
  170DOPC  H18R20711   6.094   0.779  15.147 -1.8260 -0.3857 -0.4138
  170DOPC  H18S20712   6.192   0.897  15.053  1.1572 -1.9119  1.4723
  170DOPC  H18T20713   6.041   0.951  15.117  0.5506  1.0778  0.4991
  170DOPC   C3320714   6.280   0.410  16.565  0.0300 -0.2745  1.1798
  170DOPC   H3X20715   6.175   0.443  16.554  0.1316 -0.6587 -1.6464
  170DOPC   H3Y20716   6.299   0.320  16.627  0.5537 -1.9508 -1.2663
  170DOPC   C3420717   6.329   0.373  16.417  0.7875 -0.7491 -0.2808
  170DOPC   H4X20718   6.248   0.306  16.381  0.0343 -0.4641  0.8355
  170DOPC   H4Y20719   6.426   0.320  16.419 -0.4813 -3.2199  1.8268
  170DOPC   C3520720   6.328   0.492  16.320 -0.0290 -0.1354 -0.1923
  170DOPC   H5X20721   6.415   0.559  16.337  1.7582 -2.4868  0.5208
  170DOPC   H5Y20722   6.239   0.559  16.326  0.8431  1.4184 -3.1074
  170DOPC   C3620723   6.341   0.426  16.184 -0.2393 -0.5633 -0.1493
  170DOPC   H6X20724   6.439   0.375  16.172 -1.0533 -1.7083 -2.6482
  170DOPC   H6Y20725   6.266   0.344  16.189  0.9020 -1.5991  0.4478
  170DOPC   C3720726   6.304   0.529  16.079  0.3854  0.2393  0.2227
  170DOPC   H7X20727   6.205   0.568  16.112  0.9706 -0.0952  2.6273
  170DOPC   H7Y20728   6.383   0.606  16.074  1.1503 -0.4708  0.9290
  170DOPC   C3820729   6.286   0.470  15.938  0.0687 -0.4343 -0.0129
  170DOPC   H8X20730   6.244   0.551  15.873  0.1179  0.7614  1.3989
  170DOPC   H8Y20731   6.206   0.394  15.947 -1.0000  0.5133 -1.0392
  170DOPC   C3920732   6.415   0.417  15.888 -0.3204 -0.2388 -0.4402
  170DOPC   H9X20733   6.509   0.458  15.929 -0.2084 -0.0702 -0.8567
  170DOPC  C31020734   6.432   0.317  15.799 -0.0947  0.1742  0.3887
  170DOPC  H10X20735   6.536   0.289  15.772  0.3497  2.4297 -0.5021
  170DOPC  C31120736   6.320   0.251  15.719 -0.4389 -0.2794 -0.0448
  170DOPC  H11X20737   6.243   0.217  15.792 -0.3414  0.1065  0.2400
  170DOPC  H11Y20738   6.358   0.168  15.656  0.7139  0.6765 -0.6387
  170DOPC  C31220739   6.264   0.348  15.610 -0.1041  0.2993  0.5116
  170DOPC  H12X20740   6.211   0.436  15.652 -1.2603  1.1661 -2.4727
  170DOPC  H12Y20741   6.188   0.282  15.563 -2.1170  1.6054  1.7618
  170DOPC  C31320742   6.362   0.393  15.498  0.7144  0.1877  0.3972
  170DOPC  H13X20743   6.447   0.453  15.536  0.6600 -0.3153  1.3546
  170DOPC  H13Y20744   6.422   0.310  15.455  1.2827  1.0229 -0.4734
  170DOPC  C31420745   6.299   0.455  15.363  0.1628  0.0162 -0.0926
  170DOPC  H14X20746   6.247   0.549  15.392 -0.9469 -1.1581  1.9858
  170DOPC  H14Y20747   6.387   0.478  15.300 -0.5418 -1.6063 -1.7783
  170DOPC  C31520748   6.196   0.368  15.288  0.5895  0.9654  0.3058
  170DOPC  H15X20749   6.155   0.418  15.198 -1.9464 -1.2693  0.0697
  170DOPC  H15Y20750   6.107   0.343  15.351  0.0529  0.0081 -0.8100
  170DOPC  C31620751   6.226   0.223  15.234  0.4591  0.0567  0.0870
  170DOPC  H16X20752   6.282   0.229  15.139  3.5008  1.1272  1.8037
  170DOPC  H16Y20753   6.300   0.183  15.306 -0.3195 -2.3472 -0.3697
  170DOPC  C31720754   6.104   0.120  15.247 -0.2245 -0.1678  0.1039
  170DOPC  H17X20755   6.091   0.097  15.355 -0.2587 -0.9542 -0.0630
  170DOPC  H17Y20756   6.014   0.176  15.215 -0.4283  1.9874  3.8532
  170DOPC  C31820757   6.132  -0.016  15.180 -0.0629 -0.6225 -0.4974
  170DOPC  H18X20758   6.172  -0.007  15.077 -1.0795  1.4596 -0.7575
  170DOPC  H18Y20759   6.198  -0.073  15.249  0.7310  0.8881  0.0480
  170DOPC  H18Z20760   6.034  -0.067  15.172  0.0233 -0.8056 -0.4196
  171DOPC     N20761   3.270   4.543  12.143 -0.2614 -0.3471 -0.1869
  171DOPC   C1220762   3.144   4.562  12.233 -0.5375  0.2269  0.3040
  171DOPC  H12A20763   3.057   4.524  12.182  0.1239 -0.5475 -0.2611
  171DOPC  H12B20764   3.125   4.668  12.239  0.0330  0.2821  1.3784
  171DOPC   C1320765   3.383   4.618  12.209  0.3119  0.6241  0.1206
  171DOPC  H13A20766   3.376   4.725  12.196  0.8887  0.3504 -3.0194
  171DOPC  H13B20767   3.395   4.601  12.315 -2.3694 -0.2427  0.3555
  171DOPC  H13C20768   3.479   4.586  12.170  0.4990  1.6246 -0.2785
  171DOPC   C1420769   3.249   4.598  12.011  0.3979 -0.5839 -0.1732
  171DOPC  H14A20770   3.344   4.610  11.962  1.5323  0.7837  2.2058
  171DOPC  H14B20771   3.171   4.546  11.955  0.3529 -3.2288  2.1296
  171DOPC  H14C20772   3.218   4.701  12.020  0.8661 -0.4300 -0.3201
  171DOPC   C1520773   3.304   4.398  12.135  0.0471  0.2402 -0.0912
  171DOPC  H15A20774   3.320   4.362  12.236 -1.9860 -2.7239 -0.6763
  171DOPC  H15B20775   3.396   4.385  12.080  0.0243 -0.3576  0.0038
  171DOPC  H15C20776   3.224   4.334  12.100 -1.1539  0.9635  1.2444
  171DOPC   C1120777   3.138   4.503  12.377 -0.3497 -0.0704 -0.0316
  171DOPC  H11A20778   3.231   4.528  12.432  1.0101 -2.6422 -1.0118
  171DOPC  H11B20779   3.049   4.527  12.440 -1.3366  0.1595 -1.4793
  171DOPC     P20780   3.016   4.284  12.322  0.6443 -0.2469 -0.2054
  171DOPC   O1320781   3.066   4.172  12.240  0.2010  0.3982  0.1779
  171DOPC   O1420782   2.918   4.370  12.256  0.2180 -0.2238 -0.0037
  171DOPC   O1220783   3.137   4.358  12.381 -0.2396 -0.0823 -0.2934
  171DOPC   O1120784   2.942   4.221  12.446 -0.0132  0.7081 -0.2019
  171DOPC    C120785   2.909   4.279  12.574  0.4318  1.0916 -0.3902
  171DOPC    HA20786   2.799   4.289  12.569 -0.0618 -3.0851 -1.7761
  171DOPC    HB20787   2.950   4.381  12.591  0.8281  1.0673 -1.1539
  171DOPC    C220788   2.934   4.180  12.691  0.1372 -0.6965 -0.1845
  171DOPC    HS20789   2.867   4.209  12.775  2.7160  1.6018  1.2291
  171DOPC   O2120790   3.071   4.177  12.720  0.0262  0.5887  0.1867
  171DOPC   C2120791   3.116   4.257  12.812  0.0748 -0.0359 -0.0363
  171DOPC   O2220792   3.040   4.322  12.885 -0.2912 -0.0293  0.0932
  171DOPC   C2220793   3.264   4.226  12.845  0.4050  0.6391 -0.1590
  171DOPC   H2R20794   3.328   4.291  12.781  2.2195  1.0615  1.9775
  171DOPC   H2S20795   3.287   4.123  12.809 -0.3252  0.7547 -0.9986
  171DOPC    C320796   2.884   4.038  12.655  0.6521 -0.4302  0.8166
  171DOPC    HX20797   2.955   3.993  12.582  0.6946 -1.5096  1.5187
  171DOPC    HY20798   2.787   4.055  12.603  1.1351  1.4599  0.4357
  171DOPC   O3120799   2.864   3.956  12.773  0.7450  0.2743  0.0713
  171DOPC   C3120800   2.817   3.830  12.752 -0.4176 -0.2981 -0.1396
  171DOPC   O3220801   2.800   3.780  12.638 -0.7098  0.5531  0.2162
  171DOPC   C3220802   2.799   3.750  12.879 -0.5893 -0.3453  0.3285
  171DOPC   H2X20803   2.700   3.768  12.926 -1.0770  2.2477 -1.4662
  171DOPC   H2Y20804   2.810   3.642  12.852  0.8779 -0.7304  2.2690
  171DOPC   C2320805   3.297   4.258  12.988 -0.6087  0.4932 -0.3666
  171DOPC   H3R20806   3.266   4.363  13.004 -0.6144  0.3856  0.3600
  171DOPC   H3S20807   3.408   4.263  13.000 -0.7976 -0.5363  2.6932
  171DOPC   C2420808   3.243   4.146  13.084 -0.4051 -0.4085  0.1834
  171DOPC   H4R20809   3.277   4.044  13.057  0.8805  0.5068 -1.8859
  171DOPC   H4S20810   3.132   4.152  13.086 -0.3238  1.6995  1.4219
  171DOPC   C2520811   3.294   4.162  13.225  0.1737 -0.1516  0.1375
  171DOPC   H5R20812   3.308   4.270  13.246  1.7028 -0.3181  0.0928
  171DOPC   H5S20813   3.392   4.112  13.239 -0.7022 -2.0880 -0.3136
  171DOPC   C2620814   3.198   4.109  13.338 -0.4199  0.0193 -0.0273
  171DOPC   H6R20815   3.166   4.003  13.329  2.3462 -0.9631  0.8859
  171DOPC   H6S20816   3.108   4.173  13.352 -0.8173 -0.7808  1.2532
  171DOPC   C2720817   3.280   4.109  13.473  1.1031 -0.6481  0.0415
  171DOPC   H7R20818   3.334   4.206  13.482  1.0603 -0.7507  1.6933
  171DOPC   H7S20819   3.353   4.026  13.461  2.6040  0.6373 -0.0712
  171DOPC   C2820820   3.202   4.081  13.604  0.3571  1.3443  0.0818
  171DOPC   H8R20821   3.097   4.092  13.567  0.5957 -0.2738 -1.1819
  171DOPC   H8S20822   3.230   4.144  13.691  0.1838  0.9136  0.4528
  171DOPC   C2920823   3.212   3.937  13.657  0.2544  0.5606  0.1901
  171DOPC   H9R20824   3.194   3.861  13.580  1.3884 -0.9523  1.3489
  171DOPC  C21020825   3.229   3.897  13.780  0.1374 -0.8718 -0.4504
  171DOPC  H10R20826   3.230   3.790  13.805  0.9089 -0.5553  1.0070
  171DOPC  C21120827   3.249   3.997  13.893 -0.4297  0.0196 -0.1546
  171DOPC  H11R20828   3.148   4.033  13.922 -1.4528 -2.0284 -0.9768
  171DOPC  H11S20829   3.319   4.080  13.871  1.2452 -2.0524 -3.5000
  171DOPC  C21220830   3.306   3.920  14.013 -0.0919  0.1701  0.7877
  171DOPC  H12R20831   3.403   3.867  14.001  0.1375  0.8392 -0.5010
  171DOPC  H12S20832   3.229   3.841  14.031 -0.0295 -0.3854 -1.1617
  171DOPC  C21320833   3.294   4.017  14.132  1.2972 -0.0845 -0.2259
  171DOPC  H13R20834   3.193   4.064  14.131  1.4708  0.2850 -0.4183
  171DOPC  H13S20835   3.356   4.109  14.122  0.9514  0.1728 -0.0643
  171DOPC  C21420836   3.315   3.950  14.261 -0.1558  0.2213  0.2743
  171DOPC  H14R20837   3.422   3.920  14.258 -0.6203 -1.4851 -1.6782
  171DOPC  H14S20838   3.266   3.854  14.290  2.1199 -0.5541  1.7712
  171DOPC  C21520839   3.297   4.043  14.375 -0.9863  0.1284 -0.0708
  171DOPC  H15R20840   3.188   4.053  14.389 -1.0259 -1.7959  1.3689
  171DOPC  H15S20841   3.355   4.137  14.358 -0.2020 -0.3470 -0.0422
  171DOPC  C21620842   3.355   3.997  14.505 -0.1935  0.1574 -0.3397
  171DOPC  H16R20843   3.340   3.887  14.514 -0.2367  0.1099 -0.9233
  171DOPC  H16S20844   3.294   4.049  14.582 -0.4654  1.6599 -1.5174
  171DOPC  C21720845   3.503   4.031  14.525 -0.5927  0.2279 -0.8352
  171DOPC  H17R20846   3.524   4.133  14.486 -0.8147  0.8862  0.7001
  171DOPC  H17S20847   3.568   3.968  14.461  0.3794 -0.3361  0.6550
  171DOPC  C21820848   3.540   4.023  14.669  0.2149  0.4499 -0.4401
  171DOPC  H18R20849   3.547   3.918  14.702  0.5520 -0.4388 -3.1384
  171DOPC  H18S20850   3.462   4.067  14.736  0.8056 -0.1950  0.6838
  171DOPC  H18T20851   3.634   4.078  14.693  0.8161  0.6844 -3.0624
  171DOPC   C3320852   2.909   3.783  12.980 -0.2593 -0.3305  0.3954
  171DOPC   H3X20853   2.918   3.894  12.983 -0.9158 -0.0195 -3.3149
  171DOPC   H3Y20854   3.002   3.733  12.946 -0.1947 -0.5352  0.8821
  171DOPC   C3420855   2.877   3.737  13.125 -0.3977 -0.5266 -0.0122
  171DOPC   H4X20856   2.845   3.631  13.119  1.8002 -1.1868 -1.6539
  171DOPC   H4Y20857   2.783   3.787  13.157 -0.8841 -1.5401  0.1771
  171DOPC   C3520858   2.991   3.764  13.218  0.6972  0.0080  0.9584
  171DOPC   H5X20859   3.015   3.872  13.223 -1.6910  0.8502 -2.1698
  171DOPC   H5Y20860   3.085   3.713  13.188 -0.5316 -1.8662  0.0949
  171DOPC   C3620861   2.972   3.723  13.361 -0.6109  0.4740 -0.0087
  171DOPC   H6X20862   3.035   3.779  13.434  0.1273  0.5218 -0.6693
  171DOPC   H6Y20863   2.872   3.758  13.396 -0.3479  0.8002  0.4319
  171DOPC   C3720864   2.996   3.572  13.378 -1.0442 -0.0149 -0.2861
  171DOPC   H7X20865   2.921   3.509  13.326 -0.9663 -1.3361  1.1239
  171DOPC   H7Y20866   3.100   3.554  13.343 -1.7500 -0.4044 -2.2684
  171DOPC   C3820867   2.994   3.530  13.524  0.6719 -0.2954 -0.2002
  171DOPC   H8X20868   3.029   3.615  13.586  0.5044 -0.9219  0.7684
  171DOPC   H8Y20869   3.068   3.449  13.535  1.9029  0.6753 -1.0365
  171DOPC   C3920870   2.857   3.486  13.577 -0.2562 -0.1948  0.4226
  171DOPC   H9X20871   2.815   3.396  13.529  0.3786  0.1934 -0.9118
  171DOPC  C31020872   2.790   3.532  13.682  0.5836 -0.7788 -0.3644
  171DOPC  H10X20873   2.688   3.498  13.703 -0.3402  0.9637 -1.7222
  171DOPC  C31120874   2.834   3.637  13.782  0.5901  0.4749 -0.0144
  171DOPC  H11X20875   2.756   3.714  13.799  0.3982  0.3584 -0.3408
  171DOPC  H11Y20876   2.916   3.697  13.737  0.5939  1.2631  1.0020
  171DOPC  C31220877   2.880   3.583  13.917  0.2341 -0.6062 -0.0573
  171DOPC  H12X20878   2.810   3.517  13.974  0.6159 -0.9431  0.0265
  171DOPC  H12Y20879   2.889   3.672  13.983 -2.3746  1.3146 -2.0646
  171DOPC  C31320880   3.015   3.514  13.915  0.8045  0.3760  0.0975
  171DOPC  H13X20881   3.014   3.426  13.848  1.7001 -0.5408  1.2422
  171DOPC  H13Y20882   3.086   3.583  13.862  1.3620 -0.0835  0.2351
  171DOPC  C31420883   3.070   3.460  14.043  0.3092 -0.3916 -0.5582
  171DOPC  H14X20884   3.035   3.357  14.066  0.3758 -0.6305 -1.4929
  171DOPC  H14Y20885   3.180   3.459  14.029  0.1168 -0.6071 -2.3883
  171DOPC  C31520886   3.032   3.541  14.171 -0.3303 -0.0253  0.2613
  171DOPC  H15X20887   2.924   3.524  14.187 -0.0764 -0.6964  1.4070
  171DOPC  H15Y20888   3.057   3.647  14.151  1.4742 -0.5788 -0.6203
  171DOPC  C31620889   3.119   3.491  14.291 -0.3698 -0.7968  0.4885
  171DOPC  H16X20890   3.070   3.402  14.335 -1.1173 -0.5472  0.1912
  171DOPC  H16Y20891   3.224   3.472  14.260  0.0556  0.4022  1.1148
  171DOPC  C31720892   3.120   3.599  14.395 -0.9308  0.6891 -0.4959
  171DOPC  H17X20893   3.185   3.688  14.376 -0.7742  0.1135 -2.8550
  171DOPC  H17Y20894   3.015   3.631  14.412 -0.9603 -0.2142  1.3074
  171DOPC  C31820895   3.175   3.550  14.533  0.1045 -0.0776 -0.4672
  171DOPC  H18X20896   3.102   3.477  14.574  0.0069 -0.7827 -1.8384
  171DOPC  H18Y20897   3.277   3.505  14.530 -0.5102 -1.5721  0.0747
  171DOPC  H18Z20898   3.175   3.642  14.596  1.0366  0.1589 -0.7828
  172DOPC     N20899   2.561   4.864  12.897 -0.4403  0.0695  0.1277
  172DOPC   C1220900   2.549   5.009  12.857 -0.0531  0.5987  0.1435
  172DOPC  H12A20901   2.447   5.025  12.826 -0.1238 -2.4809 -1.5731
  172DOPC  H12B20902   2.600   5.032  12.765 -0.9258 -2.0990 -1.1074
  172DOPC   C1320903   2.514   4.783  12.784 -0.0847 -0.0715 -0.1283
  172DOPC  H13A20904   2.572   4.827  12.704  1.6507 -0.5283  0.8311
  172DOPC  H13B20905   2.546   4.682  12.804 -0.3837 -0.2300 -0.4587
  172DOPC  H13C20906   2.408   4.782  12.763  0.0500  0.4769 -0.8837
  172DOPC   C1420907   2.478   4.831  13.016 -0.2582 -0.2603  0.0494
  172DOPC  H14A20908   2.374   4.857  13.007 -0.6414 -1.3916  0.9060
  172DOPC  H14B20909   2.497   4.731  13.051  1.1271 -0.6521 -1.7204
  172DOPC  H14C20910   2.511   4.886  13.104 -0.0992 -1.2896  0.6517
  172DOPC   C1520911   2.707   4.829  12.921 -0.0935  0.1056  0.6312
  172DOPC  H15A20912   2.769   4.836  12.833  0.6470 -0.6994  1.0726
  172DOPC  H15B20913   2.729   4.731  12.961  3.2709  1.2796  2.0616
  172DOPC  H15C20914   2.753   4.893  12.995  0.1161  1.8490 -0.9484
  172DOPC   C1120915   2.573   5.108  12.971 -0.2733  0.2011 -0.0439
  172DOPC  H11A20916   2.666   5.074  13.022 -0.1455  0.2402 -0.2503
  172DOPC  H11B20917   2.599   5.205  12.922 -0.9217  0.7589  0.6947
  172DOPC     P20918   2.325   5.166  12.996  0.2928 -0.3455  0.2645
  172DOPC   O1320919   2.269   5.074  12.896  0.2777 -0.1519  0.0479
  172DOPC   O1420920   2.343   5.305  12.959  0.3210 -0.2161 -0.4422
  172DOPC   O1220921   2.458   5.119  13.055  0.6749 -0.2593 -0.0829
  172DOPC   O1120922   2.225   5.160  13.121 -0.0415  0.1157  0.0240
  172DOPC    C120923   2.262   5.188  13.258  0.2938  0.2101  0.3658
  172DOPC    HA20924   2.165   5.193  13.311  0.9295  1.0859  1.4886
  172DOPC    HB20925   2.299   5.291  13.278  0.0236 -0.4024  5.0467
  172DOPC    C220926   2.330   5.062  13.332  0.5204  0.5634  0.1542
  172DOPC    HS20927   2.429   5.056  13.281 -0.6540 -0.0438 -2.2360
  172DOPC   O2120928   2.237   4.947  13.307  0.2257  0.1810 -0.1899
  172DOPC   C2120929   2.303   4.841  13.340 -0.6895  0.9604 -0.0907
  172DOPC   O2220930   2.426   4.839  13.359  0.9165  0.3507 -0.6117
  172DOPC   C2220931   2.214   4.720  13.329  0.0276  0.3306  0.5679
  172DOPC   H2R20932   2.183   4.711  13.223 -0.8307  0.3610  0.8065
  172DOPC   H2S20933   2.125   4.737  13.393  0.6579 -1.0465  1.8760
  172DOPC    C320934   2.337   5.104  13.478 -0.1330 -0.6011  0.0760
  172DOPC    HX20935   2.386   5.027  13.541  0.3920 -1.5598 -1.4465
  172DOPC    HY20936   2.234   5.128  13.512  1.1098 -0.0172  3.7863
  172DOPC   O3120937   2.408   5.228  13.508 -0.0560 -0.0345 -0.8935
  172DOPC   C3120938   2.541   5.219  13.507 -0.1778 -0.6442  0.6232
  172DOPC   O3220939   2.604   5.114  13.494  0.7597 -0.0343 -0.0778
  172DOPC   C3220940   2.600   5.357  13.539 -0.2986  0.3272 -0.1574
  172DOPC   H2X20941   2.708   5.365  13.513 -0.0695  0.6452  0.8587
  172DOPC   H2Y20942   2.545   5.420  13.466 -0.5339  2.3754  1.7100
  172DOPC   C2320943   2.287   4.592  13.374 -0.1901  0.6418  0.1989
  172DOPC   H3R20944   2.386   4.582  13.326 -1.0395  1.4805 -1.8844
  172DOPC   H3S20945   2.228   4.504  13.339  0.9301  0.5368 -1.5785
  172DOPC   C2420946   2.299   4.589  13.522 -0.2152  0.4621 -0.1987
  172DOPC   H4R20947   2.198   4.607  13.564 -0.8575 -0.7889 -1.1166
  172DOPC   H4S20948   2.359   4.668  13.572 -2.0442 -0.3293  3.5696
  172DOPC   C2520949   2.346   4.448  13.574  0.2327  0.3258 -0.0231
  172DOPC   H5R20950   2.447   4.420  13.537  0.4782  0.4594  0.5242
  172DOPC   H5S20951   2.281   4.374  13.524  2.5391 -0.5771 -1.8932
  172DOPC   C2620952   2.321   4.427  13.726 -0.0586 -0.6942  0.0856
  172DOPC   H6R20953   2.298   4.318  13.731  0.4516 -0.8767 -1.2304
  172DOPC   H6S20954   2.236   4.486  13.768  0.6035  0.5672 -0.3081
  172DOPC   C2720955   2.447   4.444  13.804  0.4356 -0.2771  0.0606
  172DOPC   H7R20956   2.489   4.542  13.773 -1.8624  0.1970 -1.7822
  172DOPC   H7S20957   2.530   4.371  13.789  1.6297  0.6437  1.7817
  172DOPC   C2820958   2.430   4.456  13.955  0.2482 -0.0655 -0.8260
  172DOPC   H8R20959   2.330   4.504  13.960  0.4662  0.6575 -2.7106
  172DOPC   H8S20960   2.501   4.533  13.992 -0.0439  1.1867 -2.7355
  172DOPC   C2920961   2.432   4.314  14.017  0.4127  0.2775 -0.6286
  172DOPC   H9R20962   2.371   4.234  13.972 -0.3438  1.7449 -2.3323
  172DOPC  C21020963   2.498   4.283  14.134 -0.4680  0.1556  0.4434
  172DOPC  H10R20964   2.495   4.179  14.167 -0.6961  0.4214  1.2783
  172DOPC  C21120965   2.575   4.369  14.227  0.1300  0.1224 -0.3366
  172DOPC  H11R20966   2.573   4.476  14.197  0.2989 -0.1073 -1.1854
  172DOPC  H11S20967   2.682   4.342  14.235  0.1552  0.5946  1.1402
  172DOPC  C21220968   2.505   4.362  14.376  0.0405  0.5890  0.2574
  172DOPC  H12R20969   2.396   4.357  14.351  0.4608  0.6058 -1.7882
  172DOPC  H12S20970   2.536   4.451  14.435 -0.4953  3.0234 -2.8767
  172DOPC  C21320971   2.561   4.238  14.451 -0.4232 -0.0262  0.6694
  172DOPC  H13R20972   2.670   4.259  14.455 -0.5191  0.9231 -0.8581
  172DOPC  H13S20973   2.552   4.153  14.379  1.8611  0.2912 -0.0720
  172DOPC  C21420974   2.494   4.223  14.584 -0.1186 -0.2447 -0.1325
  172DOPC  H14R20975   2.388   4.193  14.570  0.3803 -1.7660 -0.8183
  172DOPC  H14S20976   2.505   4.321  14.635  0.4696  1.1124 -2.7052
  172DOPC  C21520977   2.573   4.124  14.676 -0.0864 -0.0874  0.0535
  172DOPC  H15R20978   2.682   4.147  14.678 -0.4812  1.9981  1.9195
  172DOPC  H15S20979   2.559   4.018  14.646 -1.4938 -0.2597  1.2596
  172DOPC  C21620980   2.526   4.132  14.817 -0.3996 -0.2749 -0.6358
  172DOPC  H16R20981   2.418   4.109  14.805 -0.1393 -0.3997 -3.1771
  172DOPC  H16S20982   2.535   4.231  14.867 -0.5150 -1.1468  1.1723
  172DOPC  C21720983   2.596   4.026  14.910  0.0974 -0.5538 -0.4972
  172DOPC  H17R20984   2.704   4.051  14.916 -0.2597  0.7397  2.7206
  172DOPC  H17S20985   2.585   3.929  14.857  1.0968 -1.7248  1.3211
  172DOPC  C21820986   2.535   4.011  15.048  0.2663  0.0157  0.5952
  172DOPC  H18R20987   2.586   3.936  15.112 -1.0680 -4.1856 -2.8190
  172DOPC  H18S20988   2.433   3.967  15.044  1.2302 -2.3602  0.8170
  172DOPC  H18T20989   2.516   4.111  15.093 -1.4365 -0.0989  0.1790
  172DOPC   C3320990   2.558   5.406  13.679 -0.1884 -1.0794 -0.5600
  172DOPC   H3X20991   2.448   5.401  13.692 -0.0337 -1.5236  0.7405
  172DOPC   H3Y20992   2.589   5.513  13.678 -0.6144 -0.9460  0.0522
  172DOPC   C3420993   2.628   5.338  13.793  0.3532 -0.0337 -0.7153
  172DOPC   H4X20994   2.728   5.386  13.790 -0.3963  1.5230 -2.2459
  172DOPC   H4Y20995   2.638   5.229  13.775 -2.8941 -0.7463  0.8743
  172DOPC   C3520996   2.551   5.353  13.931  0.0170  0.2885 -0.5883
  172DOPC   H5X20997   2.470   5.277  13.930  0.0026  0.2987 -1.7407
  172DOPC   H5Y20998   2.513   5.457  13.943  1.9281  1.0157 -0.4880
  172DOPC   C3620999   2.639   5.324  14.049 -0.7447 -0.0055  0.5416
  172DOPC   H6X21000   2.680   5.222  14.038 -1.0278  0.0380 -1.0551
  172DOPC   H6Y21001   2.717   5.399  14.073  0.8105 -2.4649  4.0489
  172DOPC   C3721002   2.550   5.327  14.174  0.1157  0.0905  0.5803
  172DOPC   H7X21003   2.493   5.421  14.189 -0.9990 -0.5373  0.3302
  172DOPC   H7Y21004   2.471   5.250  14.167  0.6515 -0.5866  1.6510
  172DOPC   C3821005   2.618   5.297  14.305 -0.4389  0.4994 -0.3473
  172DOPC   H8X21006   2.655   5.193  14.300 -1.4224  0.0379  1.3378
  172DOPC   H8Y21007   2.533   5.301  14.376 -0.5201 -0.4745 -0.3801
  172DOPC   C3921008   2.717   5.397  14.346  0.0343 -0.1596 -0.6720
  172DOPC   H9X21009   2.745   5.465  14.264  2.4241  1.1549  1.1023
  172DOPC  C31021010   2.775   5.407  14.470  0.3531 -0.0065 -0.1149
  172DOPC  H10X21011   2.834   5.499  14.477 -0.5752  0.7142 -1.2828
  172DOPC  C31121012   2.745   5.326  14.591 -0.0185  0.7963  0.1699
  172DOPC  H11X21013   2.668   5.250  14.565  2.2199 -1.2568 -0.8687
  172DOPC  H11Y21014   2.714   5.410  14.657  2.2687  2.0756 -0.2548
  172DOPC  C31221015   2.865   5.242  14.653  0.2331 -0.6656  0.7383
  172DOPC  H12X21016   2.916   5.183  14.574 -1.5171 -0.5508 -0.5232
  172DOPC  H12Y21017   2.820   5.171  14.725 -0.9065 -1.8059 -1.0246
  172DOPC  C31321018   2.957   5.337  14.730  0.6468  0.6535  0.3308
  172DOPC  H13X21019   3.042   5.360  14.662  0.2052 -0.3247 -0.5719
  172DOPC  H13Y21020   2.912   5.439  14.738  1.4551  0.9069  1.9990
  172DOPC  C31421021   3.004   5.303  14.871  0.6235 -0.3695 -0.1402
  172DOPC  H14X21022   3.054   5.203  14.873  0.4157 -0.4697  0.0450
  172DOPC  H14Y21023   3.083   5.373  14.905  1.4696 -1.6756  0.6598
  172DOPC  C31521024   2.888   5.304  14.978  0.6679  0.8564  0.4413
  172DOPC  H15X21025   2.814   5.226  14.951  0.0509  1.9222 -1.0908
  172DOPC  H15Y21026   2.830   5.399  14.970 -0.6097  0.1753  1.2525
  172DOPC  C31621027   2.953   5.289  15.123  0.6421  0.2314  0.8878
  172DOPC  H16X21028   2.999   5.191  15.147  0.9745  0.4791  1.2889
  172DOPC  H16Y21029   3.040   5.359  15.128 -0.7460  2.3443 -1.8966
  172DOPC  C31721030   2.848   5.314  15.228 -0.6521 -0.2324  0.4817
  172DOPC  H17X21031   2.783   5.404  15.217 -1.6971 -0.9972  0.2055
  172DOPC  H17Y21032   2.779   5.228  15.214  0.3073 -1.1747  1.3732
  172DOPC  C31821033   2.895   5.307  15.370  0.5116 -0.4772  0.8477
  172DOPC  H18X21034   2.809   5.317  15.439 -0.2813  0.2869 -0.2162
  172DOPC  H18Y21035   2.945   5.209  15.384  0.8041 -0.4067  0.3351
  172DOPC  H18Z21036   2.966   5.392  15.383 -0.1542  0.3243 -0.5064
  173DOPC     N21037   1.454   3.004  12.421  0.0982 -0.3178  0.0484
  173DOPC   C1221038   1.446   3.130  12.497  0.2834 -0.1219  0.4884
  173DOPC  H12A21039   1.418   3.101  12.598  1.4790 -0.6976  0.6614
  173DOPC  H12B21040   1.363   3.191  12.463  1.0497  0.1477 -0.9494
  173DOPC   C1321041   1.550   2.915  12.495  0.1199  0.9917 -0.0349
  173DOPC  H13A21042   1.494   2.885  12.583  2.6105 -1.8252  0.7411
  173DOPC  H13B21043   1.549   2.831  12.427 -2.3368  0.2181  0.8661
  173DOPC  H13C21044   1.648   2.953  12.520  1.0318 -1.3915  0.2338
  173DOPC   C1421045   1.520   3.030  12.290 -0.0296 -0.1715 -0.8363
  173DOPC  H14A21046   1.606   3.087  12.322  0.7974 -1.7324 -0.1672
  173DOPC  H14B21047   1.559   2.939  12.247 -0.4572 -1.7448  1.8509
  173DOPC  H14C21048   1.465   3.094  12.223 -0.0783 -1.7768 -2.4047
  173DOPC   C1521049   1.327   2.938  12.397  0.1507  0.0746 -0.5631
  173DOPC  H15A21050   1.268   2.907  12.482  0.6396  1.4274  0.3175
  173DOPC  H15B21051   1.348   2.846  12.346  2.1409 -0.5561  1.2238
  173DOPC  H15C21052   1.261   2.994  12.333 -1.6687 -0.4449  0.7655
  173DOPC   C1121053   1.574   3.206  12.514 -0.1208 -0.2849  0.6111
  173DOPC  H11A21054   1.569   3.247  12.618  1.7070 -1.8427  1.3920
  173DOPC  H11B21055   1.664   3.140  12.518  0.7960  0.9902  2.8792
  173DOPC     P21056   1.493   3.436  12.430  0.1518 -0.0222  0.1879
  173DOPC   O1321057   1.359   3.405  12.375 -0.3065 -0.5390 -0.0206
  173DOPC   O1421058   1.570   3.554  12.378  0.7141  0.4906 -0.2291
  173DOPC   O1221059   1.594   3.309  12.420  0.3566 -0.0845 -0.0397
  173DOPC   O1121060   1.468   3.451  12.583  0.3389  0.2087  0.3256
  173DOPC    C121061   1.566   3.490  12.672 -0.2667 -0.7917  0.3519
  173DOPC    HA21062   1.560   3.601  12.667  1.1412 -0.7459 -1.0446
  173DOPC    HB21063   1.673   3.465  12.652 -0.5422 -0.9131 -1.0817
  173DOPC    C221064   1.532   3.458  12.818  0.2873 -0.8218 -0.2837
  173DOPC    HS21065   1.575   3.360  12.848  0.6573 -0.4565  0.4062
  173DOPC   O2121066   1.390   3.450  12.836  0.6867  0.3370  0.3231
  173DOPC   C2121067   1.338   3.322  12.824  0.3011 -0.2115 -0.1594
  173DOPC   O2221068   1.408   3.222  12.816  0.1673  0.0946  0.3952
  173DOPC   C2221069   1.190   3.324  12.833 -0.3172 -0.5309  0.5990
  173DOPC   H2R21070   1.151   3.245  12.765 -0.2041  1.2229 -1.6285
  173DOPC   H2S21071   1.153   3.424  12.799  1.3114  0.4833  1.6902
  173DOPC    C321072   1.588   3.564  12.919 -0.0130  0.3186 -0.3569
  173DOPC    HX21073   1.529   3.656  12.903 -0.9284 -0.3737 -1.0028
  173DOPC    HY21074   1.693   3.569  12.884  0.3719 -1.5394  0.3573
  173DOPC   O3121075   1.583   3.522  13.055  0.1684  0.0327  0.2299
  173DOPC   C3121076   1.496   3.580  13.135 -0.2665  0.3761 -0.1407
  173DOPC   O3221077   1.426   3.677  13.109  0.4162  0.3415  0.8620
  173DOPC   C3221078   1.505   3.507  13.270  0.5967  0.4139  0.2389
  173DOPC   H2X21079   1.489   3.399  13.248  0.6472  0.6792 -1.1756
  173DOPC   H2Y21080   1.606   3.524  13.311 -0.0702 -1.0152  2.6753
  173DOPC   C2321081   1.150   3.293  12.974 -0.1489 -0.1669 -0.3022
  173DOPC   H3R21082   1.040   3.292  12.990 -0.0892  1.1265  0.2958
  173DOPC   H3S21083   1.205   3.371  13.031  1.5778  0.5131 -2.7329
  173DOPC   C2421084   1.200   3.156  13.034  0.0200 -0.6213 -0.2826
  173DOPC   H4R21085   1.307   3.170  13.063 -0.0939 -0.1059 -0.1066
  173DOPC   H4S21086   1.193   3.071  12.962  2.0232 -1.6982  0.6997
  173DOPC   C2521087   1.129   3.120  13.163  0.3361  0.2633  0.2121
  173DOPC   H5R21088   1.184   3.032  13.203  0.6165 -0.4426 -1.6309
  173DOPC   H5S21089   1.020   3.101  13.155 -0.7691  3.9397  3.4249
  173DOPC   C2621090   1.139   3.243  13.263  0.3815  0.0100 -0.2125
  173DOPC   H6R21091   1.079   3.320  13.210 -0.7467  0.4115  1.5547
  173DOPC   H6S21092   1.244   3.277  13.273  0.3464 -0.0525  0.4702
  173DOPC   C2721093   1.078   3.208  13.401  0.0150  0.3124  0.0771
  173DOPC   H7R21094   0.978   3.173  13.369  0.0362  1.9400 -1.9521
  173DOPC   H7S21095   1.056   3.297  13.463 -3.7506 -0.1386 -0.3745
  173DOPC   C2821096   1.139   3.104  13.491 -0.3295 -0.0085  0.4823
  173DOPC   H8R21097   1.144   3.011  13.431 -0.5946  0.4640 -0.2943
  173DOPC   H8S21098   1.077   3.082  13.581  1.7116 -2.2985  1.4233
  173DOPC   C2921099   1.278   3.144  13.535 -0.3035 -0.2271 -0.0166
  173DOPC   H9R21100   1.356   3.134  13.458  2.0796  3.1205  1.7150
  173DOPC  C21021101   1.320   3.195  13.652 -0.3234  0.3697 -0.5089
  173DOPC  H10R21102   1.426   3.224  13.658 -0.4695  0.7716  0.4397
  173DOPC  C21121103   1.234   3.225  13.780 -0.1114  0.6424 -0.0844
  173DOPC  H11R21104   1.125   3.214  13.762 -0.2203 -0.1093  0.9840
  173DOPC  H11S21105   1.257   3.329  13.814  2.2974  0.0973  0.1673
  173DOPC  C21221106   1.258   3.136  13.897 -0.2740  0.6929 -0.3479
  173DOPC  H12R21107   1.356   3.160  13.943 -0.2949 -0.6025  0.3993
  173DOPC  H12S21108   1.259   3.029  13.867 -1.0628  1.1365 -2.1059
  173DOPC  C21321109   1.162   3.137  14.018  0.3263 -0.5171 -0.1179
  173DOPC  H13R21110   1.066   3.085  13.995 -0.6624  1.3289 -0.3254
  173DOPC  H13S21111   1.146   3.243  14.044 -0.7479 -0.7410  0.1910
  173DOPC  C21421112   1.220   3.073  14.147  0.0128 -0.0425  0.3438
  173DOPC  H14R21113   1.320   3.121  14.157 -0.8455  1.7383  0.7195
  173DOPC  H14S21114   1.220   2.963  14.132 -0.3510 -0.4883  3.0490
  173DOPC  C21521115   1.139   3.102  14.273  0.0761 -0.1920 -0.4560
  173DOPC  H15R21116   1.138   3.212  14.286  0.2407 -0.3061  0.6855
  173DOPC  H15S21117   1.202   3.068  14.358  3.0001 -0.0852 -2.4487
  173DOPC  C21621118   1.001   3.037  14.276  1.0054 -0.4702  0.5124
  173DOPC  H16R21119   1.021   2.931  14.250 -2.0800 -0.5838 -1.9815
  173DOPC  H16S21120   0.930   3.079  14.202  0.7750 -1.2440  0.2922
  173DOPC  C21721121   0.934   3.044  14.416 -0.0705 -0.1674 -0.1861
  173DOPC  H17R21122   1.017   3.024  14.487 -0.8102 -1.5872  0.3165
  173DOPC  H17S21123   0.850   2.973  14.434 -1.5562  1.4726 -0.4057
  173DOPC  C21821124   0.881   3.185  14.462  0.3586  0.1848  0.1674
  173DOPC  H18R21125   0.790   3.201  14.401 -0.5606 -1.1675  1.1081
  173DOPC  H18S21126   0.959   3.256  14.428  0.2464 -0.2270 -0.9820
  173DOPC  H18T21127   0.859   3.178  14.571  2.4337 -0.9937  0.5628
  173DOPC   C3321128   1.419   3.559  13.387  0.7891 -0.0811 -0.0273
  173DOPC   H3X21129   1.317   3.518  13.376  1.1177 -1.6075  2.0787
  173DOPC   H3Y21130   1.408   3.669  13.379  2.3509  0.0680 -0.6857
  173DOPC   C3421131   1.482   3.523  13.528  0.6118 -0.0836  0.7281
  173DOPC   H4X21132   1.574   3.582  13.548  1.2676 -0.4696 -1.0266
  173DOPC   H4Y21133   1.514   3.417  13.516  2.2080  0.4651 -0.1282
  173DOPC   C3521134   1.388   3.550  13.640 -0.2457 -0.2116 -0.3658
  173DOPC   H5X21135   1.292   3.493  13.642 -0.2299 -0.2590 -0.8767
  173DOPC   H5Y21136   1.364   3.658  13.635 -1.0496 -0.4142 -1.1727
  173DOPC   C3621137   1.467   3.531  13.772 -0.5887 -0.0593  0.5695
  173DOPC   H6X21138   1.482   3.422  13.786  3.9395  0.0823 -1.2695
  173DOPC   H6Y21139   1.560   3.586  13.747 -0.8323  0.7882  1.4867
  173DOPC   C3721140   1.402   3.594  13.900  0.6152 -0.2972 -0.6263
  173DOPC   H7X21141   1.377   3.698  13.871  2.2711  0.1210 -0.6639
  173DOPC   H7Y21142   1.316   3.531  13.932  0.8304 -0.0482  0.4799
  173DOPC   C3821143   1.496   3.604  14.023  0.0160  0.2526  0.0187
  173DOPC   H8X21144   1.575   3.668  13.979 -0.9392  0.4135 -1.5561
  173DOPC   H8Y21145   1.540   3.506  14.052  0.3014 -0.0834 -1.4463
  173DOPC   C3921146   1.428   3.654  14.149 -0.6390 -0.5637 -0.1136
  173DOPC   H9X21147   1.360   3.738  14.130  0.4044  0.2207 -0.4609
  173DOPC  C31021148   1.436   3.602  14.272 -0.2592  0.2312  0.3320
  173DOPC  H10X21149   1.389   3.659  14.353 -0.6623  0.8588 -0.3341
  173DOPC  C31121150   1.506   3.490  14.338 -0.4599  0.1067 -0.0360
  173DOPC  H11X21151   1.570   3.514  14.425 -2.4610  1.4412  1.1579
  173DOPC  H11Y21152   1.561   3.435  14.259 -0.7428 -2.0455  1.1753
  173DOPC  C31221153   1.407   3.385  14.389 -0.6120 -0.1575 -0.0217
  173DOPC  H12X21154   1.482   3.312  14.425  1.6686  1.8986 -0.3309
  173DOPC  H12Y21155   1.350   3.337  14.307  0.3800 -0.6924 -0.4176
  173DOPC  C31321156   1.320   3.432  14.506  0.3271  0.5243  0.6873
  173DOPC  H13X21157   1.390   3.468  14.584  1.1336 -1.4758  0.9425
  173DOPC  H13Y21158   1.261   3.515  14.463  0.7320  0.0472 -0.8479
  173DOPC  C31421159   1.233   3.326  14.567  0.0481 -0.2983  0.2304
  173DOPC  H14X21160   1.177   3.381  14.645  0.9259  1.5081 -0.3523
  173DOPC  H14Y21161   1.150   3.295  14.500 -0.7869  1.1232  0.5619
  173DOPC  C31521162   1.316   3.207  14.622 -0.4228 -0.5134 -0.6356
  173DOPC  H15X21163   1.402   3.249  14.677 -2.5590  2.8103  0.4486
  173DOPC  H15Y21164   1.352   3.148  14.534  0.2909 -1.2019  0.0981
  173DOPC  C31621165   1.232   3.113  14.710  0.4268  0.3142  0.6296
  173DOPC  H16X21166   1.210   3.153  14.811  0.4957  0.1535  0.7092
  173DOPC  H16Y21167   1.140   3.084  14.655  0.1482  0.7332  0.8784
  173DOPC  C31721168   1.303   2.978  14.737  0.6777  0.2854  0.3895
  173DOPC  H17X21169   1.222   2.916  14.781  1.5870 -0.7861  0.5744
  173DOPC  H17Y21170   1.340   2.934  14.642 -2.0409 -0.4579 -0.4349
  173DOPC  C31821171   1.419   2.974  14.831  0.1378 -0.4150 -0.1074
  173DOPC  H18X21172   1.488   2.887  14.824  0.2400 -0.3863  0.4791
  173DOPC  H18Y21173   1.487   3.058  14.805 -0.5280 -0.0936 -0.8473
  173DOPC  H18Z21174   1.375   2.989  14.932 -0.8286  0.5218 -0.6510
  174DOPC     N21175   3.703   2.231  11.847  1.3169 -0.3979  0.6907
  174DOPC   C1221176   3.612   2.172  11.953  0.1899  0.5686  0.0447
  174DOPC  H12A21177   3.597   2.065  11.944 -0.5800  0.5917  0.9082
  174DOPC  H12B21178   3.514   2.216  11.956 -0.2288 -0.3172 -0.0980
  174DOPC   C1321179   3.845   2.172  11.848  0.9805  0.9192  0.0879
  174DOPC  H13A21180   3.889   2.162  11.946  2.2640  0.8576 -0.4778
  174DOPC  H13B21181   3.836   2.071  11.811 -2.0306  1.1254  0.0013
  174DOPC  H13C21182   3.911   2.233  11.788  1.4849  1.7844  1.4912
  174DOPC   C1421183   3.719   2.377  11.873  0.3768  0.7845  0.4199
  174DOPC  H14A21184   3.630   2.430  11.843 -0.9720 -0.7735  1.4808
  174DOPC  H14B21185   3.751   2.402  11.973 -0.6584  0.6102  0.8097
  174DOPC  H14C21186   3.799   2.405  11.806  0.4228 -1.4046 -0.5009
  174DOPC   C1521187   3.658   2.211  11.703 -0.0027  0.0479 -0.1988
  174DOPC  H15A21188   3.632   2.108  11.684 -0.2166 -0.0565  0.6003
  174DOPC  H15B21189   3.738   2.233  11.634 -0.9632 -0.6999 -1.5982
  174DOPC  H15C21190   3.572   2.270  11.678 -1.0821 -1.1084  0.6596
  174DOPC   C1121191   3.657   2.187  12.102 -0.5267  0.3040 -0.1775
  174DOPC  H11A21192   3.678   2.295  12.118  1.9498 -0.2563  0.7988
  174DOPC  H11B21193   3.574   2.159  12.170 -0.1198 -0.8886 -0.1487
  174DOPC     P21194   3.777   1.966  12.155 -0.2254  0.2307 -0.0019
  174DOPC   O1321195   3.911   1.920  12.197  0.2158  0.6741 -0.0548
  174DOPC   O1421196   3.707   1.894  12.041 -0.4955 -0.7335  0.0680
  174DOPC   O1221197   3.778   2.116  12.129  0.1232 -0.0293  0.1117
  174DOPC   O1121198   3.680   1.963  12.289 -0.2288  0.2044  0.1271
  174DOPC    C121199   3.702   1.855  12.377  0.1493  0.6734  0.3821
  174DOPC    HA21200   3.743   1.762  12.333 -1.2453 -0.2165  0.8605
  174DOPC    HB21201   3.600   1.828  12.414  0.4612 -0.2679  0.5881
  174DOPC    C221202   3.770   1.891  12.512 -0.0326 -0.1133  0.6082
  174DOPC    HS21203   3.762   1.798  12.573 -1.8825 -1.8529 -2.1003
  174DOPC   O2121204   3.699   2.007  12.559 -0.3960  0.1672  0.4330
  174DOPC   C2121205   3.600   1.986  12.638  0.4409  0.2001 -0.1901
  174DOPC   O2221206   3.551   1.880  12.673  0.4160 -0.5609  1.0890
  174DOPC   C2221207   3.555   2.120  12.702 -0.4005  0.2263 -0.3301
  174DOPC   H2R21208   3.446   2.108  12.716  0.0228 -3.3070  0.8402
  174DOPC   H2S21209   3.565   2.211  12.639  0.4757  1.0969  1.0148
  174DOPC    C321210   3.922   1.925  12.503  0.1056  0.5540  0.1392
  174DOPC    HX21211   3.925   2.018  12.441 -0.4949 -0.2526 -1.1222
  174DOPC    HY21212   3.964   1.851  12.432 -0.8370  0.3544 -0.2154
  174DOPC   O3121213   3.977   1.928  12.640 -0.4343 -0.2829  0.0868
  174DOPC   C3121214   4.110   1.960  12.634  0.5976  0.0454  0.4475
  174DOPC   O3221215   4.173   1.961  12.528  0.5971  0.2517  0.5138
  174DOPC   C3221216   4.162   1.997  12.769  0.1440  0.6578  0.0760
  174DOPC   H2X21217   4.092   2.072  12.813 -1.0829  0.1661 -0.9627
  174DOPC   H2Y21218   4.159   1.907  12.834 -0.4862 -0.7923 -1.8683
  174DOPC   C2321219   3.627   2.143  12.840 -0.1275  0.7080  0.2777
  174DOPC   H3R21220   3.610   2.249  12.869 -2.1440  0.2885  0.7617
  174DOPC   H3S21221   3.734   2.117  12.830 -0.9783 -2.4122 -2.6188
  174DOPC   C2421222   3.572   2.054  12.952 -0.2740 -0.4703 -0.4361
  174DOPC   H4R21223   3.597   1.949  12.923 -0.1633 -0.0106 -2.1036
  174DOPC   H4S21224   3.464   2.071  12.968  0.1086 -0.0034  2.1787
  174DOPC   C2521225   3.640   2.101  13.086  1.0803 -0.2552 -0.3922
  174DOPC   H5R21226   3.630   2.210  13.102 -0.2024 -0.3265 -0.6086
  174DOPC   H5S21227   3.748   2.078  13.080  1.1147 -0.4316  0.6390
  174DOPC   C2621228   3.579   2.042  13.215 -0.4559 -0.0943  0.1659
  174DOPC   H6R21229   3.581   1.931  13.209 -0.9656 -0.0490 -1.1327
  174DOPC   H6S21230   3.470   2.062  13.214 -0.3885  0.2647 -0.2076
  174DOPC   C2721231   3.644   2.101  13.335 -0.0021  0.3501  0.0138
  174DOPC   H7R21232   3.655   2.210  13.318  0.3452  0.1728 -0.9538
  174DOPC   H7S21233   3.744   2.055  13.347  0.9511  2.4732  0.6696
  174DOPC   C2821234   3.573   2.070  13.468  0.1988  0.6158 -0.1292
  174DOPC   H8R21235   3.473   2.117  13.467 -1.2059 -2.1492  0.6506
  174DOPC   H8S21236   3.628   2.128  13.545  1.7170 -1.9545  0.8653
  174DOPC   C2921237   3.584   1.927  13.507 -0.5759  0.4472 -0.0175
  174DOPC   H9R21238   3.591   1.860  13.420  2.3297  1.6739 -0.8418
  174DOPC  C21021239   3.596   1.885  13.633 -0.6450  0.4962 -0.6924
  174DOPC  H10R21240   3.611   1.776  13.646 -0.4033  0.5415 -0.5805
  174DOPC  C21121241   3.597   1.962  13.762 -0.0770  0.0276  0.2734
  174DOPC  H11R21242   3.506   2.026  13.767 -0.8318 -1.1169  2.7599
  174DOPC  H11S21243   3.679   2.037  13.762 -0.8298  0.9023 -1.0424
  174DOPC  C21221244   3.603   1.878  13.893 -0.6739 -0.0736 -0.0850
  174DOPC  H12R21245   3.690   1.809  13.894  0.3785  1.2032  1.3558
  174DOPC  H12S21246   3.510   1.818  13.887 -0.4525 -0.3066 -1.6177
  174DOPC  C21321247   3.602   1.965  14.013 -0.3283 -0.2809  0.1717
  174DOPC  H13R21248   3.513   2.031  14.009  0.1113  0.2602 -0.9936
  174DOPC  H13S21249   3.690   2.033  14.007  0.3617 -1.3158 -2.5433
  174DOPC  C21421250   3.597   1.882  14.139 -0.3446  0.0473 -0.2810
  174DOPC  H14R21251   3.678   1.807  14.130 -0.2167  0.1792 -0.2395
  174DOPC  H14S21252   3.512   1.811  14.143  0.2470 -0.7185 -1.0220
  174DOPC  C21521253   3.616   1.945  14.270  0.5807  0.1175 -0.7636
  174DOPC  H15R21254   3.697   2.021  14.277 -0.6346  1.6089 -2.1056
  174DOPC  H15S21255   3.652   1.862  14.335  2.4763  2.0906  0.8905
  174DOPC  C21621256   3.489   2.003  14.321  0.3205 -0.1431  0.8075
  174DOPC  H16R21257   3.456   2.094  14.267 -0.6097 -0.9722 -0.0658
  174DOPC  H16S21258   3.518   2.049  14.417  2.8687 -1.9632  1.0227
  174DOPC  C21721259   3.369   1.911  14.347 -0.0017 -0.2106 -0.2546
  174DOPC  H17R21260   3.314   1.875  14.258 -3.4280  3.1661  0.2374
  174DOPC  H17S21261   3.297   1.980  14.397 -2.6028 -2.8976  0.0423
  174DOPC  C21821262   3.396   1.799  14.445  0.4340  0.1184 -0.2340
  174DOPC  H18R21263   3.469   1.736  14.389 -0.0270 -0.7261  0.0845
  174DOPC  H18S21264   3.307   1.732  14.451  1.1588 -0.8087  0.6038
  174DOPC  H18T21265   3.418   1.830  14.549  1.2958 -1.7621  0.1954
  174DOPC   C3321266   4.306   2.046  12.764 -0.1016 -0.1231 -0.4381
  174DOPC   H3X21267   4.325   2.114  12.679  0.6431  1.2579  0.7821
  174DOPC   H3Y21268   4.378   1.967  12.736 -0.9902 -0.9300 -0.5177
  174DOPC   C3421269   4.345   2.131  12.883 -0.2528 -0.0853 -0.3015
  174DOPC   H4X21270   4.303   2.234  12.878  1.2115  0.5062 -0.9880
  174DOPC   H4Y21271   4.454   2.146  12.866 -0.1435 -0.0361  0.3978
  174DOPC   C3521272   4.304   2.068  13.019 -0.5250  0.5758 -0.0597
  174DOPC   H5X21273   4.361   1.973  13.017 -2.6236 -0.7487 -2.5839
  174DOPC   H5Y21274   4.195   2.051  13.024 -0.8054  2.4022  1.0020
  174DOPC   C3621275   4.345   2.134  13.150 -0.0715 -0.5774  0.9051
  174DOPC   H6X21276   4.452   2.164  13.148  0.3067 -1.7981  1.9331
  174DOPC   H6Y21277   4.290   2.229  13.165  0.1814 -0.0600 -1.0473
  174DOPC   C3721278   4.307   2.050  13.275  0.5997  0.7284 -0.8413
  174DOPC   H7X21279   4.197   2.041  13.265  0.2062  3.4992 -0.0329
  174DOPC   H7Y21280   4.355   1.950  13.266 -0.7085 -0.2677  2.1846
  174DOPC   C3821281   4.350   2.104  13.410 -0.2265  0.4061  0.5932
  174DOPC   H8X21282   4.288   2.055  13.488 -2.2323 -2.0439 -2.3254
  174DOPC   H8Y21283   4.326   2.210  13.429 -2.4442  0.1633 -0.5140
  174DOPC   C3921284   4.497   2.080  13.427  0.1769 -0.3733  0.8439
  174DOPC   H9X21285   4.553   2.160  13.377  0.1956 -1.2014 -0.5087
  174DOPC  C31021286   4.559   2.009  13.523  0.1929 -0.1177  0.3143
  174DOPC  H10X21287   4.669   2.009  13.523  0.2004 -1.5403  0.4638
  174DOPC  C31121288   4.499   1.923  13.630  0.3729  0.2319  0.2351
  174DOPC  H11X21289   4.561   1.833  13.651 -1.9697 -1.5002  0.0666
  174DOPC  H11Y21290   4.393   1.904  13.605  0.5100  0.8336 -0.8900
  174DOPC  C31221291   4.503   2.003  13.764 -0.0181 -0.1997 -0.4106
  174DOPC  H12X21292   4.430   2.083  13.744  1.1868  0.2479 -3.5813
  174DOPC  H12Y21293   4.599   2.057  13.782  0.0368 -0.2400 -0.5809
  174DOPC  C31321294   4.465   1.924  13.886  0.0741  0.2282  0.5564
  174DOPC  H13X21295   4.360   1.887  13.890  0.5103 -0.9760  1.2759
  174DOPC  H13Y21296   4.517   1.826  13.884  1.2649  0.8396 -1.7076
  174DOPC  C31421297   4.488   1.992  14.023  0.2523  0.5513 -0.1900
  174DOPC  H14X21298   4.592   2.030  14.033  0.5605 -0.3765  0.2285
  174DOPC  H14Y21299   4.421   2.080  14.025 -1.3124 -0.4893 -2.3606
  174DOPC  C31521300   4.445   1.896  14.136 -0.6225 -0.0192  0.3624
  174DOPC  H15X21301   4.528   1.825  14.157 -0.7860 -0.3954 -0.2363
  174DOPC  H15Y21302   4.362   1.828  14.106  1.2083 -2.3555  0.2473
  174DOPC  C31621303   4.420   1.960  14.276  0.6878 -0.0198 -0.3090
  174DOPC  H16X21304   4.514   2.016  14.297  0.7486 -0.3210  0.2298
  174DOPC  H16Y21305   4.334   2.029  14.267 -1.1040 -2.3048 -2.2535
  174DOPC  C31721306   4.400   1.853  14.386  0.2037 -0.1214  0.2722
  174DOPC  H17X21307   4.326   1.785  14.339  1.6230 -1.3204 -0.3221
  174DOPC  H17Y21308   4.495   1.796  14.392  0.8218  0.5807 -1.8147
  174DOPC  C31821309   4.341   1.906  14.518 -0.4835 -0.8523 -0.1424
  174DOPC  H18X21310   4.422   1.949  14.581 -1.8275  1.5201  0.0832
  174DOPC  H18Y21311   4.264   1.984  14.501 -0.9064 -1.3130 -0.3691
  174DOPC  H18Z21312   4.290   1.820  14.566 -0.1476 -0.1572  1.5208
  175DOPC     N21313   2.336   0.359  12.643 -0.4099 -0.5502  0.6284
  175DOPC   C1221314   2.480   0.363  12.703  0.4142 -0.5130  0.8520
  175DOPC  H12A21315   2.489   0.456  12.757  1.3288 -0.3366  0.4078
  175DOPC  H12B21316   2.554   0.371  12.625  1.5682 -1.4532  1.8078
  175DOPC   C1321317   2.228   0.344  12.740  0.9806  0.3476  0.6536
  175DOPC  H13A21318   2.233   0.266  12.814  0.1358  0.9181  1.3250
  175DOPC  H13B21319   2.219   0.428  12.808  1.6889 -0.8413  2.2933
  175DOPC  H13C21320   2.130   0.341  12.694  1.0241  0.1352  0.5759
  175DOPC   C1421321   2.327   0.243  12.546 -0.1610  0.1690 -0.5817
  175DOPC  H14A21322   2.354   0.151  12.594 -3.0479 -0.7436 -0.4999
  175DOPC  H14B21323   2.223   0.245  12.515 -0.5066 -0.1926  0.4869
  175DOPC  H14C21324   2.394   0.254  12.463  2.8505 -0.7100  1.5752
  175DOPC   C1521325   2.309   0.481  12.564  0.1144 -0.2979 -0.6066
  175DOPC  H15A21326   2.385   0.496  12.488  0.4035  0.9033 -0.1182
  175DOPC  H15B21327   2.328   0.565  12.629 -1.4871 -0.0803 -0.3829
  175DOPC  H15C21328   2.209   0.483  12.523 -0.4980  0.5649  0.8484
  175DOPC   C1121329   2.522   0.242  12.795 -0.0407 -0.4967  0.1632
  175DOPC  H11A21330   2.629   0.256  12.823 -0.5638 -0.7819  2.4742
  175DOPC  H11B21331   2.461   0.251  12.887 -0.9366  0.3944 -0.4917
  175DOPC     P21332   2.621   0.060  12.641 -0.1562 -0.5600 -0.1007
  175DOPC   O1321333   2.700   0.174  12.577  0.3069  0.4837 -0.1520
  175DOPC   O1421334   2.576  -0.043  12.547  0.3532  0.0329  0.3046
  175DOPC   O1221335   2.505   0.118  12.721  0.2491 -0.2859 -0.0224
  175DOPC   O1121336   2.708  -0.009  12.750  0.0817  0.6114  0.1884
  175DOPC    C121337   2.677  -0.142  12.793  0.4065  0.1049  0.2665
  175DOPC    HA21338   2.775  -0.193  12.807 -1.1587 -2.9301  1.0102
  175DOPC    HB21339   2.611  -0.198  12.722 -1.1001  2.3266 -0.1750
  175DOPC    C221340   2.596  -0.141  12.934 -0.0436 -0.0777  0.7438
  175DOPC    HS21341   2.505  -0.080  12.918 -0.7759 -1.1774  0.6048
  175DOPC   O2121342   2.684  -0.087  13.033 -0.5811  0.0569  0.4789
  175DOPC   C2121343   2.652   0.024  13.095  0.1626 -0.7648  0.2969
  175DOPC   O2221344   2.541   0.081  13.076 -0.0963 -0.4704 -0.6667
  175DOPC   C2221345   2.755   0.067  13.193  0.0609  0.5483  0.7241
  175DOPC   H2R21346   2.754   0.178  13.201 -0.4438  0.8721 -2.6063
  175DOPC   H2S21347   2.852   0.033  13.149 -0.6824 -0.0752 -0.4788
  175DOPC    C321348   2.555  -0.290  12.978  0.5967 -0.6193  0.2488
  175DOPC    HX21349   2.650  -0.342  13.001  1.6316  1.2660  0.4000
  175DOPC    HY21350   2.492  -0.340  12.901 -1.3789  0.9629  0.7249
  175DOPC   O3121351   2.487  -0.278  13.112  0.2559  0.2329 -0.1854
  175DOPC   C3121352   2.352  -0.250  13.107  0.1456 -0.4859 -0.3501
  175DOPC   O3221353   2.283  -0.258  13.007  0.4624 -0.6867 -0.1070
  175DOPC   C3221354   2.301  -0.219  13.244 -0.7879 -0.0359 -0.0696
  175DOPC   H2X21355   2.191  -0.236  13.248 -0.8693  0.6374  0.9656
  175DOPC   H2Y21356   2.355  -0.278  13.322 -0.9813  0.2087  0.2513
  175DOPC   C2321357   2.716   0.015  13.329 -0.7141  0.0565 -0.2872
  175DOPC   H3R21358   2.661  -0.082  13.327  0.2732 -0.5209 -0.9804
  175DOPC   H3S21359   2.677   0.104  13.382 -0.4652 -0.4834  0.8207
  175DOPC   C2421360   2.846  -0.029  13.392 -0.1382  0.0265 -0.0327
  175DOPC   H4R21361   2.909   0.059  13.418  0.2404 -0.1052 -0.5023
  175DOPC   H4S21362   2.890  -0.106  13.326 -2.1262 -1.7689  0.6168
  175DOPC   C2521363   2.812  -0.099  13.522  0.2961 -0.3163  0.3038
  175DOPC   H5R21364   2.907  -0.141  13.561  0.5940  0.2853  0.2475
  175DOPC   H5S21365   2.742  -0.185  13.524 -1.7156  1.2542 -0.0313
  175DOPC   C2621366   2.766   0.002  13.627 -0.1387 -0.4598 -0.6602
  175DOPC   H6R21367   2.669   0.043  13.591 -0.9892 -1.2542  0.6392
  175DOPC   H6S21368   2.834   0.090  13.626  1.1715 -1.4245  0.2184
  175DOPC   C2721369   2.767  -0.038  13.774 -0.5129  0.0604  0.1616
  175DOPC   H7R21370   2.875  -0.057  13.792 -0.1261 -0.8856 -2.6759
  175DOPC   H7S21371   2.710  -0.132  13.786 -2.3280  1.1541  0.5540
  175DOPC   C2821372   2.721   0.071  13.872  0.1255 -1.2832  0.5180
  175DOPC   H8R21373   2.625   0.105  13.828  1.1699 -1.0333 -1.6616
  175DOPC   H8S21374   2.789   0.159  13.861 -0.4725 -0.7385  1.0620
  175DOPC   C2921375   2.688   0.031  14.012  0.2848 -0.2561 -0.5370
  175DOPC   H9R21376   2.609  -0.046  14.012  1.0106 -1.0215 -1.5165
  175DOPC  C21021377   2.756   0.055  14.127  0.1091  0.0566 -0.1903
  175DOPC  H10R21378   2.708   0.026  14.222 -0.7020  0.7134 -0.3889
  175DOPC  C21121379   2.888   0.125  14.143 -0.4697  0.5207 -0.0551
  175DOPC  H11R21380   2.945   0.138  14.049 -0.0491 -1.5901 -0.1448
  175DOPC  H11S21381   2.956   0.053  14.195 -0.4286 -0.9927 -2.0755
  175DOPC  C21221382   2.898   0.262  14.211 -0.1517 -0.0293 -0.2703
  175DOPC  H12R21383   2.841   0.332  14.145 -1.5503 -0.7030  0.2016
  175DOPC  H12S21384   3.006   0.286  14.201 -0.1812 -0.7232 -3.0347
  175DOPC  C21321385   2.838   0.266  14.353  0.9693 -0.1412  0.2414
  175DOPC  H13R21386   2.729   0.244  14.360  0.9102  0.4602  1.6890
  175DOPC  H13S21387   2.845   0.369  14.394  0.4460 -0.1186  0.2862
  175DOPC  C21421388   2.907   0.160  14.447  0.4739 -1.3830 -0.0612
  175DOPC  H14R21389   3.016   0.184  14.450  0.2610 -0.3869  0.0661
  175DOPC  H14S21390   2.885   0.061  14.403 -2.5180 -1.8823  2.2422
  175DOPC  C21521391   2.844   0.156  14.588  0.3507  0.5299 -0.2056
  175DOPC  H15R21392   2.736   0.128  14.590 -0.4773  3.4351  0.2018
  175DOPC  H15S21393   2.841   0.258  14.632 -2.6374  0.6015 -0.3464
  175DOPC  C21621394   2.902   0.054  14.677  0.5151 -0.3037 -0.6595
  175DOPC  H16R21395   2.888  -0.051  14.646  0.3832 -0.6248  0.4364
  175DOPC  H16S21396   2.851   0.049  14.776 -0.0054  3.0984 -0.6215
  175DOPC  C21721397   3.055   0.086  14.706 -0.1698  0.1998  0.1507
  175DOPC  H17R21398   3.061   0.188  14.750 -0.5090 -0.7962  2.6806
  175DOPC  H17S21399   3.107   0.085  14.607 -1.7059  0.3282 -0.6883
  175DOPC  C21821400   3.118  -0.003  14.812 -0.1303  0.1376 -0.1423
  175DOPC  H18R21401   3.099  -0.109  14.784  0.1529 -0.1149  0.6017
  175DOPC  H18S21402   3.074   0.014  14.913 -0.3340  0.7866 -0.3372
  175DOPC  H18T21403   3.228   0.004  14.827 -0.0039 -0.0049 -0.9702
  175DOPC   C3321404   2.335  -0.081  13.293  0.1278 -0.1652 -0.5552
  175DOPC   H3X21405   2.300  -0.007  13.218  0.8966  0.3118 -0.4544
  175DOPC   H3Y21406   2.445  -0.072  13.298  0.0545  0.1203  1.0536
  175DOPC   C3421407   2.268  -0.036  13.425 -0.0847  0.1859 -0.4397
  175DOPC   H4X21408   2.158  -0.047  13.424 -0.2569  1.0561  2.0171
  175DOPC   H4Y21409   2.288   0.073  13.436  1.9930 -0.2315  0.3404
  175DOPC   C3521410   2.324  -0.120  13.546 -0.5611 -0.1372 -0.1433
  175DOPC   H5X21411   2.431  -0.091  13.550 -0.2843 -0.6137 -2.6833
  175DOPC   H5Y21412   2.307  -0.229  13.535  0.7625 -0.4361  0.4924
  175DOPC   C3621413   2.271  -0.089  13.687 -0.6142 -0.2533 -0.2287
  175DOPC   H6X21414   2.161  -0.078  13.683 -0.3786  2.3116 -1.8829
  175DOPC   H6Y21415   2.291  -0.174  13.755 -0.8016  0.1416  0.3232
  175DOPC   C3721416   2.330   0.045  13.745 -0.2725 -0.0673  0.0356
  175DOPC   H7X21417   2.440   0.028  13.743  0.0151  1.5321 -2.1779
  175DOPC   H7Y21418   2.309   0.127  13.672 -0.2740  1.1852  1.4082
  175DOPC   C3821419   2.291   0.078  13.889  0.3269 -0.4406 -0.0796
  175DOPC   H8X21420   2.184   0.108  13.887  1.1467  3.0369  0.9768
  175DOPC   H8Y21421   2.341   0.174  13.914 -2.0792  0.7836  0.3553
  175DOPC   C3921422   2.316  -0.021  13.992 -0.7644  0.0994  0.1450
  175DOPC   H9X21423   2.319  -0.125  13.958 -1.0558  0.2950 -0.4910
  175DOPC  C31021424   2.331   0.001  14.121 -0.6223 -0.8623  0.0283
  175DOPC  H10X21425   2.351  -0.081  14.192  0.9413 -0.3233  0.2503
  175DOPC  C31121426   2.337   0.141  14.183 -0.2027  0.1204 -0.5707
  175DOPC  H11X21427   2.304   0.224  14.116 -1.6766 -0.9151 -1.1970
  175DOPC  H11Y21428   2.444   0.156  14.208 -0.5333  3.3084 -0.6284
  175DOPC  C31221429   2.255   0.168  14.309  0.2139 -0.5467 -0.3916
  175DOPC  H12X21430   2.154   0.120  14.304 -0.1299  0.1639 -0.3946
  175DOPC  H12Y21431   2.231   0.275  14.325 -1.1249 -0.5574 -1.9867
  175DOPC  C31321432   2.325   0.116  14.434 -0.0908 -0.0167 -0.0117
  175DOPC  H13X21433   2.364   0.013  14.421  1.6919  0.7049 -0.6722
  175DOPC  H13Y21434   2.425   0.162  14.445  0.1254 -0.3612 -0.5188
  175DOPC  C31421435   2.246   0.115  14.561  0.2207 -0.1455  0.2314
  175DOPC  H14X21436   2.202   0.215  14.582 -1.4203 -0.6989 -0.4028
  175DOPC  H14Y21437   2.159   0.046  14.552 -0.6235  0.9743 -0.4280
  175DOPC  C31521438   2.330   0.078  14.685 -0.2984 -1.1721 -0.1710
  175DOPC  H15X21439   2.411   0.145  14.721  0.5372 -2.9333  1.4740
  175DOPC  H15Y21440   2.372  -0.021  14.657  0.7486 -0.2986 -1.8567
  175DOPC  C31621441   2.239   0.061  14.810 -0.1050  0.2440  0.5545
  175DOPC  H16X21442   2.206   0.163  14.838  0.2204  0.7896 -0.9603
  175DOPC  H16Y21443   2.143   0.016  14.776 -0.8254  1.7253  0.5350
  175DOPC  C31721444   2.296  -0.011  14.928 -0.5109 -0.8256 -0.2248
  175DOPC  H17X21445   2.216  -0.044  14.997  0.5042 -2.5018  0.2011
  175DOPC  H17Y21446   2.339  -0.107  14.894 -0.5439 -1.3002  1.0196
  175DOPC  C31821447   2.411   0.067  14.993  0.8739  0.5222  1.0940
  175DOPC  H18X21448   2.380   0.164  15.037 -1.0292  1.2417 -1.5864
  175DOPC  H18Y21449   2.448   0.005  15.078 -1.0035 -1.2509  0.6823
  175DOPC  H18Z21450   2.498   0.089  14.927  0.0876  2.6406  0.6862
  176DOPC     N21451   2.268   2.529  12.111  0.3078 -0.0274  0.0795
  176DOPC   C1221452   2.231   2.668  12.155 -0.5044 -0.2021 -0.0798
  176DOPC  H12A21453   2.141   2.696  12.102 -0.5322  0.5152  0.3192
  176DOPC  H12B21454   2.299   2.741  12.113 -1.6016  0.2209 -1.1901
  176DOPC   C1321455   2.313   2.533  11.968 -0.4704  0.3135 -0.3503
  176DOPC  H13A21456   2.405   2.587  11.951 -1.1636  1.7669  0.3288
  176DOPC  H13B21457   2.346   2.433  11.946  2.1218  0.5662  1.8485
  176DOPC  H13C21458   2.238   2.571  11.901  0.1788  3.4137  0.5019
  176DOPC   C1421459   2.151   2.438  12.119  0.4455 -0.2316  0.5512
  176DOPC  H14A21460   2.072   2.475  12.056 -0.1795 -2.3964 -0.0279
  176DOPC  H14B21461   2.178   2.339  12.083  0.3778 -1.2670  3.1078
  176DOPC  H14C21462   2.119   2.415  12.220  1.3248 -2.3295  0.4226
  176DOPC   C1521463   2.373   2.469  12.200  0.2639  0.4430  0.4250
  176DOPC  H15A21464   2.340   2.472  12.302 -0.3699  2.7269  0.2123
  176DOPC  H15B21465   2.462   2.530  12.201  1.3250 -1.0556  1.1334
  176DOPC  H15C21466   2.389   2.365  12.177 -1.1666  0.5937 -1.5129
  176DOPC   C1121467   2.218   2.689  12.303  0.1091  0.2127 -0.6172
  176DOPC  H11A21468   2.320   2.700  12.344  0.0160  0.7274 -0.5161
  176DOPC  H11B21469   2.169   2.786  12.327  0.3301 -0.1795  1.6228
  176DOPC     P21470   2.002   2.586  12.398  0.0567  0.2289  0.3849
  176DOPC   O1321471   1.951   2.453  12.426 -0.3269  0.0032 -0.1304
  176DOPC   O1421472   1.932   2.659  12.288 -1.2068  0.1776  0.1429
  176DOPC   O1221473   2.149   2.578  12.364 -0.2408 -0.2905  0.0160
  176DOPC   O1121474   1.990   2.673  12.532  0.0078 -0.5743  0.1746
  176DOPC    C121475   1.882   2.677  12.625  0.3002 -0.1834 -0.4448
  176DOPC    HA21476   1.812   2.592  12.609 -0.1469  0.2566 -0.8488
  176DOPC    HB21477   1.818   2.764  12.597 -2.9579 -1.9762  0.8551
  176DOPC    C221478   1.927   2.675  12.774  0.4921 -0.3687 -0.2610
  176DOPC    HS21479   1.837   2.628  12.820  0.2810  0.8495  0.6303
  176DOPC   O2121480   1.958   2.805  12.834 -0.5215 -0.0286  0.1903
  176DOPC   C2121481   1.916   2.811  12.964  0.6689 -0.1075  0.7908
  176DOPC   O2221482   1.838   2.730  13.015 -0.1575  0.0942 -0.9156
  176DOPC   C2221483   2.021   2.892  13.045 -0.4935 -0.4360  0.0626
  176DOPC   H2R21484   1.996   2.996  13.016  2.8076  0.0185 -1.6332
  176DOPC   H2S21485   2.122   2.865  13.006 -1.0217 -0.4721 -1.3314
  176DOPC    C321486   2.037   2.576  12.809  0.3278 -0.0282 -0.6011
  176DOPC    HX21487   2.131   2.630  12.789  0.8383 -0.6206  0.1288
  176DOPC    HY21488   2.029   2.488  12.741  1.3120 -0.8971  0.3789
  176DOPC   O3121489   2.022   2.529  12.947 -0.0995 -0.0043  0.2181
  176DOPC   C3121490   2.142   2.512  13.009  0.6496 -0.4077 -0.1559
  176DOPC   O3221491   2.253   2.517  12.959  0.6540 -0.7850 -0.1288
  176DOPC   C3221492   2.107   2.482  13.154 -0.3771  0.6769 -0.2940
  176DOPC   H2X21493   2.017   2.546  13.169 -0.0334  0.8116  1.3263
  176DOPC   H2Y21494   2.071   2.377  13.157 -0.7868  0.7434 -1.8122
  176DOPC   C2321495   2.012   2.864  13.196  0.6039  0.1447  0.7294
  176DOPC   H3R21496   2.012   2.756  13.223  0.9814  0.1985  0.9454
  176DOPC   H3S21497   1.927   2.915  13.245 -1.5024 -0.9758 -1.5314
  176DOPC   C2421498   2.126   2.947  13.269  0.0983 -0.3126 -0.1816
  176DOPC   H4R21499   2.090   3.051  13.284  1.5611  0.0824  0.7474
  176DOPC   H4S21500   2.222   2.942  13.214 -0.1516 -1.8133 -0.5318
  176DOPC   C2521501   2.150   2.879  13.408 -0.1354  0.2690 -0.0894
  176DOPC   H5R21502   2.242   2.918  13.456  1.7471 -1.2329 -2.2504
  176DOPC   H5S21503   2.170   2.773  13.381  1.2357  0.8783 -1.6897
  176DOPC   C2621504   2.041   2.891  13.511 -0.2754 -0.0716 -0.6997
  176DOPC   H6R21505   1.949   2.845  13.469 -1.8286  2.0868  0.1787
  176DOPC   H6S21506   2.013   2.995  13.537 -2.1990 -0.8195  0.4313
  176DOPC   C2721507   2.085   2.838  13.647 -0.0295  0.4098  0.2440
  176DOPC   H7R21508   2.166   2.908  13.677  0.7411 -0.7858  1.0812
  176DOPC   H7S21509   2.130   2.739  13.621 -0.2284  0.2704  0.4235
  176DOPC   C2821510   1.963   2.842  13.741  0.6147 -0.4126 -0.3824
  176DOPC   H8R21511   1.882   2.775  13.704  0.6467 -0.0002 -1.2303
  176DOPC   H8S21512   1.936   2.950  13.742  1.5235 -0.1842  0.2717
  176DOPC   C2921513   1.998   2.807  13.880 -0.5046  0.7476  0.3480
  176DOPC   H9R21514   1.967   2.704  13.904  0.6968  0.3639  0.2931
  176DOPC  C21021515   2.049   2.889  13.975 -0.3960 -0.4739 -0.4333
  176DOPC  H10R21516   2.069   2.852  14.076  2.3586 -0.1653 -0.7751
  176DOPC  C21121517   2.083   3.034  13.955  0.0599  0.2270  0.0252
  176DOPC  H11R21518   1.991   3.092  13.934 -1.0741 -1.9128 -1.2720
  176DOPC  H11S21519   2.150   3.045  13.866  0.3342 -2.8419 -0.2550
  176DOPC  C21221520   2.161   3.097  14.075  0.1176  0.1800 -0.5476
  176DOPC  H12R21521   2.192   3.201  14.052  0.2105  0.3076  0.1296
  176DOPC  H12S21522   2.245   3.030  14.100  0.9136  2.0383  2.1847
  176DOPC  C21321523   2.096   3.110  14.209  0.4405 -0.4721  0.2536
  176DOPC  H13R21524   2.030   3.021  14.220 -0.1647 -0.0716 -0.0714
  176DOPC  H13S21525   2.038   3.205  14.205  1.4904  0.1929  0.5816
  176DOPC  C21421526   2.193   3.132  14.332  0.7083  0.8413  0.4798
  176DOPC  H14R21527   2.230   3.237  14.331 -0.1565  1.1423 -0.7844
  176DOPC  H14S21528   2.287   3.073  14.325  0.4881  0.5984 -0.4560
  176DOPC  C21521529   2.139   3.109  14.469  0.8169  0.0148 -0.1476
  176DOPC  H15R21530   2.142   3.002  14.499  1.2210 -0.1644 -0.8315
  176DOPC  H15S21531   2.044   3.166  14.478  0.7444 -0.1627  0.2738
  176DOPC  C21621532   2.219   3.190  14.569 -0.7861 -0.8355  0.3741
  176DOPC  H16R21533   2.242   3.297  14.549 -0.3540 -0.8876  0.5677
  176DOPC  H16S21534   2.322   3.148  14.563 -0.7035 -0.4213 -2.6432
  176DOPC  C21721535   2.164   3.167  14.712 -0.2626 -0.0675 -0.3879
  176DOPC  H17R21536   2.158   3.057  14.729  2.1583 -0.0908  0.6178
  176DOPC  H17S21537   2.059   3.203  14.708  0.4302  2.5806  2.0064
  176DOPC  C21821538   2.252   3.243  14.810  0.1930 -0.3118 -0.1316
  176DOPC  H18R21539   2.223   3.217  14.914 -3.0039 -1.9444 -1.2909
  176DOPC  H18S21540   2.239   3.351  14.788 -0.4340 -0.8802 -2.9242
  176DOPC  H18T21541   2.357   3.219  14.785  0.1093  0.6574 -1.5076
  176DOPC   C3321542   2.223   2.491  13.262 -0.4874 -0.2055 -0.5737
  176DOPC   H3X21543   2.278   2.587  13.257 -1.2849  0.4573  1.8645
  176DOPC   H3Y21544   2.286   2.413  13.215 -1.6971 -1.4899 -0.1288
  176DOPC   C3421545   2.176   2.463  13.406 -0.9173 -0.4239  0.4426
  176DOPC   H4X21546   2.095   2.388  13.412  0.0565 -1.3884  2.2936
  176DOPC   H4Y21547   2.120   2.552  13.444 -0.5572 -0.6377  1.5111
  176DOPC   C3521548   2.296   2.449  13.505 -0.0832 -0.1946 -0.6752
  176DOPC   H5X21549   2.363   2.536  13.491 -0.7210  0.5885  0.9645
  176DOPC   H5Y21550   2.338   2.350  13.474  2.0340  1.1566 -2.4026
  176DOPC   C3621551   2.247   2.459  13.656  0.4826 -0.7078 -0.0893
  176DOPC   H6X21552   2.210   2.562  13.671 -0.6949 -0.7989 -1.9815
  176DOPC   H6Y21553   2.160   2.390  13.663 -0.6421  0.7208  0.6715
  176DOPC   C3721554   2.364   2.425  13.749  0.0943 -0.8845 -0.3093
  176DOPC   H7X21555   2.409   2.328  13.721  0.3776 -0.5727 -0.9530
  176DOPC   H7Y21556   2.441   2.500  13.720 -0.4168 -0.1337  0.2317
  176DOPC   C3821557   2.333   2.444  13.899 -0.6050 -0.0249 -0.1544
  176DOPC   H8X21558   2.286   2.544  13.910 -2.9995 -1.1384  0.1996
  176DOPC   H8Y21559   2.429   2.449  13.955 -0.6959  3.7205 -0.0562
  176DOPC   C3921560   2.234   2.342  13.950 -0.0610 -0.4161 -0.0264
  176DOPC   H9X21561   2.190   2.262  13.889  0.9472 -1.4212  0.5271
  176DOPC  C31021562   2.176   2.356  14.075 -0.5263 -0.2190 -0.5327
  176DOPC  H10X21563   2.095   2.286  14.097  0.7572 -0.7900  3.1116
  176DOPC  C31121564   2.208   2.453  14.187  0.0291 -0.2005 -0.7167
  176DOPC  H11X21565   2.302   2.511  14.176 -0.1897  0.3489  0.1646
  176DOPC  H11Y21566   2.207   2.406  14.288  0.7839  1.6873  0.2239
  176DOPC  C31221567   2.090   2.558  14.205 -0.0235  0.0267 -0.9796
  176DOPC  H12X21568   1.990   2.508  14.204 -0.2155  0.4053 -0.7740
  176DOPC  H12Y21569   2.091   2.618  14.112 -0.9357  1.8143  0.1204
  176DOPC  C31321570   2.123   2.649  14.327 -0.0821 -0.5938  0.3313
  176DOPC  H13X21571   2.234   2.653  14.331 -0.1272 -0.0233  1.9549
  176DOPC  H13Y21572   2.090   2.752  14.305  0.6289 -0.1204  1.3774
  176DOPC  C31421573   2.059   2.597  14.455  0.2750 -0.3906 -0.1499
  176DOPC  H14X21574   1.952   2.611  14.427  0.7708  2.0014 -1.1004
  176DOPC  H14Y21575   2.095   2.494  14.474  1.7461  0.3966  1.6756
  176DOPC  C31521576   2.089   2.676  14.584  0.4010  0.4933  0.7723
  176DOPC  H15X21577   2.035   2.773  14.577  0.5747  0.4890 -1.4463
  176DOPC  H15Y21578   2.198   2.692  14.598  0.2991  0.8946  1.1176
  176DOPC  C31621579   2.060   2.597  14.712  0.4595 -0.2463 -0.2283
  176DOPC  H16X21580   2.100   2.494  14.703  0.3516 -0.2472 -0.7185
  176DOPC  H16Y21581   2.097   2.649  14.802 -0.9512  0.9473 -0.2931
  176DOPC  C31721582   1.911   2.582  14.736 -0.8057  0.7468 -0.9136
  176DOPC  H17X21583   1.858   2.679  14.745 -1.3329  0.3387  0.6071
  176DOPC  H17Y21584   1.880   2.531  14.642 -0.5333 -1.0326 -0.0865
  176DOPC  C31821585   1.887   2.500  14.864  0.3501  0.3800  0.4485
  176DOPC  H18X21586   1.894   2.390  14.849  2.2688  0.5607 -0.3612
  176DOPC  H18Y21587   1.937   2.543  14.953  0.0614 -0.9894  1.3051
  176DOPC  H18Z21588   1.784   2.517  14.900 -0.4524 -1.7856 -0.6303
  177DOPC     N21589   3.627   6.091  12.387 -0.1898 -0.5430 -0.7038
  177DOPC   C1221590   3.660   6.108  12.536 -0.0486  0.0161  0.2663
  177DOPC  H12A21591   3.663   6.215  12.555  0.2881  0.0205  0.1976
  177DOPC  H12B21592   3.761   6.073  12.550 -0.4127 -1.3703 -0.4228
  177DOPC   C1321593   3.725   6.188  12.324 -0.0287  0.0461  0.0440
  177DOPC  H13A21594   3.723   6.181  12.216  0.6142 -0.5427  0.0594
  177DOPC  H13B21595   3.710   6.285  12.369 -0.3722 -0.4016  0.9064
  177DOPC  H13C21596   3.826   6.158  12.348  0.0878  0.2904 -0.1436
  177DOPC   C1421597   3.487   6.141  12.354 -0.3147  0.1601  0.0349
  177DOPC  H14A21598   3.474   6.243  12.388 -0.5297 -0.0684  0.6687
  177DOPC  H14B21599   3.476   6.147  12.247  1.5649  2.3351 -0.0943
  177DOPC  H14C21600   3.409   6.074  12.389  0.2754  0.6502  2.5129
  177DOPC   C1521601   3.642   5.956  12.343  0.2884  0.6731  0.0696
  177DOPC  H15A21602   3.732   5.908  12.378 -0.3446  0.0571  0.8961
  177DOPC  H15B21603   3.624   5.939  12.238 -0.4373  0.6160  0.1981
  177DOPC  H15C21604   3.566   5.895  12.389  0.7933 -0.2650 -0.3050
  177DOPC   C1121605   3.563   6.041  12.637 -0.3323  0.0289 -0.2248
  177DOPC  H11A21606   3.559   6.091  12.736  0.4327 -1.2420  0.4821
  177DOPC  H11B21607   3.463   6.067  12.595 -0.1491  1.6431  0.2669
  177DOPC     P21608   3.701   5.833  12.708 -0.5439  0.5073 -0.4720
  177DOPC   O1321609   3.822   5.903  12.659 -0.0603  0.5297 -0.0769
  177DOPC   O1421610   3.701   5.685  12.688  0.1395 -0.0459 -0.4848
  177DOPC   O1221611   3.575   5.897  12.636  0.3333  0.0914 -1.1927
  177DOPC   O1121612   3.683   5.870  12.860 -0.0617 -0.3662  0.0455
  177DOPC    C121613   3.564   5.831  12.927  0.0560 -0.2363 -0.8664
  177DOPC    HA21614   3.552   5.721  12.928 -0.0766 -0.2733 -2.9972
  177DOPC    HB21615   3.471   5.864  12.875  0.8925 -1.0338 -2.9716
  177DOPC    C221616   3.559   5.899  13.071  0.3557  0.0653  0.3595
  177DOPC    HS21617   3.557   6.010  13.073 -1.0531  0.0732 -0.2254
  177DOPC   O2121618   3.673   5.847  13.145  0.1827 -0.4251 -0.7299
  177DOPC   C2121619   3.789   5.914  13.128  0.3166  0.4890  0.1660
  177DOPC   O2221620   3.806   6.012  13.059 -0.5115  0.4022 -0.6630
  177DOPC   C2221621   3.891   5.848  13.222  0.4229 -0.1308 -0.7604
  177DOPC   H2R21622   3.984   5.838  13.162  0.0132 -2.5875 -1.0778
  177DOPC   H2S21623   3.854   5.746  13.243  0.2384  0.3970  1.8400
  177DOPC    C321624   3.419   5.854  13.123  0.4908  0.3494 -0.3085
  177DOPC    HX21625   3.428   5.743  13.121 -3.3349 -0.1169 -0.8368
  177DOPC    HY21626   3.334   5.886  13.058 -0.0602  0.5429  0.4996
  177DOPC   O3121627   3.407   5.909  13.253  0.2663 -0.5392 -0.6348
  177DOPC   C3121628   3.378   5.827  13.348  0.4398  0.1009  0.2263
  177DOPC   O3221629   3.368   5.707  13.341 -0.1236 -0.2413  0.2137
  177DOPC   C3221630   3.379   5.899  13.480  0.1213 -0.1289  0.2229
  177DOPC   H2X21631   3.485   5.931  13.494  0.5115 -1.8902  1.6243
  177DOPC   H2Y21632   3.318   5.992  13.477 -0.9197 -0.7185  2.0764
  177DOPC   C2321633   3.914   5.938  13.343 -0.6757 -0.0936  0.5984
  177DOPC   H3R21634   3.890   6.042  13.314  0.3409 -0.4999 -1.9449
  177DOPC   H3S21635   4.020   5.935  13.377 -0.0054 -1.4370 -1.4623
  177DOPC   C2421636   3.824   5.931  13.463 -0.3429  0.6590 -0.0850
  177DOPC   H4R21637   3.823   5.823  13.492  1.3275  0.0480 -2.0054
  177DOPC   H4S21638   3.728   5.972  13.426 -0.8494 -0.0810  0.3712
  177DOPC   C2521639   3.882   6.027  13.572 -0.5301  0.0594  0.4218
  177DOPC   H5R21640   3.788   6.054  13.625 -1.0679  0.2220 -0.6062
  177DOPC   H5S21641   3.929   6.122  13.539 -0.6258 -0.0758 -0.1009
  177DOPC   C2621642   3.960   5.946  13.679 -0.2637 -0.6473  0.4905
  177DOPC   H6R21643   4.059   5.911  13.643 -0.4339 -1.3187  0.6478
  177DOPC   H6S21644   3.898   5.858  13.709  0.5050 -1.8795 -1.2998
  177DOPC   C2721645   3.989   6.035  13.802  0.2331 -0.3678  0.5612
  177DOPC   H7R21646   3.939   6.134  13.795  0.1853 -0.4472 -0.3721
  177DOPC   H7S21647   4.097   6.060  13.807  0.0182  1.3930 -1.9288
  177DOPC   C2821648   3.937   5.969  13.929  0.0270 -0.4851 -0.4452
  177DOPC   H8R21649   3.826   5.961  13.932 -0.2139  2.1745  1.4969
  177DOPC   H8S21650   3.956   6.043  14.010 -0.7071  0.0244 -0.7187
  177DOPC   C2921651   3.991   5.838  13.977 -0.1989  0.1795 -0.8466
  177DOPC   H9R21652   4.019   5.768  13.897  2.2925  0.6118 -0.4568
  177DOPC  C21021653   4.014   5.803  14.108 -1.4493  0.1243 -0.7061
  177DOPC  H10R21654   4.054   5.703  14.132 -2.3285 -0.2597 -0.8163
  177DOPC  C21121655   3.979   5.889  14.224 -0.0334 -0.5266  0.0957
  177DOPC  H11R21656   3.873   5.908  14.196 -0.1407 -1.2384 -0.0162
  177DOPC  H11S21657   4.041   5.978  14.247 -1.4914 -0.0254  2.2642
  177DOPC  C21221658   3.965   5.804  14.360 -0.6081 -1.0382 -0.2911
  177DOPC  H12R21659   3.921   5.704  14.340  0.7039 -1.6338 -0.2435
  177DOPC  H12S21660   3.905   5.864  14.432  3.0525 -0.1073  2.2455
  177DOPC  C21321661   4.097   5.791  14.426 -0.8859 -0.2409 -0.5316
  177DOPC  H13R21662   4.156   5.884  14.417  0.1438 -0.7941  0.2664
  177DOPC  H13S21663   4.149   5.705  14.379  1.2076  0.2529  0.7505
  177DOPC  C21421664   4.093   5.776  14.579  0.2820 -0.0045 -1.0356
  177DOPC  H14R21665   4.027   5.694  14.614 -0.3024  0.6439 -0.6104
  177DOPC  H14S21666   4.043   5.870  14.609  0.7612 -0.9256  3.3519
  177DOPC  C21521667   4.227   5.774  14.654  0.1249 -0.0619 -0.2963
  177DOPC  H15R21668   4.289   5.856  14.612 -2.0954  1.2615 -1.1314
  177DOPC  H15S21669   4.280   5.680  14.626  1.4898  0.2989  0.9098
  177DOPC  C21621670   4.213   5.771  14.806  0.0810 -0.2678  0.1592
  177DOPC  H16R21671   4.310   5.735  14.848 -0.5340 -2.3814 -0.1093
  177DOPC  H16S21672   4.158   5.677  14.829 -0.8810  0.1165 -0.5195
  177DOPC  C21721673   4.155   5.894  14.864  0.3139 -0.0575  0.0406
  177DOPC  H17R21674   4.141   5.885  14.973  3.0572 -0.0713  0.4373
  177DOPC  H17S21675   4.062   5.928  14.812  0.0297 -2.1673 -0.9692
  177DOPC  C21821676   4.254   6.016  14.859 -0.2872  0.2860 -0.8467
  177DOPC  H18R21677   4.195   6.105  14.888 -0.9979 -0.0827 -1.1164
  177DOPC  H18S21678   4.298   6.022  14.757  0.6326 -0.3280 -0.4954
  177DOPC  H18T21679   4.334   5.993  14.933 -1.0732  3.4568  1.1470
  177DOPC   C3321680   3.344   5.823  13.607 -0.3602  0.2425 -0.2013
  177DOPC   H3X21681   3.391   5.722  13.611 -1.5841 -0.3519 -0.5090
  177DOPC   H3Y21682   3.234   5.805  13.605 -0.5275  1.2386 -2.5645
  177DOPC   C3421683   3.388   5.906  13.728  0.7138 -0.2080  0.3965
  177DOPC   H4X21684   3.333   6.001  13.739  2.5752  0.9079  0.4339
  177DOPC   H4Y21685   3.496   5.926  13.710  0.3994  0.4676 -0.8597
  177DOPC   C3521686   3.380   5.816  13.854 -1.1034 -0.3031  0.4781
  177DOPC   H5X21687   3.434   5.728  13.813  0.5516  1.1805 -0.6996
  177DOPC   H5Y21688   3.277   5.793  13.889 -1.3836  0.7111  0.3633
  177DOPC   C3621689   3.457   5.876  13.974 -0.0306  0.0250 -0.1803
  177DOPC   H6X21690   3.564   5.893  13.950 -0.0778 -0.8549 -1.0793
  177DOPC   H6Y21691   3.411   5.974  13.999  1.7657  1.3165 -1.6904
  177DOPC   C3721692   3.464   5.769  14.084 -0.0631  0.8767  0.3852
  177DOPC   H7X21693   3.365   5.767  14.135  0.7185  0.8367  1.9780
  177DOPC   H7Y21694   3.479   5.676  14.027  0.2637  0.5796  0.9404
  177DOPC   C3821695   3.583   5.794  14.184  0.0399 -0.7882 -0.3370
  177DOPC   H8X21696   3.583   5.903  14.201  1.7421 -0.5713 -1.4586
  177DOPC   H8Y21697   3.674   5.766  14.126 -0.1789 -0.5370 -0.8058
  177DOPC   C3921698   3.573   5.696  14.300 -0.5007 -0.7144  0.3861
  177DOPC   H9X21699   3.596   5.590  14.278 -0.1532 -1.1546  2.6128
  177DOPC  C31021700   3.555   5.729  14.429 -0.3699  0.4114 -0.5220
  177DOPC  H10X21701   3.579   5.666  14.516 -3.4113  0.1071  0.2166
  177DOPC  C31121702   3.526   5.867  14.473 -0.1865  0.5229  0.0494
  177DOPC  H11X21703   3.454   5.910  14.400 -2.1912  0.5620  1.9450
  177DOPC  H11Y21704   3.618   5.930  14.470 -0.6775  1.2309 -1.4131
  177DOPC  C31221705   3.461   5.876  14.620  0.1033 -0.3990 -0.0816
  177DOPC  H12X21706   3.371   5.811  14.622  0.5084 -0.9910  2.0667
  177DOPC  H12Y21707   3.430   5.980  14.644  2.0617 -0.3978  3.0363
  177DOPC  C31321708   3.559   5.819  14.730  0.8346 -0.6850  0.4740
  177DOPC  H13X21709   3.562   5.708  14.719  0.6149 -0.5738 -0.8808
  177DOPC  H13Y21710   3.659   5.858  14.701 -0.2704  0.3658 -2.2889
  177DOPC  C31421711   3.506   5.838  14.867 -0.1572  0.1679 -0.4133
  177DOPC  H14X21712   3.515   5.946  14.891  0.5367 -0.0664  0.4570
  177DOPC  H14Y21713   3.400   5.805  14.876 -0.2125  0.8044  2.2716
  177DOPC  C31521714   3.589   5.753  14.974  0.1106 -0.4366  0.5007
  177DOPC  H15X21715   3.521   5.669  15.000  0.4068 -0.4934  1.1091
  177DOPC  H15Y21716   3.592   5.796  15.076 -0.2026 -2.9460  1.6375
  177DOPC  C31621717   3.720   5.686  14.937  0.0004  0.0936  0.7053
  177DOPC  H16X21718   3.718   5.633  14.840  1.6144 -1.0245  1.2217
  177DOPC  H16Y21719   3.796   5.767  14.932 -2.1594  2.1415 -2.6077
  177DOPC  C31721720   3.763   5.587  15.053 -0.7186  0.4026 -0.4668
  177DOPC  H17X21721   3.743   5.633  15.152  1.3305  2.1575 -0.7846
  177DOPC  H17Y21722   3.698   5.497  15.045  0.0680 -0.0169 -3.3392
  177DOPC  C31821723   3.914   5.546  15.045  0.5310 -0.4653 -0.2118
  177DOPC  H18X21724   3.941   5.463  15.113 -2.1174 -1.3345 -0.1128
  177DOPC  H18Y21725   3.940   5.526  14.939 -0.5376  2.5530 -1.1301
  177DOPC  H18Z21726   3.977   5.631  15.078 -2.0340  0.2317  3.4665
  178DOPC     N21727   1.820   6.233  12.568  0.0472 -0.4688  0.2593
  178DOPC   C1221728   1.792   6.213  12.430 -0.0064 -0.3514  0.0625
  178DOPC  H12A21729   1.783   6.107  12.414  1.3727 -0.2630 -1.6472
  178DOPC  H12B21730   1.862   6.261  12.363  1.6686  0.4923  2.3171
  178DOPC   C1321731   1.914   6.124  12.612  0.1907 -0.4579 -0.0706
  178DOPC  H13A21732   1.972   6.087  12.528  0.0662  1.9594 -1.3147
  178DOPC  H13B21733   1.980   6.156  12.691  0.0170  0.4618 -0.2845
  178DOPC  H13C21734   1.858   6.040  12.650  2.6493 -2.4818 -0.6507
  178DOPC   C1421735   1.702   6.216  12.654 -0.3013 -0.0307  0.0978
  178DOPC  H14A21736   1.732   6.231  12.756 -0.6329 -1.2694  0.3927
  178DOPC  H14B21737   1.625   6.292  12.643  0.0319  0.7079  2.3913
  178DOPC  H14C21738   1.653   6.120  12.652  0.0341 -0.2384  1.3367
  178DOPC   C1521739   1.874   6.373  12.592 -0.0547 -0.1598  0.4232
  178DOPC  H15A21740   1.873   6.394  12.698  0.1194 -0.3083  0.4543
  178DOPC  H15B21741   1.814   6.442  12.535 -1.1469  0.0593  1.7821
  178DOPC  H15C21742   1.978   6.369  12.562  0.5646  0.3612  2.3155
  178DOPC   C1121743   1.654   6.271  12.380  0.2500  0.0672  0.1008
  178DOPC  H11A21744   1.642   6.251  12.271  0.7606 -1.0729  0.2365
  178DOPC  H11B21745   1.568   6.220  12.429  0.4218 -2.2571 -1.8371
  178DOPC     P21746   1.526   6.482  12.452  0.3605  0.0080  0.1774
  178DOPC   O1321747   1.424   6.459  12.342 -0.3060  0.3370 -0.6621
  178DOPC   O1421748   1.551   6.622  12.490 -0.2174  0.2449 -0.0276
  178DOPC   O1221749   1.652   6.413  12.406 -0.1805  0.1896 -0.0289
  178DOPC   O1121750   1.482   6.406  12.584 -0.5126  0.1163 -0.2935
  178DOPC    C121751   1.338   6.385  12.608  0.5866  0.5630 -0.3837
  178DOPC    HA21752   1.331   6.302  12.682  0.4209  0.8939 -0.0277
  178DOPC    HB21753   1.284   6.353  12.516  1.3447 -1.0454 -0.2982
  178DOPC    C221754   1.269   6.515  12.656 -0.0471 -0.6341  0.9947
  178DOPC    HS21755   1.285   6.578  12.566 -0.4482 -1.3702  0.3954
  178DOPC   O2121756   1.336   6.569  12.771  0.2233  0.1845 -0.4746
  178DOPC   C2121757   1.325   6.704  12.778  0.6696 -0.8560 -0.5816
  178DOPC   O2221758   1.291   6.775  12.691  0.6924 -0.3581  0.0344
  178DOPC   C2221759   1.358   6.754  12.923  0.4304  0.6188  0.8019
  178DOPC   H2R21760   1.456   6.807  12.923  0.0016  1.4899  2.5806
  178DOPC   H2S21761   1.362   6.663  12.987 -1.7267  0.0626  0.2043
  178DOPC    C321762   1.119   6.499  12.680  0.6719  0.2176 -0.1492
  178DOPC    HX21763   1.077   6.403  12.643 -0.7645  0.2748  1.2381
  178DOPC    HY21764   1.069   6.574  12.616  1.1202  1.8582  1.3374
  178DOPC   O3121765   1.086   6.526  12.815  0.3271  0.2368  0.7960
  178DOPC   C3121766   1.082   6.432  12.898  0.5671  0.5246 -0.6542
  178DOPC   O3221767   1.085   6.312  12.869  0.4739  0.3524  0.1758
  178DOPC   C3221768   1.073   6.493  13.037 -0.2373  0.9647 -0.3550
  178DOPC   H2X21769   1.163   6.549  13.072 -0.3008 -0.2562  2.0140
  178DOPC   H2Y21770   0.988   6.564  13.038 -1.2263 -0.1969 -0.2948
  178DOPC   C2321771   1.247   6.855  12.970 -0.3044  0.1831  0.3577
  178DOPC   H3R21772   1.151   6.799  12.976 -0.3495  0.3274  1.1463
  178DOPC   H3S21773   1.234   6.938  12.897 -1.5740 -0.6077 -0.3546
  178DOPC   C2421774   1.286   6.905  13.118  0.3408 -0.0130  0.1191
  178DOPC   H4R21775   1.390   6.943  13.120  1.3509 -2.1603  5.3846
  178DOPC   H4S21776   1.297   6.812  13.178  1.6920 -0.3694 -0.6465
  178DOPC   C2521777   1.187   7.008  13.189  0.3040 -0.8499  0.6222
  178DOPC   H5R21778   1.082   6.973  13.196 -0.1754  0.3561 -0.1874
  178DOPC   H5S21779   1.177   7.094  13.119  0.4672 -1.8717 -0.6938
  178DOPC   C2621780   1.229   7.066  13.328 -0.8881  0.1473 -0.1379
  178DOPC   H6R21781   1.338   7.087  13.329 -0.6316 -1.0125 -0.9872
  178DOPC   H6S21782   1.213   6.982  13.399  1.7884  0.1556  0.5534
  178DOPC   C2721783   1.147   7.188  13.368 -0.1894 -0.5328  0.0771
  178DOPC   H7R21784   1.040   7.176  13.340 -0.3255 -0.4399  0.5412
  178DOPC   H7S21785   1.173   7.272  13.301  0.0305 -0.7701 -0.1385
  178DOPC   C2821786   1.167   7.217  13.523 -0.1751 -0.1555  0.0201
  178DOPC   H8R21787   1.273   7.252  13.528  0.0366 -0.9533  1.6384
  178DOPC   H8S21788   1.161   7.121  13.578  0.1464  0.4160  1.0696
  178DOPC   C2921789   1.093   7.328  13.590  0.0386 -0.7467 -0.3995
  178DOPC   H9R21790   1.098   7.427  13.543 -0.0027  0.0293  1.1496
  178DOPC  C21021791   1.016   7.308  13.701 -0.6575 -0.1024 -0.5044
  178DOPC  H10R21792   0.970   7.394  13.751 -1.2632 -1.1316  0.7768
  178DOPC  C21121793   0.976   7.173  13.752  0.2523 -0.0435 -0.7942
  178DOPC  H11R21794   0.977   7.106  13.663  1.9307  0.5673 -1.2857
  178DOPC  H11S21795   0.871   7.175  13.787  0.9073 -0.7054  1.4045
  178DOPC  C21221796   1.071   7.098  13.847 -0.0863 -0.2278 -0.0711
  178DOPC  H12R21797   1.173   7.066  13.814 -0.2910 -3.5442  1.9941
  178DOPC  H12S21798   1.026   7.000  13.877  1.8415 -0.5511  2.0422
  178DOPC  C21321799   1.113   7.173  13.976  0.1265 -0.5757 -0.5502
  178DOPC  H13R21800   1.024   7.189  14.040  1.2993  1.2039  0.7053
  178DOPC  H13S21801   1.151   7.273  13.945 -0.2805  0.6650  2.5899
  178DOPC  C21421802   1.226   7.112  14.066  0.1621 -0.0364 -0.3420
  178DOPC  H14R21803   1.297   7.065  13.995 -1.1051 -3.5032  0.4577
  178DOPC  H14S21804   1.179   7.030  14.125  1.4838  1.9568  3.7801
  178DOPC  C21521805   1.287   7.211  14.165 -0.4692  0.7318  0.1076
  178DOPC  H15R21806   1.215   7.264  14.231 -0.5278  0.1767  0.4981
  178DOPC  H15S21807   1.323   7.293  14.099 -1.3877  0.5977 -0.5709
  178DOPC  C21621808   1.400   7.133  14.242  0.9309  0.3527 -0.1572
  178DOPC  H16R21809   1.446   7.203  14.315  0.0344  1.9563 -1.0739
  178DOPC  H16S21810   1.473   7.101  14.166  1.3114 -2.4357  1.2530
  178DOPC  C21721811   1.361   7.008  14.320 -0.7531  0.0042  0.4080
  178DOPC  H17R21812   1.445   6.970  14.383 -2.3179 -2.3892  1.1988
  178DOPC  H17S21813   1.350   6.917  14.257 -0.1955  0.0345  0.2592
  178DOPC  C21821814   1.237   7.029  14.406 -0.5497 -0.2054  0.8017
  178DOPC  H18R21815   1.146   7.041  14.344 -0.3756 -0.1011  0.5633
  178DOPC  H18S21816   1.235   7.119  14.471  0.4176  0.9233 -0.6725
  178DOPC  H18T21817   1.226   6.935  14.466  0.8229  0.2812  1.8863
  178DOPC   C3321818   1.029   6.390  13.144 -0.3053  0.0158 -0.6773
  178DOPC   H3X21819   1.114   6.320  13.158 -0.9692 -0.4468  1.3636
  178DOPC   H3Y21820   0.945   6.332  13.098 -2.5268  1.7549  0.9745
  178DOPC   C3421821   0.983   6.447  13.280 -0.0284 -0.1855 -0.1028
  178DOPC   H4X21822   1.009   6.377  13.362  0.6445  1.0387  0.7639
  178DOPC   H4Y21823   0.873   6.465  13.279  0.1298  0.9561  1.0203
  178DOPC   C3521824   1.056   6.572  13.326 -0.2537 -0.1404  0.2801
  178DOPC   H5X21825   1.019   6.659  13.267  0.1427  0.9015  1.5111
  178DOPC   H5Y21826   1.162   6.566  13.294 -0.4843  1.6817 -1.0324
  178DOPC   C3621827   1.037   6.597  13.475  0.2725  0.1392  0.0415
  178DOPC   H6X21828   0.926   6.598  13.485  0.2017  1.3031 -0.6655
  178DOPC   H6Y21829   1.081   6.523  13.545 -1.7035 -0.3114  0.8668
  178DOPC   C3721830   1.082   6.738  13.509 -0.6084 -0.3179 -0.1999
  178DOPC   H7X21831   1.192   6.737  13.501 -0.6599  0.0960 -0.9797
  178DOPC   H7Y21832   1.046   6.804  13.427 -1.6949 -0.6854 -0.0401
  178DOPC   C3821833   1.044   6.789  13.650  0.4205 -0.6448  0.0467
  178DOPC   H8X21834   0.937   6.817  13.661  0.5894  0.7176 -1.3653
  178DOPC   H8Y21835   1.101   6.885  13.653 -0.4931 -0.1025  0.9639
  178DOPC   C3921836   1.105   6.718  13.767 -0.5470  0.8831 -0.1955
  178DOPC   H9X21837   1.202   6.670  13.748  0.3435  1.5945  2.1273
  178DOPC  C31021838   1.042   6.689  13.883 -1.1199  0.1199  0.3368
  178DOPC  H10X21839   1.100   6.636  13.960  0.0488  0.5517 -0.2342
  178DOPC  C31121840   0.907   6.724  13.931  0.3345  0.1893  0.2793
  178DOPC  H11X21841   0.847   6.633  13.907  1.2149 -0.1695 -0.6557
  178DOPC  H11Y21842   0.877   6.813  13.873 -0.0572 -0.6688 -0.8730
  178DOPC  C31221843   0.892   6.776  14.079 -0.8816  0.1334 -0.3386
  178DOPC  H12X21844   0.786   6.773  14.114 -1.0169  0.6330 -0.6938
  178DOPC  H12Y21845   0.934   6.878  14.080  0.5890 -0.4230 -1.6724
  178DOPC  C31321846   0.966   6.686  14.178  0.3609  0.7983  0.6983
  178DOPC  H13X21847   0.957   6.591  14.121 -0.0857  2.3772 -2.0218
  178DOPC  H13Y21848   1.072   6.719  14.173  0.9194 -0.8246  0.9662
  178DOPC  C31421849   0.910   6.674  14.323  0.5054  0.2355  0.6288
  178DOPC  H14X21850   0.799   6.671  14.318  0.5249 -2.8691  0.4535
  178DOPC  H14Y21851   0.948   6.590  14.385  0.7674  1.1837  1.7796
  178DOPC  C31521852   0.953   6.804  14.402 -0.0189 -0.0237 -0.3161
  178DOPC  H15X21853   0.891   6.879  14.348  0.0847 -0.3551 -0.9036
  178DOPC  H15Y21854   1.061   6.824  14.386  0.3496 -0.2684  1.6579
  178DOPC  C31621855   0.927   6.813  14.555  0.2878  0.1369 -0.5115
  178DOPC  H16X21856   0.832   6.756  14.565 -1.4823  2.5865 -1.8473
  178DOPC  H16Y21857   1.007   6.764  14.613  0.7244  0.2237 -1.0347
  178DOPC  C31721858   0.892   6.951  14.617  0.0953  0.4065 -0.1089
  178DOPC  H17X21859   0.915   6.946  14.725 -1.0120 -0.4017  0.1122
  178DOPC  H17Y21860   0.948   7.037  14.574  0.1872  0.0894 -0.6284
  178DOPC  C31821861   0.746   6.985  14.614  0.2223  0.7658 -0.1625
  178DOPC  H18X21862   0.711   6.977  14.510  3.9479 -1.8545 -1.4124
  178DOPC  H18Y21863   0.695   6.912  14.680 -0.4081  2.4609  1.3330
  178DOPC  H18Z21864   0.723   7.087  14.654 -1.3923 -0.1552  1.4227
  179DOPC     N21865   3.978   5.474  12.438  0.1668 -0.2693 -0.5851
  179DOPC   C1221866   4.122   5.507  12.419 -0.3114  0.1726  0.1903
  179DOPC  H12A21867   4.142   5.609  12.447  0.0606  0.3763 -0.7525
  179DOPC  H12B21868   4.135   5.494  12.312 -0.0739 -4.1148  0.5639
  179DOPC   C1321869   3.947   5.457  12.587 -0.3371  0.1310  0.2208
  179DOPC  H13A21870   3.999   5.531  12.645  0.1906 -0.0798  0.0218
  179DOPC  H13B21871   3.841   5.443  12.603 -0.3966 -1.1264 -1.0065
  179DOPC  H13C21872   3.984   5.359  12.614 -0.2129 -0.4598 -1.8459
  179DOPC   C1421873   3.937   5.348  12.365  0.1101 -0.0430  0.5919
  179DOPC  H14A21874   4.005   5.265  12.383  2.2836  1.7824  1.3087
  179DOPC  H14B21875   3.839   5.313  12.395 -0.1614  0.2881  0.0996
  179DOPC  H14C21876   3.948   5.376  12.262  1.6530 -0.7352  0.5391
  179DOPC   C1521877   3.902   5.591  12.392  1.0643  0.1038  0.1467
  179DOPC  H15A21878   3.927   5.678  12.451 -0.6439 -0.2575  1.4818
  179DOPC  H15B21879   3.796   5.573  12.396  0.8367  1.5050  0.9891
  179DOPC  H15C21880   3.925   5.631  12.294 -2.0385  0.9878 -0.3009
  179DOPC   C1121881   4.225   5.416  12.488 -0.4257 -0.6527 -0.6269
  179DOPC  H11A21882   4.322   5.468  12.478 -0.6710  0.7135  2.7611
  179DOPC  H11B21883   4.209   5.431  12.597  2.4486 -0.4560 -0.1591
  179DOPC     P21884   4.262   5.217  12.312 -0.6056 -0.0541 -0.1484
  179DOPC   O1321885   4.298   5.318  12.214 -0.3381  0.2812 -0.0109
  179DOPC   O1421886   4.162   5.115  12.273  0.9882  0.2985  0.0293
  179DOPC   O1221887   4.217   5.280  12.446  0.5646 -0.2048  0.7547
  179DOPC   O1121888   4.389   5.135  12.357 -0.1378 -0.5197  0.3731
  179DOPC    C121889   4.503   5.214  12.388 -0.6179 -0.3478  0.7362
  179DOPC    HA21890   4.491   5.321  12.418  1.2023 -0.2689  1.2801
  179DOPC    HB21891   4.572   5.202  12.302 -0.8552 -1.3904  0.6773
  179DOPC    C221892   4.582   5.146  12.504  0.6640  0.1491 -0.0805
  179DOPC    HS21893   4.635   5.056  12.467 -0.2212  0.1691 -1.4742
  179DOPC   O2121894   4.489   5.132  12.615 -0.2708 -0.0367  0.1040
  179DOPC   C2121895   4.507   5.020  12.685  0.3852  0.5363 -0.2401
  179DOPC   O2221896   4.566   4.922  12.648  0.0905  0.3957  0.4163
  179DOPC   C2221897   4.428   5.029  12.814  1.1861 -0.2432  0.1440
  179DOPC   H2R21898   4.336   5.092  12.814 -0.3737 -2.3082  3.3531
  179DOPC   H2S21899   4.501   5.063  12.890  0.1726 -2.2523  2.0963
  179DOPC    C321900   4.705   5.235  12.546  0.8253 -0.0284  0.1981
  179DOPC    HX21901   4.663   5.334  12.572 -0.2206 -0.6081  0.8176
  179DOPC    HY21902   4.773   5.244  12.459 -0.9655 -0.8518 -1.3754
  179DOPC   O3121903   4.780   5.191  12.661  0.2343  0.2919 -0.7211
  179DOPC   C3121904   4.895   5.259  12.681  0.5664  0.9172  0.3502
  179DOPC   O3221905   4.951   5.328  12.594 -0.1579 -0.1391 -0.0641
  179DOPC   C3221906   4.953   5.217  12.814  0.2472  0.1029  0.4038
  179DOPC   H2X21907   4.999   5.117  12.800 -1.9637 -0.5741 -3.1470
  179DOPC   H2Y21908   5.032   5.294  12.828  0.3166  0.5575 -2.0408
  179DOPC   C2321909   4.373   4.883  12.858  0.2281  0.3160 -0.3387
  179DOPC   H3R21910   4.430   4.801  12.809 -0.3978  0.6110 -1.6192
  179DOPC   H3S21911   4.269   4.867  12.822  0.2865 -0.6660 -0.0923
  179DOPC   C2421912   4.364   4.864  13.011  0.2548 -0.1297 -0.1273
  179DOPC   H4R21913   4.293   4.780  13.029  0.5585 -0.4754 -0.5210
  179DOPC   H4S21914   4.313   4.952  13.056 -1.8190 -0.5257 -1.5812
  179DOPC   C2521915   4.496   4.824  13.071  0.3410  0.2548 -0.7210
  179DOPC   H5R21916   4.570   4.898  13.034 -0.1406 -0.0577 -2.3547
  179DOPC   H5S21917   4.523   4.725  13.030 -0.3644 -0.3238  0.1680
  179DOPC   C2621918   4.495   4.846  13.224  0.3148 -0.6571 -0.2376
  179DOPC   H6R21919   4.462   4.949  13.249 -0.7732 -0.7720 -1.1195
  179DOPC   H6S21920   4.597   4.823  13.261  0.1509 -0.6303  0.2343
  179DOPC   C2721921   4.396   4.755  13.308 -0.6436  0.8472 -0.3583
  179DOPC   H7R21922   4.448   4.658  13.315  0.3266  1.3772 -0.0173
  179DOPC   H7S21923   4.299   4.746  13.255 -0.3263 -5.2722 -0.5218
  179DOPC   C2821924   4.372   4.797  13.451  0.2526  0.3261  0.1335
  179DOPC   H8R21925   4.296   4.726  13.490 -1.9732  0.7094 -3.1831
  179DOPC   H8S21926   4.315   4.890  13.430  0.3687  0.2095 -0.7278
  179DOPC   C2921927   4.479   4.823  13.552  0.7868  0.1760 -0.0874
  179DOPC   H9R21928   4.559   4.889  13.515  0.8314 -0.3530 -0.9614
  179DOPC  C21021929   4.481   4.773  13.675 -0.1194  0.5054 -0.0637
  179DOPC  H10R21930   4.551   4.823  13.744 -0.2278 -0.6059  0.8763
  179DOPC  C21121931   4.362   4.703  13.741  0.2423 -0.3732  0.1339
  179DOPC  H11R21932   4.357   4.595  13.715  0.1575 -0.5878  1.0221
  179DOPC  H11S21933   4.266   4.750  13.710 -0.5455 -1.1380  1.3518
  179DOPC  C21221934   4.370   4.703  13.904 -0.1007  0.8042  0.0458
  179DOPC  H12R21935   4.269   4.660  13.922  0.4985 -1.7344 -2.0163
  179DOPC  H12S21936   4.388   4.807  13.938 -0.4002  0.5050  1.1581
  179DOPC  C21321937   4.453   4.602  13.984  0.1844  0.0456  0.0471
  179DOPC  H13R21938   4.564   4.615  13.985  0.2850 -0.7824  0.5700
  179DOPC  H13S21939   4.436   4.496  13.954 -3.8381 -0.1330  2.3022
  179DOPC  C21421940   4.408   4.600  14.131  0.2042 -0.1762 -0.2903
  179DOPC  H14R21941   4.298   4.589  14.126  0.0542  1.7068 -2.1314
  179DOPC  H14S21942   4.427   4.699  14.177 -0.7280 -1.7529  3.9840
  179DOPC  C21521943   4.486   4.513  14.231 -0.3237  0.0698 -0.0059
  179DOPC  H15R21944   4.573   4.568  14.271  0.5753 -1.0371 -0.3855
  179DOPC  H15S21945   4.520   4.421  14.178  0.6245 -0.8246  2.0494
  179DOPC  C21621946   4.410   4.429  14.341 -0.3574  1.0686  0.2980
  179DOPC  H16R21947   4.475   4.354  14.390 -1.4289 -0.6027 -0.7217
  179DOPC  H16S21948   4.334   4.365  14.290  0.1400 -0.5473  1.4945
  179DOPC  C21721949   4.335   4.507  14.445 -0.1397 -0.1514  0.5740
  179DOPC  H17R21950   4.245   4.542  14.390 -0.2260 -2.6515 -1.0660
  179DOPC  H17S21951   4.387   4.598  14.480 -0.4249 -0.4714  1.8844
  179DOPC  C21821952   4.281   4.420  14.556 -0.4043  0.3768 -0.2295
  179DOPC  H18R21953   4.225   4.330  14.523  1.7650 -1.4664  0.8382
  179DOPC  H18S21954   4.212   4.483  14.616 -0.3993 -0.2213  0.4044
  179DOPC  H18T21955   4.367   4.385  14.617  0.4196  1.4232 -0.7376
  179DOPC   C3321956   4.852   5.212  12.926 -0.9604 -0.5121 -0.8242
  179DOPC   H3X21957   4.795   5.118  12.910 -2.2733  0.0685  0.2155
  179DOPC   H3Y21958   4.780   5.296  12.933 -0.6764 -0.3239 -0.0744
  179DOPC   C3421959   4.926   5.204  13.059 -0.5811 -0.5102 -0.1860
  179DOPC   H4X21960   5.002   5.285  13.058  0.9631 -1.8516  1.1635
  179DOPC   H4Y21961   4.983   5.109  13.074  2.2334  1.4003  2.4213
  179DOPC   C3521962   4.831   5.226  13.174  0.6497  0.3050  0.2219
  179DOPC   H5X21963   4.776   5.131  13.193  0.9021  0.2461  0.6779
  179DOPC   H5Y21964   4.752   5.299  13.145 -0.8865 -1.9760 -1.8214
  179DOPC   C3621965   4.904   5.269  13.307  0.6660  0.0769  0.5972
  179DOPC   H6X21966   4.976   5.190  13.337  1.3333 -0.6445 -2.5298
  179DOPC   H6Y21967   4.954   5.364  13.277  0.9593 -1.0887 -3.1368
  179DOPC   C3721968   4.801   5.282  13.420  0.3207  0.5910 -0.5585
  179DOPC   H7X21969   4.725   5.356  13.387  0.4568  0.9129 -0.1413
  179DOPC   H7Y21970   4.754   5.182  13.433  1.2786  0.1170 -0.6256
  179DOPC   C3821971   4.864   5.338  13.551 -0.8853  0.1648  0.1710
  179DOPC   H8X21972   4.783   5.382  13.613 -0.5804  0.4879  0.3404
  179DOPC   H8Y21973   4.932   5.421  13.525  0.4447 -0.9712 -0.1384
  179DOPC   C3921974   4.941   5.237  13.641 -0.6020  0.1771 -0.1867
  179DOPC   H9X21975   5.040   5.216  13.598 -1.6619 -1.2328 -2.0634
  179DOPC  C31021976   4.887   5.184  13.752  0.3171 -0.3611 -0.5542
  179DOPC  H10X21977   4.934   5.099  13.805  0.9246 -0.8719 -1.8664
  179DOPC  C31121978   4.747   5.207  13.804 -0.7591  0.6069 -0.0522
  179DOPC  H11X21979   4.701   5.111  13.838 -0.2228 -0.7033 -2.7303
  179DOPC  H11Y21980   4.683   5.244  13.721  0.4426  1.3363 -0.6791
  179DOPC  C31221981   4.768   5.304  13.924 -1.0266 -0.1588 -0.3586
  179DOPC  H12X21982   4.666   5.339  13.952 -0.6224  1.7782 -1.1861
  179DOPC  H12Y21983   4.829   5.392  13.896 -1.0457 -0.1796 -0.4669
  179DOPC  C31321984   4.832   5.235  14.048 -0.4387 -1.2709 -0.4693
  179DOPC  H13X21985   4.804   5.128  14.041 -2.5518 -0.6440 -2.7480
  179DOPC  H13Y21986   4.943   5.240  14.050 -0.4682  0.1752  1.6506
  179DOPC  C31421987   4.779   5.307  14.175  0.5288  0.0421 -0.6833
  179DOPC  H14X21988   4.799   5.416  14.169  2.2654 -0.2068 -0.0076
  179DOPC  H14Y21989   4.668   5.301  14.179  0.5240 -1.3581 -1.9305
  179DOPC  C31521990   4.839   5.248  14.305  0.1687  0.0945 -0.4066
  179DOPC  H15X21991   4.827   5.324  14.385 -1.0683  0.3160 -0.7914
  179DOPC  H15Y21992   4.943   5.211  14.289  1.7259  3.5607  0.7647
  179DOPC  C31621993   4.762   5.122  14.348 -0.4861 -0.2750  0.8405
  179DOPC  H16X21994   4.736   5.059  14.260 -2.0119 -0.8853  1.6797
  179DOPC  H16Y21995   4.823   5.056  14.412 -0.9866 -0.4123  1.1858
  179DOPC  C31721996   4.627   5.151  14.417  0.3198 -0.4538  0.4048
  179DOPC  H17X21997   4.564   5.221  14.359  0.5680 -0.7131 -0.1879
  179DOPC  H17Y21998   4.567   5.058  14.408 -1.2875  0.6449 -0.6160
  179DOPC  C31821999   4.638   5.199  14.563  0.3721 -0.0252  0.2423
  179DOPC  H18X22000   4.709   5.131  14.616  0.3275 -2.8627 -2.9953
  179DOPC  H18Y22001   4.666   5.307  14.570  1.2909 -0.2798  0.6909
  179DOPC  H18Z22002   4.548   5.202  14.628 -0.7652  1.7153 -1.2984
  180DOPC     N22003   5.175   3.308  12.126  0.2806 -0.0296  0.4706
  180DOPC   C1222004   5.042   3.374  12.075 -0.3463  1.4381  0.2527
  180DOPC  H12A22005   5.067   3.463  12.019  0.6773  1.2402  0.3858
  180DOPC  H12B22006   4.978   3.400  12.159  0.8008  0.0607  1.5993
  180DOPC   C1322007   5.132   3.202  12.220 -0.2117  0.1189  0.2961
  180DOPC  H13A22008   5.054   3.144  12.175  0.2567 -0.1894 -0.1203
  180DOPC  H13B22009   5.216   3.139  12.245  1.1254  0.8674 -2.0251
  180DOPC  H13C22010   5.087   3.248  12.308  0.5038 -0.0311  0.7498
  180DOPC   C1422011   5.255   3.410  12.207  0.0466  0.1337 -0.0312
  180DOPC  H14A22012   5.344   3.436  12.151  0.5205 -2.2347 -0.5016
  180DOPC  H14B22013   5.198   3.499  12.231  0.2432  0.4078 -0.5578
  180DOPC  H14C22014   5.284   3.375  12.305  1.1407  1.2575  0.0673
  180DOPC   C1522015   5.259   3.255  12.019  0.3379 -0.3523 -0.2217
  180DOPC  H15A22016   5.347   3.206  12.059 -1.2029 -0.8757  2.7935
  180DOPC  H15B22017   5.291   3.343  11.965  0.5953 -0.1866  0.2025
  180DOPC  H15C22018   5.208   3.180  11.959 -0.6150 -0.8918  1.2230
  180DOPC   C1122019   4.946   3.283  11.982  0.8989  0.4478  0.1141
  180DOPC  H11A22020   4.860   3.336  11.934  1.0622  0.4846 -0.1392
  180DOPC  H11B22021   5.007   3.246  11.897  1.5611  1.0924  0.3027
  180DOPC     P22022   4.784   3.180  12.160 -0.1921  0.0022 -0.0567
  180DOPC   O1322023   4.760   3.043  12.217  0.1293 -0.1403  0.0088
  180DOPC   O1422024   4.665   3.234  12.097  0.0421 -0.3756  0.1052
  180DOPC   O1222025   4.897   3.167  12.054  0.1071 -0.0778 -0.2999
  180DOPC   O1122026   4.836   3.276  12.275  0.0265 -0.0901 -0.5990
  180DOPC    C122027   4.746   3.365  12.349 -0.0456  0.0738 -0.0706
  180DOPC    HA22028   4.664   3.314  12.403  0.9227  1.6513  3.1323
  180DOPC    HB22029   4.694   3.429  12.274  1.2784  0.3408 -0.7847
  180DOPC    C222030   4.846   3.434  12.445 -0.7152  0.1862 -0.3712
  180DOPC    HS22031   4.937   3.469  12.391 -0.8285 -0.4043 -0.9699
  180DOPC   O2122032   4.871   3.327  12.536  0.2400  0.3933 -0.5113
  180DOPC   C2122033   4.994   3.321  12.590 -0.6001  0.2886  0.6778
  180DOPC   O2222034   5.089   3.380  12.543 -0.6171  0.2737  0.2247
  180DOPC   C2222035   4.994   3.241  12.721 -0.2860 -0.7190 -0.1641
  180DOPC   H2R22036   5.097   3.205  12.742 -0.5915 -1.4904  0.0543
  180DOPC   H2S22037   4.931   3.150  12.716 -1.7835  0.1490  1.7929
  180DOPC    C322038   4.781   3.545  12.526 -0.6293 -0.4591 -0.1991
  180DOPC    HX22039   4.680   3.513  12.558  0.3622 -2.0753  1.5953
  180DOPC    HY22040   4.767   3.636  12.465 -1.0072 -1.1453 -1.1517
  180DOPC   O3122041   4.859   3.583  12.644  0.2676 -0.0789  0.1953
  180DOPC   C3122042   4.809   3.680  12.710  0.2276 -0.1709 -0.5484
  180DOPC   O3222043   4.703   3.736  12.679 -0.2907  0.3475 -0.1939
  180DOPC   C3222044   4.888   3.700  12.835  0.0237  0.3403 -0.4979
  180DOPC   H2X22045   4.952   3.610  12.847 -1.3054 -0.6608 -0.7243
  180DOPC   H2Y22046   4.939   3.797  12.817  1.3048  0.7262  4.0197
  180DOPC   C2322047   4.942   3.326  12.835  0.2803  0.2656 -0.2329
  180DOPC   H3R22048   4.846   3.372  12.802 -0.4245 -2.2494 -2.0428
  180DOPC   H3S22049   5.023   3.397  12.861  3.1506 -3.2165  1.2081
  180DOPC   C2422050   4.915   3.241  12.965 -0.0843  0.3814  0.0508
  180DOPC   H4R22051   5.009   3.194  12.999 -1.3860 -0.8439  2.1936
  180DOPC   H4S22052   4.842   3.158  12.950 -0.7739  1.2456 -1.6065
  180DOPC   C2522053   4.862   3.321  13.086  0.4421  0.3836 -0.0174
  180DOPC   H5R22054   4.769   3.375  13.058  0.4666  0.0250 -0.8306
  180DOPC   H5S22055   4.937   3.395  13.122  3.4334 -2.0861 -0.7422
  180DOPC   C2622056   4.833   3.236  13.212 -0.0353  0.2481 -0.1419
  180DOPC   H6R22057   4.910   3.168  13.255 -1.4729  0.4845  3.1096
  180DOPC   H6S22058   4.746   3.169  13.197 -0.4893 -0.1232  3.2526
  180DOPC   C2722059   4.783   3.328  13.327  0.2788  0.3508 -0.6462
  180DOPC   H7R22060   4.724   3.413  13.285 -0.4431  0.0937 -0.1752
  180DOPC   H7S22061   4.866   3.376  13.383 -0.4458  0.6442  0.2055
  180DOPC   C2822062   4.698   3.257  13.428  0.5760 -0.2598  0.0456
  180DOPC   H8R22063   4.600   3.221  13.392  0.7506 -0.7882  0.0934
  180DOPC   H8S22064   4.669   3.330  13.507  0.5211 -0.4668  0.2179
  180DOPC   C2922065   4.758   3.135  13.490  0.4992 -0.0472 -0.0197
  180DOPC   H9R22066   4.746   3.054  13.418 -0.0182 -1.7083  1.8441
  180DOPC  C21022067   4.786   3.113  13.619  0.6067 -0.4019  0.2354
  180DOPC  H10R22068   4.816   3.010  13.644 -0.0467 -0.1757  2.1447
  180DOPC  C21122069   4.790   3.222  13.727 -0.8356  0.4689  0.1495
  180DOPC  H11R22070   4.695   3.279  13.734 -0.1575  1.6074  0.4109
  180DOPC  H11S22071   4.871   3.296  13.708 -2.4769  2.4716  0.5908
  180DOPC  C21222072   4.794   3.150  13.863 -0.1563 -0.1011  0.2794
  180DOPC  H12R22073   4.872   3.071  13.865 -0.7153 -0.7066 -0.7869
  180DOPC  H12S22074   4.697   3.098  13.879  0.9629 -2.5220 -0.3376
  180DOPC  C21322075   4.824   3.254  13.974  0.6280  0.1595 -0.4072
  180DOPC  H13R22076   4.759   3.343  13.963  0.7648  0.1278 -1.6229
  180DOPC  H13S22077   4.930   3.287  13.972  0.4509  0.7035 -1.3222
  180DOPC  C21422078   4.780   3.201  14.113  0.1031  0.4779  0.1389
  180DOPC  H14R22079   4.837   3.108  14.135 -1.3122 -0.5565 -0.3868
  180DOPC  H14S22080   4.677   3.160  14.113  0.2672  0.0442  0.7210
  180DOPC  C21522081   4.810   3.301  14.219  0.1716 -0.3530 -0.4893
  180DOPC  H15R22082   4.815   3.402  14.175 -0.5157 -0.4690 -0.8491
  180DOPC  H15S22083   4.914   3.275  14.250 -0.0304  0.2889  0.7586
  180DOPC  C21622084   4.709   3.289  14.333  0.1539 -0.5379  0.1073
  180DOPC  H16R22085   4.708   3.190  14.384 -0.1455 -0.4573  0.2548
  180DOPC  H16S22086   4.605   3.306  14.299  0.0107 -0.6299  0.5011
  180DOPC  C21722087   4.734   3.395  14.439 -0.9511 -0.8233 -0.2118
  180DOPC  H17R22088   4.736   3.494  14.388  0.6009  0.0919  1.4874
  180DOPC  H17S22089   4.832   3.393  14.491 -0.7044  0.5629 -0.5747
  180DOPC  C21822090   4.621   3.404  14.543 -0.1751  0.5735 -0.2810
  180DOPC  H18R22091   4.645   3.490  14.609 -0.8925 -0.3654  1.2575
  180DOPC  H18S22092   4.633   3.311  14.602  2.5138  0.2845 -1.1682
  180DOPC  H18T22093   4.522   3.414  14.491 -0.2542  1.4637  0.0250
  180DOPC   C3322094   4.789   3.715  12.945  0.1204 -0.5649  0.5233
  180DOPC   H3X22095   4.724   3.626  12.960  2.9329 -2.4194  2.8365
  180DOPC   H3Y22096   4.733   3.811  12.935 -0.6465 -0.9492  1.0960
  180DOPC   C3422097   4.875   3.732  13.070  0.8224  0.0301 -0.4742
  180DOPC   H4X22098   4.954   3.811  13.069  0.3005  0.5827  0.5406
  180DOPC   H4Y22099   4.917   3.631  13.087 -0.6729 -0.5677 -0.2186
  180DOPC   C3522100   4.781   3.767  13.184  0.4545  0.0327 -0.6902
  180DOPC   H5X22101   4.693   3.702  13.165 -0.0820 -0.9555  3.8643
  180DOPC   H5Y22102   4.743   3.871  13.189  0.5384  0.0204  2.8454
  180DOPC   C3622103   4.840   3.746  13.320  0.3707  0.0079 -0.0163
  180DOPC   H6X22104   4.874   3.640  13.327  0.3305  0.0404  0.7236
  180DOPC   H6Y22105   4.916   3.825  13.340 -0.4109  0.6719  0.3652
  180DOPC   C3722106   4.740   3.768  13.428  0.3818 -0.0569 -0.0869
  180DOPC   H7X22107   4.686   3.864  13.417 -1.0781 -0.7587  0.6377
  180DOPC   H7Y22108   4.652   3.702  13.412 -0.5544  0.7340  1.5245
  180DOPC   C3822109   4.791   3.781  13.573 -0.2336  0.4320 -0.2037
  180DOPC   H8X22110   4.731   3.848  13.638  0.6418  0.7874  0.2515
  180DOPC   H8Y22111   4.888   3.834  13.561  0.5809 -1.1761 -1.1832
  180DOPC   C3922112   4.805   3.654  13.653 -0.0505  0.2265  0.0011
  180DOPC   H9X22113   4.779   3.562  13.598  1.3528 -0.2251  0.0461
  180DOPC  C31022114   4.841   3.651  13.783  0.0402 -0.1564 -0.1434
  180DOPC  H10X22115   4.851   3.547  13.816 -2.0468  0.0128  1.1993
  180DOPC  C31122116   4.875   3.769  13.874 -0.9397 -0.1580 -0.6481
  180DOPC  H11X22117   4.849   3.868  13.831 -0.5676  0.4782  0.5086
  180DOPC  H11Y22118   4.985   3.777  13.886 -1.0750  0.8789  0.0284
  180DOPC  C31222119   4.826   3.751  14.018 -0.6786 -0.2260  0.1762
  180DOPC  H12X22120   4.847   3.649  14.055  0.0637 -0.9184 -2.0222
  180DOPC  H12Y22121   4.718   3.770  14.031 -1.4739 -2.6220 -2.1141
  180DOPC  C31322122   4.906   3.845  14.117  1.3269 -0.5913  0.0562
  180DOPC  H13X22123   5.016   3.827  14.110  1.5943 -0.1112  2.2483
  180DOPC  H13Y22124   4.882   3.951  14.093 -2.4409 -1.3763 -0.1961
  180DOPC  C31422125   4.876   3.810  14.268 -1.0220  0.2110  0.6061
  180DOPC  H14X22126   4.909   3.706  14.288  1.2036  0.6270 -0.6730
  180DOPC  H14Y22127   4.935   3.881  14.329 -0.8065 -0.2399  0.9258
  180DOPC  C31522128   4.731   3.836  14.313  0.6333  0.5576  0.6232
  180DOPC  H15X22129   4.659   3.764  14.268  1.9737 -0.4033 -0.0461
  180DOPC  H15Y22130   4.696   3.933  14.274 -3.8063 -1.5102 -1.3056
  180DOPC  C31622131   4.708   3.814  14.464 -0.2948 -0.0804 -0.1885
  180DOPC  H16X22132   4.718   3.705  14.480  0.3859  0.0616  0.4220
  180DOPC  H16Y22133   4.774   3.876  14.529 -1.8488 -0.8977  2.3401
  180DOPC  C31722134   4.565   3.854  14.495  0.5773 -0.2304  0.1141
  180DOPC  H17X22135   4.553   3.965  14.498  1.7541  0.0532 -2.8167
  180DOPC  H17Y22136   4.496   3.827  14.413  0.0785 -1.6129  0.9563
  180DOPC  C31822137   4.495   3.785  14.614  0.1685 -0.1584  0.1963
  180DOPC  H18X22138   4.512   3.675  14.612 -0.0333 -0.2630  2.3640
  180DOPC  H18Y22139   4.527   3.818  14.715 -2.2414  2.2795  0.2653
  180DOPC  H18Z22140   4.385   3.794  14.612 -0.0980 -2.1583 -3.6714
  181DOPC     N22141   0.788   5.223  12.089 -0.0579  0.6488 -0.2443
  181DOPC   C1222142   0.699   5.144  12.191  0.1206  0.0077  0.3354
  181DOPC  H12A22143   0.603   5.129  12.145  0.4209  0.5108 -0.4827
  181DOPC  H12B22144   0.677   5.215  12.268  0.7413 -1.4488  1.9303
  181DOPC   C1322145   0.847   5.131  11.992  0.5798  0.0738  0.4518
  181DOPC  H13A22146   0.919   5.181  11.930 -1.6334  3.1007  0.1106
  181DOPC  H13B22147   0.887   5.044  12.043 -0.9993 -1.0652 -0.1466
  181DOPC  H13C22148   0.775   5.091  11.922  0.4404 -0.2141  0.7541
  181DOPC   C1422149   0.901   5.298  12.154  0.3940 -0.4590  0.1031
  181DOPC  H14A22150   0.958   5.355  12.082  2.4422 -0.1227  1.9041
  181DOPC  H14B22151   0.869   5.351  12.243  0.6768  1.1832 -0.7200
  181DOPC  H14C22152   0.977   5.237  12.200  0.4063  0.1272  0.8850
  181DOPC   C1522153   0.717   5.327  12.013 -0.0604  0.4922 -0.2226
  181DOPC  H15A22154   0.782   5.364  11.935 -0.4218  0.2575 -0.6444
  181DOPC  H15B22155   0.685   5.406  12.079 -1.4412 -0.2977  0.0798
  181DOPC  H15C22156   0.634   5.282  11.960 -0.0760 -0.9879  1.0103
  181DOPC   C1122157   0.752   5.012  12.240  0.3096 -0.5731  0.5464
  181DOPC  H11A22158   0.706   4.984  12.337  0.0657 -0.4314  0.4729
  181DOPC  H11B22159   0.735   4.936  12.161  0.6018  2.0621 -2.2297
  181DOPC     P22160   0.990   4.911  12.324  0.2267  0.0893  0.0087
  181DOPC   O1322161   1.118   4.969  12.371  0.0797  0.2221 -0.0695
  181DOPC   O1422162   0.994   4.800  12.222  0.0053 -0.2100  0.1689
  181DOPC   O1222163   0.893   5.022  12.271 -0.1090  0.0093 -0.0174
  181DOPC   O1122164   0.904   4.858  12.446 -0.5987 -0.3174 -0.0348
  181DOPC    C122165   0.909   4.942  12.569 -0.0590  0.0188  0.5292
  181DOPC    HA22166   0.805   4.964  12.600 -0.6206  0.2624 -1.3608
  181DOPC    HB22167   0.952   5.043  12.552  1.8518 -0.8942 -0.4377
  181DOPC    C222168   0.980   4.871  12.688  0.8187  0.4226 -0.4840
  181DOPC    HS22169   1.055   4.810  12.633 -0.3932 -0.9230 -0.6971
  181DOPC   O2122170   0.879   4.799  12.767  0.3351 -0.3526  0.3877
  181DOPC   C2122171   0.940   4.694  12.824 -0.5413 -0.1131 -0.6317
  181DOPC   O2222172   1.057   4.665  12.818 -0.3671  0.1308 -0.3177
  181DOPC   C2222173   0.835   4.614  12.902 -0.1217 -0.2674 -0.5872
  181DOPC   H2R22174   0.771   4.552  12.836  1.2834 -0.4152 -1.8657
  181DOPC   H2S22175   0.769   4.692  12.947 -0.1034  0.1213 -1.2300
  181DOPC    C322176   1.058   4.973  12.768 -0.1545  0.0370 -0.4811
  181DOPC    HX22177   1.131   5.025  12.703  2.6144  0.2079  2.4829
  181DOPC    HY22178   1.122   4.916  12.840 -0.3756 -0.4586 -0.6715
  181DOPC   O3122179   0.981   5.071  12.833 -0.7432  0.3922 -0.0165
  181DOPC   C3122180   0.932   5.030  12.945 -0.9015 -0.0597  0.3433
  181DOPC   O3222181   0.974   4.943  13.020 -1.0689  0.4565  1.0862
  181DOPC   C3222182   0.793   5.096  12.957  0.3440 -0.6684 -0.5777
  181DOPC   H2X22183   0.803   5.205  12.971 -0.1790 -0.7227  0.2773
  181DOPC   H2Y22184   0.734   5.075  12.865 -1.5152 -0.4756  0.5121
  181DOPC   C2322185   0.890   4.528  13.020 -0.3529 -0.2154  0.4328
  181DOPC   H3R22186   0.997   4.502  13.003  0.1443  0.2839  2.5064
  181DOPC   H3S22187   0.828   4.436  13.029 -0.3764 -0.1493  0.9787
  181DOPC   C2422188   0.883   4.590  13.161 -0.7754  0.1859  0.1442
  181DOPC   H4R22189   0.783   4.622  13.197  0.0612  0.6189  2.2336
  181DOPC   H4S22190   0.954   4.676  13.160  1.4434 -1.5432 -1.2624
  181DOPC   C2522191   0.940   4.495  13.273  0.6099  0.6243  1.0753
  181DOPC   H5R22192   1.051   4.489  13.268  0.5590 -0.0180  0.6930
  181DOPC   H5S22193   0.902   4.393  13.251 -0.4174  1.0551  0.7939
  181DOPC   C2622194   0.890   4.526  13.414 -1.1560 -0.8091 -0.1138
  181DOPC   H6R22195   0.780   4.506  13.412 -0.9722 -1.8053 -0.8588
  181DOPC   H6S22196   0.901   4.637  13.414 -0.4129 -0.8811 -0.5177
  181DOPC   C2722197   0.950   4.453  13.528  0.2164  0.4190 -0.0352
  181DOPC   H7R22198   1.056   4.485  13.538  0.7019 -1.4832  1.5968
  181DOPC   H7S22199   0.945   4.344  13.508 -2.6555  0.1282  1.6730
  181DOPC   C2822200   0.881   4.484  13.661  0.2276 -0.1005 -0.0654
  181DOPC   H8R22201   0.946   4.438  13.739  0.1026  0.9357  0.6754
  181DOPC   H8S22202   0.784   4.431  13.665 -0.0253  0.4314  1.2083
  181DOPC   C2922203   0.879   4.630  13.698 -0.5745 -0.1543  0.0506
  181DOPC   H9R22204   0.881   4.701  13.614  1.6416  2.2222  1.9351
  181DOPC  C21022205   0.845   4.678  13.821 -0.3598  0.0591  0.5313
  181DOPC  H10R22206   0.857   4.787  13.835  1.6922 -0.1015  0.3316
  181DOPC  C21122207   0.810   4.605  13.945 -0.4216 -0.0057  0.6020
  181DOPC  H11R22208   0.807   4.494  13.941  1.8321 -0.2935  3.4741
  181DOPC  H11S22209   0.702   4.618  13.969 -0.2655 -0.4290  1.5953
  181DOPC  C21222210   0.912   4.646  14.060  0.3877 -0.1019 -0.3728
  181DOPC  H12R22211   0.904   4.756  14.074 -1.5876  0.1419 -2.7740
  181DOPC  H12S22212   1.015   4.613  14.036  3.1488  4.4596  3.2988
  181DOPC  C21322213   0.876   4.566  14.191 -0.4654  1.3671  0.5850
  181DOPC  H13R22214   0.889   4.458  14.168  0.3902  1.5419  0.2302
  181DOPC  H13S22215   0.769   4.589  14.211 -0.5055  0.2716  1.7740
  181DOPC  C21422216   0.971   4.608  14.298 -0.0666 -0.1019  0.3556
  181DOPC  H14R22217   0.958   4.719  14.300 -1.4526 -0.2330  2.2781
  181DOPC  H14S22218   1.080   4.588  14.284 -0.2621 -0.7242 -0.3082
  181DOPC  C21522219   0.923   4.569  14.434 -0.0334  0.0211  0.1248
  181DOPC  H15R22220   0.919   4.458  14.435 -0.6954  0.0389  1.1723
  181DOPC  H15S22221   0.815   4.599  14.440  0.5800  2.1927  4.3032
  181DOPC  C21622222   1.002   4.620  14.554  0.3148 -0.1347  0.0510
  181DOPC  H16R22223   1.014   4.728  14.532 -1.8660  0.2527  0.5665
  181DOPC  H16S22224   1.105   4.580  14.562  0.0341 -0.7918  0.5289
  181DOPC  C21722225   0.932   4.592  14.686 -0.5014  0.5955  0.0301
  181DOPC  H17R22226   0.825   4.620  14.686 -0.0795  2.3725  0.8021
  181DOPC  H17S22227   0.982   4.664  14.754 -0.6272 -0.1480  0.9427
  181DOPC  C21822228   0.957   4.447  14.730 -0.8836  0.4171  0.1200
  181DOPC  H18R22229   0.898   4.385  14.659 -0.2710  1.4872 -1.3757
  181DOPC  H18S22230   0.923   4.429  14.834 -0.8859  1.4672  0.3078
  181DOPC  H18T22231   1.065   4.421  14.719 -0.8339  0.4617  0.4674
  181DOPC   C3322232   0.709   5.041  13.074 -0.4721  0.1155 -0.6786
  181DOPC   H3X22233   0.722   4.931  13.077 -1.0145  0.0676  0.2982
  181DOPC   H3Y22234   0.604   5.073  13.060 -0.1592  0.8910 -1.3933
  181DOPC   C3422235   0.752   5.087  13.215  0.3196  0.5475 -0.2537
  181DOPC   H4X22236   0.719   5.192  13.232 -1.0695  0.1848 -0.6129
  181DOPC   H4Y22237   0.861   5.072  13.230 -0.3557 -1.0569  5.6587
  181DOPC   C3522238   0.684   5.005  13.325 -0.4506  0.9765 -0.9018
  181DOPC   H5X22239   0.726   4.903  13.325  0.2234  1.1740  1.4751
  181DOPC   H5Y22240   0.578   4.996  13.294 -1.0317 -0.9345  1.3493
  181DOPC   C3622241   0.700   5.055  13.465  1.1447  0.3291 -0.1429
  181DOPC   H6X22242   0.807   5.069  13.491  0.0708  1.9329  4.3321
  181DOPC   H6Y22243   0.644   5.149  13.481 -1.7561 -0.9834 -1.7995
  181DOPC   C3722244   0.644   4.948  13.564 -0.1210 -0.1613  0.5106
  181DOPC   H7X22245   0.534   4.932  13.557 -0.2082  0.6110  0.0414
  181DOPC   H7Y22246   0.690   4.853  13.529 -1.1649 -0.0055 -1.4432
  181DOPC   C3822247   0.687   4.975  13.712 -0.3473 -0.4548  0.7741
  181DOPC   H8X22248   0.793   5.008  13.719 -0.7076  0.8594  0.2966
  181DOPC   H8Y22249   0.684   4.874  13.758  2.8048 -2.0331 -2.0479
  181DOPC   C3922250   0.593   5.076  13.773  0.2714  0.2022 -0.0086
  181DOPC   H9X22251   0.565   5.152  13.699  1.0789  0.3708 -0.1444
  181DOPC  C31022252   0.530   5.067  13.889  0.1557 -0.6238 -0.3640
  181DOPC  H10X22253   0.469   5.149  13.930  1.8946  0.9736 -0.8357
  181DOPC  C31122254   0.560   4.976  14.005 -0.4426  0.7892  0.2102
  181DOPC  H11X22255   0.542   4.875  13.962 -1.1382  0.4149  1.3375
  181DOPC  H11Y22256   0.489   4.988  14.089 -1.9971  0.7165 -1.0576
  181DOPC  C31222257   0.705   4.970  14.071 -0.1958 -0.2082 -0.9640
  181DOPC  H12X22258   0.782   4.975  13.991  2.8953  1.5611  1.8830
  181DOPC  H12Y22259   0.709   4.866  14.111 -1.7797  0.3083  0.6394
  181DOPC  C31322260   0.715   5.067  14.187  0.1536  0.1475  0.2147
  181DOPC  H13X22261   0.688   5.172  14.159 -1.2296  0.0261  1.0174
  181DOPC  H13Y22262   0.632   5.048  14.258  1.4025 -0.5641  1.5357
  181DOPC  C31422263   0.843   5.072  14.269  0.2557  0.2505 -0.9793
  181DOPC  H14X22264   0.883   4.969  14.280 -1.2154 -0.0925  1.9932
  181DOPC  H14Y22265   0.914   5.137  14.214  0.3190  0.7004 -0.3673
  181DOPC  C31522266   0.811   5.120  14.410 -0.7054 -0.2750  0.3981
  181DOPC  H15X22267   0.750   5.042  14.458 -0.3125  0.1644  1.6673
  181DOPC  H15Y22268   0.756   5.217  14.408  0.7194  0.6500  2.4243
  181DOPC  C31622269   0.945   5.124  14.489  0.2437  0.6694 -0.1940
  181DOPC  H16X22270   0.994   5.026  14.469 -0.6708  0.1528  0.0582
  181DOPC  H16Y22271   1.008   5.203  14.444  0.0380  2.1609  1.9586
  181DOPC  C31722272   0.920   5.156  14.637 -0.5811 -0.4516  0.3080
  181DOPC  H17X22273   0.864   5.252  14.640 -0.8223 -0.6098  2.5443
  181DOPC  H17Y22274   0.857   5.074  14.679 -0.8145 -1.8784 -2.5589
  181DOPC  C31822275   1.046   5.159  14.723  0.7840  0.4180 -0.0904
  181DOPC  H18X22276   1.032   5.189  14.829  0.6648  1.3265 -0.3515
  181DOPC  H18Y22277   1.104   5.065  14.721  1.2786  0.7306 -1.4912
  181DOPC  H18Z22278   1.114   5.232  14.673  1.4078  1.5117  2.1825
  182DOPC     N22279   1.161   1.722  12.716  0.7994 -0.3700  0.4193
  182DOPC   C1222280   1.260   1.631  12.785  0.3233 -0.0903  0.5066
  182DOPC  H12A22281   1.225   1.529  12.773 -1.5664  0.5153  0.5257
  182DOPC  H12B22282   1.263   1.660  12.889  0.4090  1.4326  0.0912
  182DOPC   C1322283   1.019   1.701  12.768 -0.7900 -0.3587  0.2087
  182DOPC  H13A22284   0.953   1.742  12.693 -0.2062  1.1437  0.4764
  182DOPC  H13B22285   1.011   1.595  12.786  0.5270 -0.9151 -2.0601
  182DOPC  H13C22286   1.010   1.760  12.858  2.2040  1.7447 -0.7031
  182DOPC   C1422287   1.162   1.676  12.569  0.0671  0.1161  0.7817
  182DOPC  H14A22288   1.087   1.731  12.514  0.3800  1.3868  1.5846
  182DOPC  H14B22289   1.262   1.703  12.539  0.4675 -0.1391  1.8294
  182DOPC  H14C22290   1.159   1.568  12.566  0.1426  0.1295 -0.2064
  182DOPC   C1522291   1.191   1.872  12.716 -0.3277 -0.1810  0.4188
  182DOPC  H15A22292   1.178   1.928  12.808  2.1970  2.8245 -0.8820
  182DOPC  H15B22293   1.138   1.918  12.634  3.2472 -0.7348 -2.4357
  182DOPC  H15C22294   1.297   1.879  12.699 -0.1014 -3.9942 -0.7949
  182DOPC   C1122295   1.401   1.629  12.725  0.9293  0.4024  0.2828
  182DOPC  H11A22296   1.461   1.556  12.784  1.2313 -1.8502 -2.5656
  182DOPC  H11B22297   1.394   1.582  12.625  1.1369 -0.6405  0.7476
  182DOPC     P22298   1.544   1.828  12.813  0.3849  0.2339 -0.0551
  182DOPC   O1322299   1.589   1.951  12.747  0.5523 -0.0209  0.5711
  182DOPC   O1422300   1.644   1.734  12.869  0.5126 -0.8059  0.0453
  182DOPC   O1222301   1.462   1.755  12.707  0.2889 -0.6031  0.8285
  182DOPC   O1122302   1.429   1.868  12.915 -0.4765  0.1845 -0.0266
  182DOPC    C122303   1.435   1.865  13.058  0.4090  0.5905  0.2135
  182DOPC    HA22304   1.423   1.962  13.110 -0.4064 -0.2015  1.5502
  182DOPC    HB22305   1.531   1.815  13.084  1.4539  2.1449 -0.4489
  182DOPC    C222306   1.323   1.772  13.112  0.9503  0.1989  0.5930
  182DOPC    HS22307   1.314   1.690  13.037 -3.3961  0.2419  0.8234
  182DOPC   O2122308   1.196   1.845  13.112 -0.3580 -0.4987  0.1841
  182DOPC   C2122309   1.084   1.774  13.106  0.1417 -0.3982 -0.1295
  182DOPC   O2222310   1.080   1.656  13.080  0.2893 -0.2885  0.0112
  182DOPC   C2222311   0.968   1.867  13.125  0.2012 -0.6946  0.0413
  182DOPC   H2R22312   0.926   1.877  13.023  0.7272 -0.3766 -0.1467
  182DOPC   H2S22313   1.009   1.966  13.156 -1.3910  0.1827 -0.5007
  182DOPC    C322314   1.355   1.707  13.245 -0.0366 -0.3662 -0.8571
  182DOPC    HX22315   1.451   1.651  13.238 -1.2233 -2.6537  0.0056
  182DOPC    HY22316   1.277   1.633  13.275 -0.9065  1.1086  0.7117
  182DOPC   O3122317   1.361   1.801  13.357  0.0089 -0.0320  0.2244
  182DOPC   C3122318   1.407   1.742  13.472  0.1709  0.2462  0.2749
  182DOPC   O3222319   1.408   1.624  13.490 -0.2001 -0.1786  0.9516
  182DOPC   C3222320   1.476   1.849  13.560  0.4345  0.7390  0.3536
  182DOPC   H2X22321   1.581   1.854  13.524  0.0369  1.6233 -0.7178
  182DOPC   H2Y22322   1.428   1.947  13.541  1.3851  1.0450 -0.5665
  182DOPC   C2322323   0.859   1.806  13.227 -0.4109  0.4367 -0.5354
  182DOPC   H3R22324   0.851   1.698  13.203  0.0586  0.2421  0.1641
  182DOPC   H3S22325   0.762   1.859  13.212 -0.5814 -0.0484 -1.1819
  182DOPC   C2422326   0.893   1.812  13.379 -0.0436 -0.2587 -0.2841
  182DOPC   H4R22327   0.977   1.740  13.393  0.0959  0.1427  1.1254
  182DOPC   H4S22328   0.815   1.764  13.442 -1.4647  0.7750 -1.2151
  182DOPC   C2522329   0.927   1.948  13.437  0.1427  0.4578  0.3199
  182DOPC   H5R22330   0.850   2.026  13.415  0.1644  1.0437  2.0998
  182DOPC   H5S22331   1.024   1.983  13.396 -0.3218  0.5807 -0.6887
  182DOPC   C2622332   0.947   1.946  13.590  0.2358 -0.3166 -0.0463
  182DOPC   H6R22333   0.853   1.920  13.642  1.0342  0.9918  2.1735
  182DOPC   H6S22334   0.971   2.051  13.617  0.8732 -0.1743 -1.1132
  182DOPC   C2722335   1.063   1.855  13.649 -0.5268 -0.0801 -0.0618
  182DOPC   H7R22336   1.161   1.869  13.599  0.6487 -0.1948  2.1064
  182DOPC   H7S22337   1.032   1.749  13.633 -2.2791  0.2581  0.8416
  182DOPC   C2822338   1.079   1.880  13.805 -0.4875  0.4188  0.2082
  182DOPC   H8R22339   1.093   1.988  13.828 -1.0897  0.3731  0.8158
  182DOPC   H8S22340   1.160   1.811  13.836 -0.9599  0.0271  0.5838
  182DOPC   C2922341   0.961   1.827  13.883 -0.2498 -0.6196 -0.1071
  182DOPC   H9R22342   0.891   1.756  13.835 -1.5176  0.8404 -0.4876
  182DOPC  C21022343   0.927   1.861  14.007 -0.0693  0.0537 -0.4132
  182DOPC  H10R22344   0.837   1.816  14.052  1.2276 -2.6689 -0.2973
  182DOPC  C21122345   0.996   1.953  14.101  0.5300  0.0576 -0.4380
  182DOPC  H11R22346   1.040   2.044  14.053 -0.1912  0.3046 -0.6428
  182DOPC  H11S22347   1.086   1.896  14.132 -0.0150 -0.2287  0.6317
  182DOPC  C21222348   0.903   1.989  14.225 -0.7806  0.1932  0.2785
  182DOPC  H12R22349   0.852   1.899  14.265 -0.0774 -0.0462  0.6466
  182DOPC  H12S22350   0.820   2.051  14.185 -0.1217  2.3023  2.0045
  182DOPC  C21322351   0.965   2.071  14.333 -0.4669 -0.1451  0.6806
  182DOPC  H13R22352   0.979   2.176  14.299  0.2721 -0.0677  1.2192
  182DOPC  H13S22353   1.064   2.025  14.349 -1.3134 -1.9265  1.0418
  182DOPC  C21422354   0.893   2.058  14.465  0.1423 -0.1050 -0.3508
  182DOPC  H14R22355   0.895   1.954  14.506 -2.0875 -0.0596  0.0226
  182DOPC  H14S22356   0.787   2.083  14.441 -0.2986 -0.7809  0.7968
  182DOPC  C21522357   0.939   2.151  14.581  0.5625 -0.8249  0.2946
  182DOPC  H15R22358   0.953   2.248  14.530 -2.1696  0.3500  1.5869
  182DOPC  H15S22359   1.037   2.110  14.615  1.3621  0.4903 -0.3639
  182DOPC  C21622360   0.840   2.180  14.699 -0.1578  0.3189  0.4165
  182DOPC  H16R22361   0.819   2.089  14.759  1.0459 -0.1784  0.1200
  182DOPC  H16S22362   0.743   2.214  14.659  0.2296 -0.4733 -1.2786
  182DOPC  C21722363   0.900   2.296  14.773 -0.3659 -0.1780  0.0852
  182DOPC  H17R22364   0.916   2.372  14.694  0.4329  0.3831  0.7717
  182DOPC  H17S22365   1.001   2.276  14.815  0.9039  1.5899 -1.9315
  182DOPC  C21822366   0.809   2.364  14.881 -0.0998 -0.6801 -0.5349
  182DOPC  H18R22367   0.870   2.438  14.939 -0.7584 -1.2473  0.9188
  182DOPC  H18S22368   0.779   2.288  14.956  0.3777 -0.6203 -0.2801
  182DOPC  H18T22369   0.725   2.421  14.837  0.8641  0.6419 -0.7494
  182DOPC   C3322370   1.468   1.834  13.721  0.6796  0.3657 -0.5405
  182DOPC   H3X22371   1.367   1.853  13.764  0.2058 -1.6008 -0.6567
  182DOPC   H3Y22372   1.540   1.906  13.764  0.2637 -0.7937  2.3535
  182DOPC   C3422373   1.518   1.707  13.785  0.2139 -0.1853 -0.1061
  182DOPC   H4X22374   1.596   1.671  13.715  0.1815  0.2189 -0.3526
  182DOPC   H4Y22375   1.436   1.632  13.790 -1.0469  1.1718  0.4225
  182DOPC   C3522376   1.585   1.721  13.928 -0.1069 -0.4938  0.5795
  182DOPC   H5X22377   1.677   1.784  13.918 -1.4349  1.5827  0.8519
  182DOPC   H5Y22378   1.612   1.622  13.972 -0.2158  0.2743  2.5108
  182DOPC   C3622379   1.489   1.788  14.034  0.0459 -0.0290 -0.3546
  182DOPC   H6X22380   1.486   1.896  14.012  0.2685 -0.0257 -0.3754
  182DOPC   H6Y22381   1.388   1.748  14.014 -0.8208  2.0859 -0.4192
  182DOPC   C3722382   1.533   1.768  14.180  0.1396  0.1210  0.3418
  182DOPC   H7X22383   1.523   1.662  14.213  1.4366 -0.2347 -0.3375
  182DOPC   H7Y22384   1.644   1.773  14.179  0.2878 -0.7404 -3.1728
  182DOPC   C3822385   1.469   1.870  14.277 -0.3087 -0.5900  0.2921
  182DOPC   H8X22386   1.451   1.964  14.221  0.1936  0.2884  1.5477
  182DOPC   H8Y22387   1.546   1.903  14.350 -0.5667  0.9077 -0.0906
  182DOPC   C3922388   1.346   1.824  14.347  0.7369  0.1431 -0.1509
  182DOPC   H9X22389   1.256   1.839  14.286  0.3969 -2.1959 -0.2972
  182DOPC  C31022390   1.333   1.790  14.472 -0.0908 -0.3726  0.1510
  182DOPC  H10X22391   1.235   1.748  14.498 -0.5196  0.2923 -0.3822
  182DOPC  C31122392   1.445   1.762  14.566 -0.4980  0.2127  0.2446
  182DOPC  H11X22393   1.536   1.720  14.519 -0.3599 -0.8830  1.4368
  182DOPC  H11Y22394   1.410   1.676  14.626 -0.8947  0.1962 -0.0065
  182DOPC  C31222395   1.478   1.870  14.666 -0.4112  0.0327 -0.2057
  182DOPC  H12X22396   1.490   1.958  14.598 -1.2495 -0.1608 -0.6236
  182DOPC  H12Y22397   1.577   1.849  14.710  1.3699 -3.4932 -5.0154
  182DOPC  C31322398   1.360   1.909  14.757  0.4272  0.6193  0.5739
  182DOPC  H13X22399   1.281   1.951  14.691  0.7020  0.0503 -0.1344
  182DOPC  H13Y22400   1.316   1.815  14.797 -0.7220  0.1743 -1.5963
  182DOPC  C31422401   1.391   2.013  14.855 -0.2333 -0.0441 -0.6189
  182DOPC  H14X22402   1.478   1.986  14.919  0.0450  0.9647 -0.5600
  182DOPC  H14Y22403   1.425   2.106  14.806  0.7600  1.7052  3.0588
  182DOPC  C31522404   1.279   2.050  14.959  0.1068  0.4655 -0.3000
  182DOPC  H15X22405   1.191   2.100  14.915  0.5144  1.2100 -0.2904
  182DOPC  H15Y22406   1.320   2.120  15.036 -0.0749  0.0583  0.1749
  182DOPC  C31622407   1.215   1.926  15.026  0.0920  0.5684 -0.4947
  182DOPC  H16X22408   1.117   1.945  15.076  0.7603 -1.2879  1.6729
  182DOPC  H16Y22409   1.183   1.848  14.953 -1.2960  0.9356 -0.3052
  182DOPC  C31722410   1.306   1.870  15.139  0.1811 -0.5999  0.0116
  182DOPC  H17X22411   1.397   1.819  15.099 -0.0575 -1.4026  0.4582
  182DOPC  H17Y22412   1.348   1.943  15.211  0.3867 -1.6751  1.0300
  182DOPC  C31822413   1.245   1.771  15.239 -0.8502 -0.0952  0.2410
  182DOPC  H18X22414   1.143   1.785  15.282 -0.8889  1.5501 -0.3554
  182DOPC  H18Y22415   1.236   1.673  15.187  0.6578  0.2483 -0.7172
  182DOPC  H18Z22416   1.320   1.738  15.314 -1.7557 -3.0540 -0.0115
  183DOPC     N22417   5.892   4.918  12.381 -0.0651 -0.3473 -0.4164
  183DOPC   C1222418   5.938   4.776  12.402  0.4070  0.0525 -0.6776
  183DOPC  H12A22419   6.033   4.775  12.453  0.9968 -4.6956 -1.4215
  183DOPC  H12B22420   5.954   4.723  12.309 -0.7846 -0.4577 -0.6104
  183DOPC   C1322421   5.756   4.919  12.319  0.5666 -0.2580 -0.6407
  183DOPC  H13A22422   5.704   5.012  12.341 -0.2438 -0.6905 -0.6965
  183DOPC  H13B22423   5.762   4.882  12.218  0.2899 -2.1080 -0.0187
  183DOPC  H13C22424   5.691   4.848  12.369  1.3581  0.5930  1.7586
  183DOPC   C1422425   5.996   4.986  12.289  0.0253 -0.0200 -0.0222
  183DOPC  H14A22426   6.095   4.979  12.331  0.2944 -2.0326 -0.8767
  183DOPC  H14B22427   5.986   4.944  12.190  0.1497  0.9107 -0.4368
  183DOPC  H14C22428   5.977   5.090  12.267 -1.7272 -0.0660  1.0176
  183DOPC   C1522429   5.891   4.996  12.511  0.1785  0.2224 -0.1976
  183DOPC  H15A22430   5.985   4.988  12.563  0.2665  0.3855 -0.3296
  183DOPC  H15B22431   5.815   4.946  12.569  0.5241 -0.8769 -0.6588
  183DOPC  H15C22432   5.867   5.097  12.483  0.4187  0.0494 -1.0740
  183DOPC   C1122433   5.850   4.680  12.493 -0.6316  0.5869 -0.2810
  183DOPC  H11A22434   5.908   4.589  12.520 -0.0223  1.6125  2.0924
  183DOPC  H11B22435   5.822   4.734  12.585 -2.6867 -0.3364 -0.3018
  183DOPC     P22436   5.743   4.546  12.298 -0.3530  0.4531 -0.0271
  183DOPC   O1322437   5.887   4.516  12.268  0.0036 -0.5512  0.6429
  183DOPC   O1422438   5.656   4.587  12.189  0.4729  0.5788 -0.3885
  183DOPC   O1222439   5.730   4.644  12.424 -0.6797  0.2961  0.0924
  183DOPC   O1122440   5.686   4.405  12.332  1.2466  0.0263 -0.0355
  183DOPC    C122441   5.725   4.337  12.451  0.2302  1.0152  0.1790
  183DOPC    HA22442   5.835   4.341  12.466  0.6031 -1.0303 -1.5565
  183DOPC    HB22443   5.712   4.227  12.450  5.3990  0.1500  0.1551
  183DOPC    C222444   5.653   4.380  12.581 -0.5717  0.1594  0.4328
  183DOPC    HS22445   5.682   4.481  12.618  1.5005 -0.2263 -0.0255
  183DOPC   O2122446   5.659   4.286  12.688  0.1696  0.6920  0.4328
  183DOPC   C2122447   5.777   4.292  12.750  0.9231  0.0306  0.7234
  183DOPC   O2222448   5.868   4.369  12.719  0.1394 -0.0729  0.1104
  183DOPC   C2222449   5.779   4.189  12.861 -0.0407  0.5115  0.2891
  183DOPC   H2R22450   5.884   4.197  12.897  0.1173 -3.0462  0.9464
  183DOPC   H2S22451   5.767   4.089  12.814 -0.6518  1.9670 -2.9669
  183DOPC    C322452   5.502   4.398  12.552  0.0810 -0.5751  0.4122
  183DOPC    HX22453   5.471   4.301  12.508 -1.6949  0.3285 -0.4818
  183DOPC    HY22454   5.497   4.483  12.480  0.4728 -0.6717  0.2676
  183DOPC   O3122455   5.429   4.445  12.670 -0.0953 -0.4925  0.0939
  183DOPC   C3122456   5.318   4.384  12.693  1.4718  0.2333 -0.2556
  183DOPC   O3222457   5.247   4.324  12.612 -0.3582  0.4272  0.3829
  183DOPC   C3222458   5.279   4.394  12.838  0.1033  0.2324 -0.0790
  183DOPC   H2X22459   5.190   4.460  12.831  0.0358 -0.0470 -3.7940
  183DOPC   H2Y22460   5.252   4.292  12.870 -1.0034  0.1495 -1.1958
  183DOPC   C2322461   5.684   4.203  12.981 -0.8488  0.1660  0.2614
  183DOPC   H3R22462   5.605   4.126  12.994  0.8723 -2.3691 -2.8912
  183DOPC   H3S22463   5.638   4.304  12.978  0.9891  1.0732  1.1370
  183DOPC   C2422464   5.753   4.195  13.126 -0.2540  0.1955  0.8580
  183DOPC   H4R22465   5.833   4.272  13.132  0.1958  0.2026 -2.9961
  183DOPC   H4S22466   5.799   4.094  13.130  1.9283  1.1220  0.7331
  183DOPC   C2522467   5.653   4.224  13.238  0.5515 -0.8473 -0.1243
  183DOPC   H5R22468   5.584   4.138  13.226 -1.0187  0.5593 -1.7188
  183DOPC   H5S22469   5.593   4.316  13.222 -1.5586 -1.5254  3.0115
  183DOPC   C2622470   5.714   4.253  13.374  0.1871  0.7073  0.1173
  183DOPC   H6R22471   5.757   4.356  13.369 -0.3164  0.8704 -1.2824
  183DOPC   H6S22472   5.797   4.182  13.391 -0.2810  0.5951  2.3224
  183DOPC   C2722473   5.609   4.246  13.484 -0.3757 -0.1786 -0.2243
  183DOPC   H7R22474   5.585   4.140  13.502 -2.1736  0.0895 -0.9215
  183DOPC   H7S22475   5.512   4.296  13.466 -0.6860 -1.4402 -2.2651
  183DOPC   C2822476   5.683   4.293  13.617  0.0732  0.4586 -0.0840
  183DOPC   H8R22477   5.718   4.399  13.611  0.5026  0.3106 -0.2546
  183DOPC   H8S22478   5.768   4.222  13.623 -0.6389 -0.4816 -0.8449
  183DOPC   C2922479   5.589   4.282  13.734 -0.3366 -0.4933  0.7457
  183DOPC   H9R22480   5.513   4.205  13.717 -2.1135  1.4017 -0.3611
  183DOPC  C21022481   5.572   4.366  13.837  0.3707  0.2475 -0.1762
  183DOPC  H10R22482   5.512   4.333  13.923 -1.7699  1.6506 -1.0322
  183DOPC  C21122483   5.649   4.489  13.868 -0.6289  0.0340 -0.5914
  183DOPC  H11R22484   5.582   4.576  13.854 -1.3910 -0.1902  1.3806
  183DOPC  H11S22485   5.731   4.498  13.793 -2.0148 -1.0113 -2.3269
  183DOPC  C21222486   5.713   4.516  14.008  0.0165  0.0132  0.0509
  183DOPC  H12R22487   5.630   4.532  14.080  0.7705 -1.6638  1.3600
  183DOPC  H12S22488   5.789   4.597  14.015 -0.4686  0.3324  3.5230
  183DOPC  C21322489   5.791   4.400  14.065 -0.4047 -0.1330  0.0163
  183DOPC  H13R22490   5.868   4.375  13.989  0.9733 -1.3489  1.7334
  183DOPC  H13S22491   5.719   4.318  14.084 -0.1391 -0.7516 -1.5560
  183DOPC  C21422492   5.874   4.437  14.191 -0.9558  0.0025 -0.5979
  183DOPC  H14R22493   5.951   4.512  14.162 -1.9874  0.8294 -1.2996
  183DOPC  H14S22494   5.928   4.345  14.219  0.6065  0.0487 -3.1552
  183DOPC  C21522495   5.785   4.502  14.299 -0.0956  0.3707 -0.4235
  183DOPC  H15R22496   5.700   4.435  14.325  2.6429 -2.1757  2.7872
  183DOPC  H15S22497   5.745   4.595  14.252  1.3745  0.9385 -0.5977
  183DOPC  C21622498   5.849   4.539  14.435 -0.0215 -0.3829 -0.4533
  183DOPC  H16R22499   5.958   4.535  14.414 -0.1413 -2.5469 -0.9076
  183DOPC  H16S22500   5.828   4.461  14.511 -0.6809  0.1648 -0.0697
  183DOPC  C21722501   5.798   4.677  14.492 -0.4387 -0.2829  0.0625
  183DOPC  H17R22502   5.688   4.679  14.501 -0.3990  3.2630  1.0327
  183DOPC  H17S22503   5.834   4.766  14.437 -1.0545  0.4039  0.7551
  183DOPC  C21822504   5.848   4.692  14.632 -0.3333 -0.4964  0.4234
  183DOPC  H18R22505   5.775   4.766  14.672 -1.0937 -0.2048 -1.4253
  183DOPC  H18S22506   5.953   4.728  14.641 -0.6978  1.0535 -0.9608
  183DOPC  H18T22507   5.830   4.601  14.693 -3.3367  0.1531  0.6714
  183DOPC   C3322508   5.373   4.478  12.926 -0.1656  0.3371  0.4864
  183DOPC   H3X22509   5.344   4.584  12.914 -2.3403 -0.3783 -1.1735
  183DOPC   H3Y22510   5.481   4.466  12.903  0.5207  0.8612  3.0493
  183DOPC   C3422511   5.359   4.459  13.083 -0.5915  0.1443 -0.5374
  183DOPC   H4X22512   5.451   4.501  13.130  0.6326 -1.3740 -1.4898
  183DOPC   H4Y22513   5.351   4.351  13.109  1.9036  0.0017 -0.1247
  183DOPC   C3522514   5.235   4.530  13.139 -0.0159  0.5122 -0.2171
  183DOPC   H5X22515   5.148   4.511  13.072 -1.8881 -1.9962  2.6432
  183DOPC   H5Y22516   5.260   4.637  13.126 -1.4570  0.8038 -0.8804
  183DOPC   C3622517   5.205   4.508  13.290  0.3123  0.1341  0.0423
  183DOPC   H6X22518   5.126   4.580  13.318 -0.5662  0.1015 -2.1366
  183DOPC   H6Y22519   5.165   4.405  13.293 -0.7388  0.3226 -3.2218
  183DOPC   C3722520   5.325   4.522  13.387 -0.3683  0.6151  0.1475
  183DOPC   H7X22521   5.414   4.461  13.360 -1.7810 -1.2607 -0.5242
  183DOPC   H7Y22522   5.359   4.627  13.374 -0.9434  0.6553 -1.2021
  183DOPC   C3822523   5.279   4.504  13.543 -0.4507 -0.0713  0.4345
  183DOPC   H8X22524   5.366   4.487  13.610 -0.1175 -0.7664 -0.1664
  183DOPC   H8Y22525   5.216   4.412  13.546  0.3121 -0.8645 -3.1308
  183DOPC   C3922526   5.202   4.622  13.588 -0.2231 -0.4349  0.7701
  183DOPC   H9X22527   5.123   4.657  13.519  0.0902 -1.1053  0.0604
  183DOPC  C31022528   5.217   4.691  13.706  0.3356  0.2005 -0.4736
  183DOPC  H10X22529   5.134   4.753  13.745  1.9593  1.6368  0.8183
  183DOPC  C31122530   5.318   4.660  13.813 -0.7538 -0.1440  0.3479
  183DOPC  H11X22531   5.401   4.735  13.815  2.8506 -3.7894  0.7544
  183DOPC  H11Y22532   5.372   4.566  13.790 -0.6241 -0.4535  1.8658
  183DOPC  C31222533   5.253   4.661  13.950 -0.4882  0.4106 -0.6719
  183DOPC  H12X22534   5.180   4.578  13.945 -0.0550 -0.1512  1.4729
  183DOPC  H12Y22535   5.202   4.758  13.967 -0.9149  0.0066  0.4630
  183DOPC  C31322536   5.355   4.619  14.067  0.1069 -0.0924  0.7679
  183DOPC  H13X22537   5.406   4.525  14.037  1.0182  0.5441  0.2646
  183DOPC  H13Y22538   5.427   4.703  14.078  1.2888 -1.4037  4.2068
  183DOPC  C31422539   5.275   4.603  14.196  0.4369  0.1121 -0.2406
  183DOPC  H14X22540   5.205   4.688  14.208  0.1029 -0.2835  0.7256
  183DOPC  H14Y22541   5.216   4.510  14.186  0.7234  0.0746 -1.7210
  183DOPC  C31522542   5.379   4.581  14.312  0.9267  0.1266 -0.8682
  183DOPC  H15X22543   5.437   4.672  14.338  0.3103 -0.2078  1.9476
  183DOPC  H15Y22544   5.449   4.496  14.296 -0.5781 -0.9299 -2.0185
  183DOPC  C31622545   5.307   4.567  14.449  0.2450 -0.8581  0.2488
  183DOPC  H16X22546   5.252   4.662  14.466  0.5730 -0.6999  0.4359
  183DOPC  H16Y22547   5.224   4.493  14.445 -0.2318 -0.2732 -0.9953
  183DOPC  C31722548   5.400   4.527  14.559 -0.5321 -0.4846 -0.2068
  183DOPC  H17X22549   5.503   4.513  14.522  0.5104 -2.2801  2.9844
  183DOPC  H17Y22550   5.401   4.615  14.626 -1.2161  0.1379 -0.9897
  183DOPC  C31822551   5.356   4.401  14.631 -0.3783  0.5626  1.0697
  183DOPC  H18X22552   5.324   4.325  14.557  0.2627  0.4299  0.9170
  183DOPC  H18Y22553   5.440   4.347  14.681  0.7624  0.8807 -0.4262
  183DOPC  H18Z22554   5.268   4.416  14.697 -0.0096 -0.3282  1.7985
  184DOPC     N22555   4.043   1.222  12.237  0.2490  0.0822 -0.0034
  184DOPC   C1222556   4.080   1.289  12.364 -0.2309 -0.0787 -0.1472
  184DOPC  H12A22557   4.084   1.396  12.349 -3.5637  0.2047  0.1204
  184DOPC  H12B22558   4.172   1.245  12.398  0.4731  2.4561  1.4542
  184DOPC   C1322559   4.024   1.079  12.263 -0.7523 -0.2277  0.3567
  184DOPC  H13A22560   3.963   1.058  12.350  0.0652 -0.6135  0.8554
  184DOPC  H13B22561   3.981   1.030  12.178 -0.0576 -1.5243  0.7251
  184DOPC  H13C22562   4.114   1.026  12.289 -0.6176  0.8003  2.2251
  184DOPC   C1422563   4.152   1.237  12.143 -0.1010  0.1035 -0.2382
  184DOPC  H14A22564   4.247   1.205  12.184 -0.0074 -0.1454 -0.6497
  184DOPC  H14B22565   4.126   1.186  12.052  1.9075 -1.7690  0.1545
  184DOPC  H14C22566   4.168   1.340  12.113 -0.2802 -0.3789 -2.0989
  184DOPC   C1522567   3.918   1.273  12.169  0.0425  0.2214  0.1313
  184DOPC  H15A22568   3.912   1.233  12.069  0.5872  3.0357 -1.1182
  184DOPC  H15B22569   3.921   1.381  12.165 -1.4945  0.2489 -1.6349
  184DOPC  H15C22570   3.833   1.243  12.227  0.6257 -1.0357  0.3631
  184DOPC   C1122571   3.984   1.281  12.486  0.4147  0.0305 -0.5145
  184DOPC  H11A22572   3.960   1.176  12.514  1.6684 -0.7139 -2.1017
  184DOPC  H11B22573   4.030   1.311  12.583  1.5902  1.7947 -1.5428
  184DOPC     P22574   3.849   1.506  12.481 -0.2014 -0.0223 -0.2886
  184DOPC   O1322575   3.706   1.549  12.504 -0.2804 -0.6064 -0.0999
  184DOPC   O1422576   3.919   1.561  12.362  0.0117  0.9553  0.0505
  184DOPC   O1222577   3.860   1.346  12.468 -0.0657 -0.7784  1.1475
  184DOPC   O1122578   3.925   1.539  12.617 -0.0879 -0.9986  0.3586
  184DOPC    C122579   4.058   1.588  12.606  0.1567 -0.5089  0.2361
  184DOPC    HA22580   4.061   1.695  12.575 -2.6443  0.2190  2.0659
  184DOPC    HB22581   4.122   1.529  12.537 -0.5224  0.5865 -1.3781
  184DOPC    C222582   4.125   1.579  12.750 -0.3620 -0.2507  0.4997
  184DOPC    HS22583   4.123   1.471  12.777 -2.3378 -0.4471 -0.2664
  184DOPC   O2122584   4.045   1.665  12.834 -0.3002 -0.0649 -0.4655
  184DOPC   C2122585   3.995   1.615  12.944  0.8876  0.7419  0.6865
  184DOPC   O2222586   3.987   1.495  12.969 -0.1922 -0.3109  0.2943
  184DOPC   C2222587   3.946   1.728  13.033 -0.7312  0.3430  0.1210
  184DOPC   H2R22588   3.866   1.780  12.975 -0.4660 -1.5932 -2.1406
  184DOPC   H2S22589   4.021   1.807  13.053 -0.2386  0.2633 -1.3005
  184DOPC    C322590   4.269   1.634  12.749 -0.3101 -0.3275 -0.0949
  184DOPC    HX22591   4.265   1.732  12.696  0.6983  0.5996  1.4765
  184DOPC    HY22592   4.336   1.572  12.685  1.2311  1.3515 -0.1846
  184DOPC   O3122593   4.329   1.632  12.884  0.2718 -0.7544  1.1126
  184DOPC   C3122594   4.439   1.712  12.886 -0.1465  0.5901 -0.5258
  184DOPC   O3222595   4.473   1.775  12.790  0.2099 -0.0301 -0.3148
  184DOPC   C3222596   4.513   1.714  13.019 -0.3848  0.3681  0.3273
  184DOPC   H2X22597   4.456   1.769  13.097  0.3696 -1.3427  2.1788
  184DOPC   H2Y22598   4.526   1.613  13.063  0.9793  0.1955 -0.4427
  184DOPC   C2322599   3.886   1.678  13.163  0.1990 -0.3573 -0.3819
  184DOPC   H3R22600   3.954   1.614  13.223 -1.5544 -1.5629  0.4161
  184DOPC   H3S22601   3.793   1.624  13.135  0.7158 -2.7720  2.1003
  184DOPC   C2422602   3.853   1.796  13.263 -0.0424  0.3191  0.2124
  184DOPC   H4R22603   3.764   1.782  13.328 -0.3152  2.1847  0.2868
  184DOPC   H4S22604   3.816   1.872  13.192  0.4072 -0.6538 -1.1158
  184DOPC   C2522605   3.977   1.850  13.336  0.4586  0.2446 -0.3123
  184DOPC   H5R22606   3.958   1.959  13.336  0.3013  0.2209  0.8047
  184DOPC   H5S22607   4.070   1.837  13.276 -0.1590  0.5909 -1.3794
  184DOPC   C2622608   3.996   1.778  13.470  0.6544  0.0858 -0.4698
  184DOPC   H6R22609   4.024   1.673  13.448 -0.0235  0.1459 -1.7141
  184DOPC   H6S22610   3.902   1.788  13.527  1.5264  2.7320  0.6794
  184DOPC   C2722611   4.104   1.848  13.552 -0.1439  0.2665  0.4997
  184DOPC   H7R22612   4.071   1.951  13.577  0.2951  0.1617  1.5775
  184DOPC   H7S22613   4.199   1.850  13.493  0.1374 -3.1117  0.6187
  184DOPC   C2822614   4.122   1.761  13.684 -0.2061  0.0638 -0.2475
  184DOPC   H8R22615   4.194   1.824  13.741 -2.1303  1.4262  0.7940
  184DOPC   H8S22616   4.169   1.661  13.671 -1.1829 -0.6759  1.5515
  184DOPC   C2922617   4.006   1.753  13.772 -0.2107 -0.7935  0.8474
  184DOPC   H9R22618   3.912   1.719  13.727  0.3022  0.5703 -1.4333
  184DOPC  C21022619   3.995   1.802  13.896  0.2855 -0.5840 -0.6974
  184DOPC  H10R22620   3.913   1.752  13.950  0.2492  0.7728  0.5692
  184DOPC  C21122621   4.096   1.885  13.964  0.1841 -0.4778 -0.0156
  184DOPC  H11R22622   4.113   1.980  13.909 -2.3313  0.1677  0.2165
  184DOPC  H11S22623   4.189   1.824  13.972  0.3896 -0.5845 -2.5002
  184DOPC  C21222624   4.062   1.928  14.103 -0.3482 -0.0580 -0.8074
  184DOPC  H12R22625   3.969   1.989  14.101  0.5992  1.4891  0.0422
  184DOPC  H12S22626   4.142   1.996  14.139 -1.7636  1.2718 -0.0707
  184DOPC  C21322627   4.048   1.815  14.202  0.0916  0.0919 -0.2336
  184DOPC  H13R22628   4.142   1.756  14.203 -1.0078 -1.7324 -0.1869
  184DOPC  H13S22629   3.961   1.753  14.174  0.8175 -1.9552  1.7682
  184DOPC  C21422630   4.026   1.864  14.348  0.3655 -0.2358  0.0462
  184DOPC  H14R22631   3.923   1.904  14.339  0.5966 -0.1032 -3.0542
  184DOPC  H14S22632   4.103   1.943  14.359  0.6164 -0.4815  0.0479
  184DOPC  C21522633   4.023   1.757  14.456  0.2693  0.5759 -0.7752
  184DOPC  H15R22634   4.122   1.706  14.458  0.4337  0.8663  1.4457
  184DOPC  H15S22635   3.945   1.679  14.446  0.3094  0.4548 -0.1941
  184DOPC  C21622636   3.978   1.828  14.585 -0.6297 -1.0835 -0.7896
  184DOPC  H16R22637   3.868   1.840  14.596 -0.4091 -0.0245  0.5465
  184DOPC  H16S22638   4.015   1.933  14.595 -1.1008 -0.9123 -0.8268
  184DOPC  C21722639   4.022   1.745  14.707  0.1660 -0.0838 -0.1319
  184DOPC  H17R22640   4.132   1.738  14.711  0.2460  0.8712 -0.3999
  184DOPC  H17S22641   3.973   1.645  14.707  1.3791 -0.7186 -1.5853
  184DOPC  C21822642   3.976   1.815  14.834  0.0515 -0.0034 -0.6981
  184DOPC  H18R22643   3.872   1.853  14.818 -0.1504 -0.2305  0.0488
  184DOPC  H18S22644   4.039   1.904  14.856 -0.4883  0.6335 -1.6397
  184DOPC  H18T22645   3.980   1.748  14.922 -0.4928  1.8690  0.8385
  184DOPC   C3322646   4.647   1.785  13.006 -0.4073 -0.4484  0.2474
  184DOPC   H3X22647   4.622   1.879  12.953 -2.5058 -1.5630 -0.8899
  184DOPC   H3Y22648   4.714   1.726  12.941 -0.0225 -0.0623  0.2937
  184DOPC   C3422649   4.720   1.816  13.137 -0.0359  0.0170  0.3647
  184DOPC   H4X22650   4.649   1.865  13.207 -0.3793 -0.8194  0.6083
  184DOPC   H4Y22651   4.816   1.867  13.113  1.6787 -3.4507 -0.7405
  184DOPC   C3522652   4.761   1.686  13.211  0.2130 -0.1746  0.0420
  184DOPC   H5X22653   4.823   1.618  13.148 -1.3309 -1.5801 -0.0176
  184DOPC   H5Y22654   4.672   1.627  13.242 -0.5652  0.1141 -1.5242
  184DOPC   C3622655   4.854   1.736  13.323 -0.4558  0.4870  0.9116
  184DOPC   H6X22656   4.943   1.786  13.277  0.0120 -1.6229 -0.6459
  184DOPC   H6Y22657   4.801   1.815  13.379 -0.7660  0.3037  0.8766
  184DOPC   C3722658   4.888   1.637  13.430 -0.3307 -0.2966 -0.1145
  184DOPC   H7X22659   4.805   1.580  13.477  0.5836 -0.1943  1.7517
  184DOPC   H7Y22660   4.952   1.560  13.381 -0.2942 -0.5246  0.2873
  184DOPC   C3822661   4.964   1.705  13.547 -0.3271  0.1130  0.0838
  184DOPC   H8X22662   5.050   1.765  13.510 -1.3055  1.5754  0.0910
  184DOPC   H8Y22663   5.005   1.624  13.610 -1.1799 -1.1133 -0.8850
  184DOPC   C3922664   4.884   1.790  13.639  0.4517  0.0930  0.3762
  184DOPC   H9X22665   4.850   1.885  13.594 -1.1063  0.2912  1.8733
  184DOPC  C31022666   4.827   1.746  13.748  0.0639 -0.3085  0.5268
  184DOPC  H10X22667   4.765   1.819  13.804  2.2935  1.0075  1.4116
  184DOPC  C31122668   4.836   1.610  13.812 -0.6969  0.4945 -0.5819
  184DOPC  H11X22669   4.884   1.536  13.743 -0.5207  1.6583 -1.7455
  184DOPC  H11Y22670   4.733   1.569  13.819 -0.9445  1.3373  0.9818
  184DOPC  C31222671   4.887   1.612  13.957 -0.7850  0.6007 -0.1541
  184DOPC  H12X22672   4.986   1.660  13.964 -0.6608  0.2264  0.9528
  184DOPC  H12Y22673   4.896   1.505  13.987 -2.1790  0.7765  1.0381
  184DOPC  C31322674   4.798   1.672  14.059  0.1188  0.4346 -0.2236
  184DOPC  H13X22675   4.798   1.783  14.046 -3.0406  0.5559 -0.0964
  184DOPC  H13Y22676   4.694   1.635  14.044  0.3361 -0.8368  1.2534
  184DOPC  C31422677   4.846   1.634  14.206 -0.2525 -0.3834 -0.0365
  184DOPC  H14X22678   4.860   1.523  14.206 -2.7195 -0.7621 -0.5526
  184DOPC  H14Y22679   4.939   1.691  14.227 -1.1127  0.6522  1.0569
  184DOPC  C31522680   4.751   1.661  14.324 -0.6369  1.0397  0.5898
  184DOPC  H15X22681   4.668   1.587  14.314  2.1712 -2.5847  1.9258
  184DOPC  H15Y22682   4.711   1.764  14.330  2.1107  2.1941  0.5047
  184DOPC  C31622683   4.819   1.638  14.467  0.7549 -0.2581  0.1924
  184DOPC  H16X22684   4.847   1.531  14.474  0.9295 -0.2469 -0.2678
  184DOPC  H16Y22685   4.907   1.706  14.464  1.3499 -0.9503  1.2730
  184DOPC  C31722686   4.721   1.675  14.585 -0.1246 -0.0120  0.1277
  184DOPC  H17X22687   4.678   1.777  14.578 -0.5214 -0.2529 -1.2894
  184DOPC  H17Y22688   4.629   1.613  14.582 -0.1469  0.0447 -1.0967
  184DOPC  C31822689   4.779   1.661  14.731  0.0261 -0.3479 -0.0088
  184DOPC  H18X22690   4.824   1.560  14.742  0.8731 -0.1376 -1.3380
  184DOPC  H18Y22691   4.858   1.738  14.748  0.1205 -0.1112 -1.4557
  184DOPC  H18Z22692   4.695   1.664  14.804  0.1841 -1.3168  0.2304
  185DOPC     N22693   5.809   5.741  12.489 -0.0609 -0.2593  0.2297
  185DOPC   C1222694   5.731   5.629  12.559 -0.5878 -0.6742 -0.1693
  185DOPC  H12A22695   5.791   5.575  12.631 -2.3722 -2.1969  0.2802
  185DOPC  H12B22696   5.699   5.561  12.481 -1.8060 -0.5413  0.1963
  185DOPC   C1322697   5.836   5.861  12.568 -0.1386 -0.0071  0.4593
  185DOPC  H13A22698   5.891   5.841  12.658  1.9137  0.5786 -0.6079
  185DOPC  H13B22699   5.890   5.939  12.517  1.4113  0.1303  2.1916
  185DOPC  H13C22700   5.743   5.908  12.595  0.2737  0.4274  1.1512
  185DOPC   C1422701   5.747   5.797  12.365 -0.6313  0.3550  0.1368
  185DOPC  H14A22702   5.653   5.850  12.376  0.3878  2.1933  0.4527
  185DOPC  H14B22703   5.815   5.862  12.312  0.2443 -2.7730 -2.9407
  185DOPC  H14C22704   5.724   5.716  12.298  0.8908  0.6355 -0.7780
  185DOPC   C1522705   5.948   5.691  12.454 -0.8322  0.2362  0.1119
  185DOPC  H15A22706   6.004   5.671  12.544 -1.7559 -0.6305  0.5179
  185DOPC  H15B22707   6.002   5.759  12.390 -0.0223  0.2508  0.7992
  185DOPC  H15C22708   5.934   5.601  12.396  1.6742  0.6621 -1.3034
  185DOPC   C1122709   5.599   5.672  12.629 -0.2448 -0.0573  0.5151
  185DOPC  H11A22710   5.572   5.589  12.698 -2.1850 -0.4905 -0.6869
  185DOPC  H11B22711   5.623   5.760  12.693  0.3862 -0.2190  0.5033
  185DOPC     P22712   5.413   5.605  12.456 -0.2542  0.1113 -0.0208
  185DOPC   O1322713   5.494   5.488  12.425 -0.2518  0.5821  0.1077
  185DOPC   O1422714   5.351   5.671  12.338  0.1651  0.0560 -0.4337
  185DOPC   O1222715   5.493   5.710  12.540  0.1612 -0.5024 -0.2443
  185DOPC   O1122716   5.303   5.559  12.561 -0.3363 -0.2839 -0.2391
  185DOPC    C122717   5.237   5.663  12.640  0.0569  0.0188  0.3233
  185DOPC    HA22718   5.127   5.648  12.635  0.3567 -2.0931 -1.2225
  185DOPC    HB22719   5.259   5.765  12.602 -2.2771  0.9508  1.3070
  185DOPC    C222720   5.281   5.671  12.794  0.0845  0.3039  0.0914
  185DOPC    HS22721   5.392   5.666  12.797  0.0525 -0.3634  0.1390
  185DOPC   O2122722   5.219   5.563  12.872  0.6614  0.2275 -0.2180
  185DOPC   C2122723   5.299   5.503  12.953  0.0912 -0.5887 -0.4999
  185DOPC   O2222724   5.416   5.539  12.970 -0.0004  0.3368 -0.2563
  185DOPC   C2222725   5.221   5.404  13.041 -0.1564  0.1041 -0.2223
  185DOPC   H2R22726   5.226   5.307  12.988 -1.2715 -1.7905  2.8688
  185DOPC   H2S22727   5.116   5.442  13.047 -1.5105 -3.1794 -0.7567
  185DOPC    C322728   5.233   5.802  12.853  0.7336 -0.5291  0.0987
  185DOPC    HX22729   5.122   5.806  12.857  0.7544  1.1770 -0.3163
  185DOPC    HY22730   5.271   5.884  12.788 -0.1635 -1.8580 -2.2373
  185DOPC   O3122731   5.275   5.813  12.990  0.2661 -0.0298  0.2301
  185DOPC   C3122732   5.392   5.874  13.019 -0.0103 -0.1111  0.8394
  185DOPC   O3222733   5.457   5.928  12.927 -0.0429  0.7211 -0.6962
  185DOPC   C3222734   5.405   5.872  13.169 -0.1632 -0.2047 -0.4419
  185DOPC   H2X22735   5.416   5.765  13.197 -1.0385 -0.2052 -0.0439
  185DOPC   H2Y22736   5.494   5.934  13.191  0.5271 -0.9105 -1.1861
  185DOPC   C2322737   5.272   5.402  13.189 -0.4040  0.0416 -0.2332
  185DOPC   H3R22738   5.383   5.396  13.193 -0.1850  2.8344  0.2263
  185DOPC   H3S22739   5.223   5.318  13.242 -0.8034  0.9586  0.9018
  185DOPC   C2422740   5.216   5.522  13.268  0.3647 -0.5958  0.9283
  185DOPC   H4R22741   5.114   5.543  13.231 -0.2674  1.6173  3.5758
  185DOPC   H4S22742   5.277   5.612  13.247 -2.3621  0.6667 -2.2815
  185DOPC   C2522743   5.193   5.502  13.413  0.9592  0.2368  0.7418
  185DOPC   H5R22744   5.132   5.415  13.446 -0.9622  1.4006  0.4298
  185DOPC   H5S22745   5.145   5.596  13.448  0.9290  0.6340 -0.3549
  185DOPC   C2622746   5.322   5.480  13.498  1.0558 -0.4314  0.1740
  185DOPC   H6R22747   5.396   5.562  13.490  0.6422 -0.0507  0.2217
  185DOPC   H6S22748   5.369   5.386  13.463  1.3234 -0.1976 -0.0965
  185DOPC   C2722749   5.301   5.449  13.645  0.6606 -0.3469 -0.0805
  185DOPC   H7R22750   5.392   5.411  13.696 -1.5372 -2.5779  2.4974
  185DOPC   H7S22751   5.223   5.369  13.645 -1.9043  1.8318 -3.7466
  185DOPC   C2822752   5.244   5.572  13.725  0.1518  0.4840 -0.8442
  185DOPC   H8R22753   5.206   5.541  13.824 -2.7893 -0.9218 -2.2975
  185DOPC   H8S22754   5.152   5.602  13.671 -0.0594  0.2207 -0.6303
  185DOPC   C2922755   5.354   5.666  13.732 -0.1011  0.0766  0.4216
  185DOPC   H9R22756   5.378   5.717  13.638 -0.9985 -0.6775 -0.2326
  185DOPC  C21022757   5.425   5.700  13.843  0.2056  0.0535 -0.3003
  185DOPC  H10R22758   5.501   5.779  13.837  2.0984 -1.7008 -0.6361
  185DOPC  C21122759   5.372   5.671  13.987 -0.0182  0.8649  0.7530
  185DOPC  H11R22760   5.288   5.601  14.005 -1.0223  2.0646  0.8846
  185DOPC  H11S22761   5.350   5.770  14.033  0.9306  1.0092  0.9273
  185DOPC  C21222762   5.491   5.620  14.066  0.5170 -0.0549  0.6175
  185DOPC  H12R22763   5.482   5.640  14.175 -1.2810 -0.5054  0.5816
  185DOPC  H12S22764   5.583   5.678  14.042  2.0718 -1.6814  2.3940
  185DOPC  C21322765   5.540   5.476  14.045 -0.1138  0.5630 -0.4645
  185DOPC  H13R22766   5.558   5.461  13.936 -0.4599 -3.8779 -0.0553
  185DOPC  H13S22767   5.461   5.401  14.064 -2.2852  1.8672 -3.4607
  185DOPC  C21422768   5.665   5.439  14.133  0.2934  0.7525 -0.4341
  185DOPC  H14R22769   5.753   5.507  14.123  0.5118  0.6918  0.7967
  185DOPC  H14S22770   5.702   5.346  14.084 -1.0955  0.2900 -0.6391
  185DOPC  C21522771   5.620   5.405  14.285  0.2378 -0.2120 -0.1524
  185DOPC  H15R22772   5.514   5.371  14.281 -0.1780  0.2983  3.4234
  185DOPC  H15S22773   5.620   5.494  14.351  0.1317 -2.6236  3.4302
  185DOPC  C21622774   5.695   5.280  14.348  0.4262 -0.0207  0.2712
  185DOPC  H16R22775   5.800   5.313  14.348 -0.5690  3.6282 -1.4628
  185DOPC  H16S22776   5.687   5.185  14.291  0.0163  0.3619 -0.3226
  185DOPC  C21722777   5.651   5.251  14.492  0.2161 -0.4628  0.2091
  185DOPC  H17R22778   5.545   5.219  14.490 -0.1406  0.6822 -0.7590
  185DOPC  H17S22779   5.661   5.349  14.544 -0.9169  1.0733 -2.2426
  185DOPC  C21822780   5.724   5.145  14.572 -0.0531  0.8410  0.0565
  185DOPC  H18R22781   5.694   5.143  14.679  0.2163  0.2344  0.1247
  185DOPC  H18S22782   5.834   5.159  14.564 -0.0854  0.5902 -1.0652
  185DOPC  H18T22783   5.706   5.042  14.535 -1.5687  2.0869 -3.0020
  185DOPC   C3322784   5.283   5.928  13.249  0.6962 -0.4903 -0.0889
  185DOPC   H3X22785   5.184   5.879  13.235  0.5162 -0.0851 -0.2489
  185DOPC   H3Y22786   5.258   6.033  13.222 -2.0769 -1.1044 -0.2024
  185DOPC   C3422787   5.305   5.924  13.401  0.2701 -0.1348 -0.1069
  185DOPC   H4X22788   5.399   5.976  13.430 -0.6077  1.4812 -0.0358
  185DOPC   H4Y22789   5.326   5.818  13.425 -0.7217 -0.1962  0.5272
  185DOPC   C3522790   5.188   5.977  13.487 -0.0237  0.3085 -0.0501
  185DOPC   H5X22791   5.216   5.946  13.589 -0.7808  0.0089  0.0744
  185DOPC   H5Y22792   5.102   5.910  13.466 -0.3086  0.8153 -0.5413
  185DOPC   C3622793   5.167   6.127  13.486 -0.1517 -0.4108  0.0757
  185DOPC   H6X22794   5.255   6.178  13.530 -1.3978  1.1305  0.9007
  185DOPC   H6Y22795   5.143   6.175  13.388  0.4259  0.2479  0.2521
  185DOPC   C3722796   5.048   6.172  13.568 -0.4502  0.3725 -0.8401
  185DOPC   H7X22797   5.043   6.283  13.573 -2.6461  0.2596  0.8817
  185DOPC   H7Y22798   4.953   6.127  13.533 -0.2346 -2.8447  2.1710
  185DOPC   C3822799   5.055   6.116  13.718 -0.0087  0.2174 -0.0546
  185DOPC   H8X22800   5.161   6.134  13.746  0.4837 -0.7932 -1.1662
  185DOPC   H8Y22801   5.025   6.009  13.713 -3.3043  1.0469  0.2791
  185DOPC   C3922802   4.958   6.171  13.814 -0.0256 -0.3568 -0.2311
  185DOPC   H9X22803   4.853   6.150  13.787 -0.5429 -1.1737  2.1624
  185DOPC  C31022804   4.987   6.223  13.937 -0.3219  0.0257  0.7166
  185DOPC  H10X22805   4.907   6.278  13.989  0.7688  0.6036  1.8123
  185DOPC  C31122806   5.126   6.227  14.002  0.1519  0.6991 -0.4180
  185DOPC  H11X22807   5.192   6.297  13.947  0.6406 -0.3830 -1.2466
  185DOPC  H11Y22808   5.169   6.125  13.991  0.9956  0.9215  0.6930
  185DOPC  C31222809   5.110   6.264  14.149 -0.1597  0.4634 -0.1905
  185DOPC  H12X22810   5.042   6.207  14.216 -2.3170  2.2711 -0.7417
  185DOPC  H12Y22811   5.074   6.369  14.149 -0.9523  0.1979  0.0935
  185DOPC  C31322812   5.237   6.265  14.233 -0.0291 -0.2162  0.1206
  185DOPC  H13X22813   5.282   6.164  14.221 -0.2814 -0.5061  1.4236
  185DOPC  H13Y22814   5.318   6.329  14.191  1.8072 -1.5523  1.4708
  185DOPC  C31422815   5.210   6.274  14.382 -0.3952 -0.3392 -0.3034
  185DOPC  H14X22816   5.158   6.368  14.410  1.2290  0.1335  1.3158
  185DOPC  H14Y22817   5.145   6.191  14.415 -1.5022  0.4319 -0.4997
  185DOPC  C31522818   5.343   6.265  14.467  0.4825 -0.5081 -0.3782
  185DOPC  H15X22819   5.414   6.341  14.428  1.3588 -1.8285 -1.4306
  185DOPC  H15Y22820   5.393   6.166  14.463 -3.1791 -2.6813  1.7018
  185DOPC  C31622821   5.314   6.292  14.618 -0.2859 -0.4434 -0.1969
  185DOPC  H16X22822   5.269   6.392  14.636 -0.9025 -1.2279  3.6847
  185DOPC  H16Y22823   5.232   6.220  14.641  0.3496 -1.5703 -1.3649
  185DOPC  C31722824   5.426   6.244  14.714  0.4623 -0.2228 -0.4785
  185DOPC  H17X22825   5.391   6.148  14.757 -2.2286  0.9386  0.1784
  185DOPC  H17Y22826   5.521   6.223  14.660 -0.7291  0.8637 -3.2123
  185DOPC  C31822827   5.456   6.344  14.825  0.8937 -0.0485 -0.2513
  185DOPC  H18X22828   5.505   6.440  14.798  0.2899 -0.2561 -2.2130
  185DOPC  H18Y22829   5.370   6.379  14.886  2.3636  2.4759  0.5602
  185DOPC  H18Z22830   5.536   6.304  14.891  2.2172  1.7491 -0.6604
  186DOPC     N22831   6.249   3.245  12.422  0.7857  0.1101 -0.3749
  186DOPC   C1222832   6.188   3.171  12.539 -0.7083  0.9475 -0.5303
  186DOPC  H12A22833   6.097   3.132  12.495 -0.0128 -0.6182 -0.6240
  186DOPC  H12B22834   6.167   3.234  12.624 -0.9730 -2.1671  1.9148
  186DOPC   C1322835   6.140   3.316  12.344 -0.2959  0.4717  0.5441
  186DOPC  H13A22836   6.187   3.368  12.261 -2.8786  4.1363  1.1395
  186DOPC  H13B22837   6.066   3.243  12.317 -1.5266  0.7731  2.8933
  186DOPC  H13C22838   6.096   3.396  12.401  0.8663  0.7975  1.0304
  186DOPC   C1422839   6.321   3.144  12.340 -0.4532  0.7562  0.3641
  186DOPC  H14A22840   6.397   3.089  12.393 -1.2697 -0.5425  0.2249
  186DOPC  H14B22841   6.255   3.069  12.300  0.2977  0.2400  0.0658
  186DOPC  H14C22842   6.365   3.200  12.258 -0.1002 -0.8567 -0.6009
  186DOPC   C1522843   6.350   3.343  12.472 -0.5573 -0.8095 -0.6470
  186DOPC  H15A22844   6.419   3.295  12.540 -0.0482 -1.2145 -1.4460
  186DOPC  H15B22845   6.294   3.425  12.515  1.9132  0.0794  1.1350
  186DOPC  H15C22846   6.412   3.387  12.395 -0.3554  1.7682  0.8605
  186DOPC   C1122847   6.275   3.058  12.613 -0.0044 -0.8446 -0.0858
  186DOPC  H11A22848   6.375   3.107  12.612 -0.6169  0.5070  1.3915
  186DOPC  H11B22849   6.249   3.041  12.720  1.8334  0.4724  0.6261
  186DOPC     P22850   6.134   2.861  12.548 -0.1171  0.3001  0.4867
  186DOPC   O1322851   6.147   2.724  12.493 -0.1153 -0.4714 -0.5860
  186DOPC   O1422852   6.022   2.939  12.492 -0.1884 -0.3224  0.9279
  186DOPC   O1222853   6.269   2.933  12.543 -0.0456 -0.5746 -0.1275
  186DOPC   O1122854   6.098   2.841  12.704  0.2773  0.2507 -0.0839
  186DOPC    C122855   6.195   2.777  12.787  0.3495 -0.6990  0.0859
  186DOPC    HA22856   6.297   2.821  12.778  0.4267 -1.2092 -1.9184
  186DOPC    HB22857   6.207   2.671  12.757 -0.9980 -0.3474 -1.9223
  186DOPC    C222858   6.160   2.786  12.937 -0.2946  0.6240 -0.1657
  186DOPC    HS22859   6.215   2.704  12.987  0.0085 -1.3687 -3.4681
  186DOPC   O2122860   6.017   2.756  12.962  0.1359 -0.1453  0.0632
  186DOPC   C2122861   5.972   2.637  12.935 -0.1152 -0.7414 -0.1445
  186DOPC   O2222862   6.039   2.532  12.930 -0.4934  0.0028  0.3620
  186DOPC   C2222863   5.824   2.653  12.899 -0.0344 -0.1470  0.1010
  186DOPC   H2R22864   5.786   2.553  12.869  2.8519 -1.0134 -1.0571
  186DOPC   H2S22865   5.836   2.729  12.819  0.8629  1.5108  1.7188
  186DOPC    C322866   6.185   2.926  12.991 -0.0638  0.0726  0.4624
  186DOPC    HX22867   6.118   2.984  12.923 -1.4170 -2.0719 -0.1500
  186DOPC    HY22868   6.294   2.945  12.996 -0.1385  0.3155  1.2578
  186DOPC   O3122869   6.133   2.941  13.119 -0.1617 -0.2069  0.1430
  186DOPC   C3122870   6.011   2.999  13.137  0.4387 -0.4486 -0.4662
  186DOPC   O3222871   5.938   3.052  13.053 -0.9721  0.0011 -0.5861
  186DOPC   C3222872   5.967   2.997  13.286 -0.6630 -0.0555  0.6737
  186DOPC   H2X22873   6.049   3.052  13.336 -1.3525  2.2071 -0.5446
  186DOPC   H2Y22874   5.874   3.056  13.302 -1.9978 -1.7851 -0.2453
  186DOPC   C2322875   5.735   2.717  13.010  0.6129  0.3473 -0.1109
  186DOPC   H3R22876   5.638   2.742  12.962  0.2155  1.3926  1.1779
  186DOPC   H3S22877   5.775   2.814  13.047  3.5507 -1.3830  1.5785
  186DOPC   C2422878   5.717   2.623  13.129  0.5003 -0.7071  0.5757
  186DOPC   H4R22879   5.822   2.597  13.154  0.6336 -1.1141 -0.3535
  186DOPC   H4S22880   5.664   2.528  13.104  1.1257 -1.2891  1.3721
  186DOPC   C2522881   5.635   2.696  13.238 -0.3654  0.5710  0.5868
  186DOPC   H5R22882   5.526   2.707  13.219 -0.4450  2.2113  1.8047
  186DOPC   H5S22883   5.665   2.801  13.252 -3.2068  1.4023  1.2090
  186DOPC   C2622884   5.648   2.634  13.376 -0.2740 -0.0989 -0.2683
  186DOPC   H6R22885   5.756   2.613  13.396 -0.6500 -1.0035  1.0358
  186DOPC   H6S22886   5.592   2.538  13.375 -0.1261 -0.2585  1.8132
  186DOPC   C2722887   5.576   2.714  13.487  0.0088  0.3820  0.0797
  186DOPC   H7R22888   5.476   2.747  13.451  0.2703  1.1516  0.0470
  186DOPC   H7S22889   5.629   2.807  13.516  0.4946 -0.1750  1.0410
  186DOPC   C2822890   5.564   2.639  13.618 -0.6153 -0.4751  0.1068
  186DOPC   H8R22891   5.550   2.531  13.597  0.6113 -0.7937  0.8070
  186DOPC   H8S22892   5.471   2.682  13.661 -0.1907 -0.0732  0.6426
  186DOPC   C2922893   5.685   2.644  13.717 -0.1827  0.0046  0.2157
  186DOPC   H9R22894   5.789   2.622  13.691  0.5310  1.8592  1.3192
  186DOPC  C21022895   5.668   2.694  13.838 -0.0414 -0.0657 -0.2897
  186DOPC  H10R22896   5.758   2.704  13.901  1.0434  0.7541 -1.9133
  186DOPC  C21122897   5.551   2.744  13.920  0.8254  0.0151  0.0517
  186DOPC  H11R22898   5.457   2.747  13.861  0.3842 -1.5699  0.6151
  186DOPC  H11S22899   5.577   2.850  13.940  1.4733 -0.6022  3.0196
  186DOPC  C21222900   5.527   2.681  14.058 -0.1674  0.5006  0.1289
  186DOPC  H12R22901   5.530   2.570  14.067 -3.3851  0.1433 -1.8450
  186DOPC  H12S22902   5.418   2.696  14.072 -0.2043  0.0502  0.3535
  186DOPC  C21322903   5.620   2.732  14.169  0.2922  0.0726  0.2961
  186DOPC  H13R22904   5.613   2.843  14.171  0.2180  0.0630  1.2485
  186DOPC  H13S22905   5.730   2.715  14.167  0.0603 -1.9720  1.7930
  186DOPC  C21422906   5.564   2.696  14.307 -0.9279 -0.2839 -0.3777
  186DOPC  H14R22907   5.591   2.591  14.332 -1.7439 -0.4410 -0.0952
  186DOPC  H14S22908   5.453   2.696  14.313 -0.8883  0.6811  0.7748
  186DOPC  C21522909   5.634   2.777  14.424  0.5518  0.1735 -0.1176
  186DOPC  H15R22910   5.622   2.886  14.404  2.6252  0.0677 -2.5079
  186DOPC  H15S22911   5.740   2.747  14.414 -0.1122 -2.4654  0.0659
  186DOPC  C21622912   5.592   2.726  14.566 -0.6669  0.1743  0.2459
  186DOPC  H16R22913   5.625   2.621  14.579 -0.5369  0.2438  0.4887
  186DOPC  H16S22914   5.482   2.718  14.566 -0.6901 -1.2944 -3.3017
  186DOPC  C21722915   5.640   2.814  14.678 -0.3180 -0.4929 -0.2617
  186DOPC  H17R22916   5.610   2.921  14.674  0.5708 -0.2811 -2.2426
  186DOPC  H17S22917   5.751   2.811  14.673 -0.3533  0.4115 -2.8134
  186DOPC  C21822918   5.604   2.745  14.807 -0.4104  0.0762 -0.7754
  186DOPC  H18R22919   5.633   2.804  14.896 -1.1091  1.1413 -1.2254
  186DOPC  H18S22920   5.656   2.648  14.822 -0.3852  0.3632  1.2282
  186DOPC  H18T22921   5.494   2.732  14.820 -0.1097 -0.6977  1.2613
  186DOPC   C3322922   5.953   2.854  13.347 -0.1210  0.2736  0.1489
  186DOPC   H3X22923   6.046   2.793  13.343 -0.0912  0.3285 -0.0041
  186DOPC   H3Y22924   5.886   2.783  13.295  1.4126 -1.7833  0.8415
  186DOPC   C3422925   5.897   2.853  13.491  0.0626  0.0027  0.9152
  186DOPC   H4X22926   5.876   2.749  13.524 -0.0946 -0.1813  0.2632
  186DOPC   H4Y22927   5.805   2.914  13.493 -0.4188 -0.7126  3.2141
  186DOPC   C3522928   5.991   2.914  13.593  0.4575  0.1652 -0.0667
  186DOPC   H5X22929   6.016   3.014  13.551 -0.2325  0.8404  1.0711
  186DOPC   H5Y22930   6.080   2.851  13.615 -0.5842 -1.7757 -1.1650
  186DOPC   C3622931   5.915   2.939  13.726 -0.7366 -0.4279  0.5586
  186DOPC   H6X22932   5.832   3.008  13.701  0.8201  0.9114 -1.1464
  186DOPC   H6Y22933   5.872   2.843  13.763 -1.4205 -0.2967  0.1217
  186DOPC   C3722934   6.019   2.986  13.828 -0.1687 -0.6760 -0.0106
  186DOPC   H7X22935   6.085   2.906  13.869  0.0179 -2.0113 -2.7165
  186DOPC   H7Y22936   6.081   3.064  13.779  2.2231 -0.2411  3.3222
  186DOPC   C3822937   5.952   3.062  13.944  0.7541 -0.0171  0.1669
  186DOPC   H8X22938   5.872   2.998  13.988  0.8884 -0.1853  0.1697
  186DOPC   H8Y22939   5.894   3.147  13.903  3.5662  1.8094 -0.3179
  186DOPC   C3922940   6.052   3.112  14.047 -0.4911  0.7284  0.4580
  186DOPC   H9X22941   6.142   3.167  14.015 -0.8636  0.4285 -1.2254
  186DOPC  C31022942   6.047   3.086  14.178  0.0211 -0.0530  1.0850
  186DOPC  H10X22943   6.129   3.115  14.246  0.7150  1.9171 -0.5146
  186DOPC  C31122944   5.931   3.013  14.246 -0.1190  0.3165  0.1766
  186DOPC  H11X22945   5.869   2.944  14.184  0.2752 -1.4499  1.6681
  186DOPC  H11Y22946   5.864   3.100  14.260  0.9742  1.2159 -0.0523
  186DOPC  C31222947   5.967   2.952  14.382  0.0924 -0.0357 -0.2312
  186DOPC  H12X22948   6.049   2.877  14.383  1.1644  1.0097  2.6910
  186DOPC  H12Y22949   5.883   2.899  14.431  1.9328 -0.9411  2.1780
  186DOPC  C31322950   6.014   3.057  14.492  0.7269  0.5639  0.2034
  186DOPC  H13X22951   6.107   3.110  14.462  0.0040  0.8630 -1.6359
  186DOPC  H13Y22952   5.929   3.128  14.498 -0.8625 -1.1903 -0.4721
  186DOPC  C31422953   6.020   2.993  14.632 -0.5048 -0.7060  0.2938
  186DOPC  H14X22954   5.918   2.955  14.652 -0.8960  0.7951  1.2909
  186DOPC  H14Y22955   6.093   2.909  14.635 -1.6958 -1.7673  0.2110
  186DOPC  C31522956   6.056   3.086  14.748  0.0501  0.5897  0.3315
  186DOPC  H15X22957   6.001   3.183  14.745 -1.4730 -0.1895  1.4831
  186DOPC  H15Y22958   6.165   3.107  14.743 -0.1659  1.5453 -1.7215
  186DOPC  C31622959   6.024   3.026  14.884 -0.1525  0.5248  0.5433
  186DOPC  H16X22960   6.070   2.928  14.908 -1.5307 -0.0902  0.7849
  186DOPC  H16Y22961   6.061   3.094  14.963  1.3145  1.2116 -0.6896
  186DOPC  C31722962   5.874   3.008  14.902  0.3842 -0.2521  0.0347
  186DOPC  H17X22963   5.827   3.100  14.861  0.2289  1.3185  3.4469
  186DOPC  H17Y22964   5.834   2.923  14.842  2.0389 -1.3929  0.4627
  186DOPC  C31822965   5.821   3.009  15.049 -0.3490  0.5284  0.9270
  186DOPC  H18X22966   5.713   3.033  15.044 -0.9414 -2.0714  0.0252
  186DOPC  H18Y22967   5.855   2.927  15.116  3.5706  0.4733 -0.8632
  186DOPC  H18Z22968   5.863   3.100  15.097  0.8976  1.4624 -1.7562
  187DOPC     N22969   5.842   1.986  12.477  0.1217  0.0159  0.1196
  187DOPC   C1222970   5.756   2.016  12.600  0.1893  0.1410  0.0222
  187DOPC  H12A22971   5.804   2.086  12.668  0.1489 -0.0600  0.2610
  187DOPC  H12B22972   5.741   1.926  12.658 -0.2625  0.3537  0.2432
  187DOPC   C1322973   5.983   1.954  12.509  0.0359 -0.5444  0.0883
  187DOPC  H13A22974   6.016   2.025  12.583 -3.5780  0.7135  0.6556
  187DOPC  H13B22975   5.993   1.854  12.551 -0.2446 -1.1434 -1.2132
  187DOPC  H13C22976   6.044   1.952  12.420  1.9561 -1.5657  1.3339
  187DOPC   C1422977   5.846   2.114  12.396 -0.6813  0.7432  0.2235
  187DOPC  H14A22978   5.900   2.190  12.450  0.5563 -0.2255  0.4013
  187DOPC  H14B22979   5.896   2.104  12.301 -2.3188  0.1809 -0.6356
  187DOPC  H14C22980   5.755   2.156  12.354  1.8482  3.9460 -2.6104
  187DOPC   C1522981   5.788   1.872  12.398  0.0870 -1.0815 -0.2932
  187DOPC  H15A22982   5.684   1.879  12.369  0.2610 -2.3278 -1.2747
  187DOPC  H15B22983   5.797   1.779  12.452  0.7688  0.1105  1.7632
  187DOPC  H15C22984   5.850   1.860  12.311  0.8911  1.1217 -0.0898
  187DOPC   C1122985   5.612   2.066  12.578  0.0796 -0.4269 -0.3214
  187DOPC  H11A22986   5.564   2.071  12.678 -3.0943 -4.9474 -1.2751
  187DOPC  H11B22987   5.619   2.167  12.534 -1.4323 -0.9080 -1.7748
  187DOPC     P22988   5.443   1.867  12.561  0.2508  0.3238  0.0535
  187DOPC   O1322989   5.461   1.736  12.487  0.3632 -0.1685  0.1522
  187DOPC   O1422990   5.301   1.915  12.568  0.0027 -0.5894  0.2754
  187DOPC   O1222991   5.535   1.980  12.492 -0.3552 -0.0825 -0.0692
  187DOPC   O1122992   5.499   1.850  12.711  0.3748  0.0775  0.2354
  187DOPC    C122993   5.487   1.709  12.758 -0.1601  0.6467  0.1207
  187DOPC    HA22994   5.569   1.651  12.711  0.9850  0.9056  1.7140
  187DOPC    HB22995   5.391   1.663  12.726  0.3953  1.6098 -3.3308
  187DOPC    C222996   5.508   1.698  12.918 -0.9714 -0.2602  1.1931
  187DOPC    HS22997   5.484   1.594  12.947 -2.9756 -0.7100 -1.7128
  187DOPC   O2122998   5.425   1.797  12.984 -0.1956  0.0048 -0.3152
  187DOPC   C2122999   5.301   1.758  13.015  0.0774  0.5397 -0.1698
  187DOPC   O2223000   5.252   1.650  12.983 -0.3679  0.5924 -0.5181
  187DOPC   C2223001   5.231   1.845  13.117  0.2839 -0.3198  0.2404
  187DOPC   H2R23002   5.132   1.805  13.145 -0.7455  2.6120  1.1251
  187DOPC   H2S23003   5.214   1.943  13.068  0.3086  0.0704  0.9941
  187DOPC    C323004   5.663   1.717  12.948  0.5799 -0.6965 -0.1738
  187DOPC    HX23005   5.703   1.816  12.917  0.8004 -0.7050  0.0734
  187DOPC    HY23006   5.721   1.639  12.894  0.0355 -2.2279  1.3656
  187DOPC   O3123007   5.690   1.699  13.090 -0.1387 -0.0058  0.2359
  187DOPC   C3123008   5.708   1.579  13.131  0.1006 -0.1216 -0.8374
  187DOPC   O3223009   5.680   1.474  13.066  0.0671 -0.8588  0.1260
  187DOPC   C3223010   5.748   1.571  13.278 -0.6433 -0.2162 -0.0796
  187DOPC   H2X23011   5.756   1.464  13.307 -2.9025 -0.8974 -1.7049
  187DOPC   H2Y23012   5.840   1.632  13.288 -0.2961 -1.0781  3.9080
  187DOPC   C2323013   5.295   1.848  13.252 -0.0654  0.0539 -0.1159
  187DOPC   H3R23014   5.402   1.873  13.242 -0.2341  0.5210 -0.7936
  187DOPC   H3S23015   5.293   1.744  13.293 -2.6259  0.8458  2.0457
  187DOPC   C2423016   5.230   1.941  13.357 -0.7086 -0.1443 -0.3081
  187DOPC   H4R23017   5.123   1.913  13.366 -0.3119 -1.3311  1.1414
  187DOPC   H4S23018   5.250   2.046  13.327 -1.4341  0.1053  0.0519
  187DOPC   C2523019   5.290   1.913  13.492  0.4361 -0.2054  0.5601
  187DOPC   H5R23020   5.400   1.927  13.486  0.5323 -1.4049 -1.4825
  187DOPC   H5S23021   5.293   1.807  13.522  1.0772 -0.4584 -0.3377
  187DOPC   C2623022   5.231   1.999  13.603 -0.1318 -0.2987  0.7636
  187DOPC   H6R23023   5.126   1.964  13.616  0.4689 -2.7042 -0.3293
  187DOPC   H6S23024   5.224   2.103  13.564 -0.8329 -0.7199 -0.2857
  187DOPC   C2723025   5.314   2.001  13.725  0.0344 -0.7877  0.0449
  187DOPC   H7R23026   5.306   2.095  13.783  2.7629 -0.9515  0.8134
  187DOPC   H7S23027   5.421   2.002  13.695  0.0578 -1.8025  0.0668
  187DOPC   C2823028   5.308   1.889  13.829  0.5460  0.2371  0.0427
  187DOPC   H8R23029   5.390   1.915  13.899  0.8150 -1.2438  0.3126
  187DOPC   H8S23030   5.329   1.795  13.772 -1.0772 -0.6156  0.7795
  187DOPC   C2923031   5.175   1.869  13.889 -0.6432 -0.1650  0.9628
  187DOPC   H9R23032   5.093   1.849  13.818  0.7201  1.2895 -1.1360
  187DOPC  C21023033   5.153   1.859  14.020  0.4939 -0.6443  0.1538
  187DOPC  H10R23034   5.054   1.831  14.059  0.6481  0.1570  1.1808
  187DOPC  C21123035   5.256   1.873  14.134 -0.3749 -0.6211  0.4902
  187DOPC  H11R23036   5.312   1.968  14.121 -1.7878  0.5476  2.4071
  187DOPC  H11S23037   5.323   1.785  14.131 -0.6486 -0.8150 -0.4639
  187DOPC  C21223038   5.192   1.872  14.274  0.2956  0.2992 -0.1300
  187DOPC  H12R23039   5.127   1.784  14.292 -0.2498  0.5647 -0.7393
  187DOPC  H12S23040   5.128   1.963  14.281 -1.1768 -0.8277  2.0135
  187DOPC  C21323041   5.304   1.867  14.379 -0.2394 -0.2877 -0.4748
  187DOPC  H13R23042   5.372   1.954  14.369  1.3447 -1.3521  0.7013
  187DOPC  H13S23043   5.379   1.787  14.367  0.4437  0.3118 -0.2583
  187DOPC  C21423044   5.244   1.859  14.519 -0.2736  0.0743  0.5015
  187DOPC  H14R23045   5.325   1.811  14.578  0.9829  1.4124 -0.0636
  187DOPC  H14S23046   5.158   1.788  14.521  0.8683 -1.5127 -1.9495
  187DOPC  C21523047   5.207   1.993  14.588  0.1107  0.0762  0.1174
  187DOPC  H15R23048   5.099   2.011  14.569  0.4425  0.4430 -1.5737
  187DOPC  H15S23049   5.265   2.065  14.527 -0.3931 -1.9378 -2.9337
  187DOPC  C21623050   5.243   2.001  14.732 -0.5883 -0.5915  0.2246
  187DOPC  H16R23051   5.210   2.103  14.760  1.5159  1.3434 -3.5638
  187DOPC  H16S23052   5.353   1.990  14.742 -0.1077 -0.0853 -3.3504
  187DOPC  C21723053   5.158   1.901  14.823 -0.1554  0.2565 -0.1990
  187DOPC  H17R23054   5.193   1.801  14.787  0.6002  0.3292  0.3010
  187DOPC  H17S23055   5.051   1.912  14.796 -0.7339 -2.2216  0.7607
  187DOPC  C21823056   5.171   1.914  14.973  0.8885  0.6019 -0.0171
  187DOPC  H18R23057   5.139   1.816  15.014 -0.7422  0.6102 -1.1559
  187DOPC  H18S23058   5.116   2.004  15.007 -0.1286  0.3443 -0.8987
  187DOPC  H18T23059   5.280   1.905  14.989  0.8436 -3.5509 -0.7781
  187DOPC   C3323060   5.647   1.627  13.380  0.5265 -0.5042  0.5872
  187DOPC   H3X23061   5.559   1.562  13.396  0.6672 -0.4547  1.5720
  187DOPC   H3Y23062   5.615   1.721  13.330  1.7654 -1.5510 -2.4858
  187DOPC   C3423063   5.712   1.658  13.512 -0.0184 -0.2783  0.7062
  187DOPC   H4X23064   5.809   1.712  13.505  1.2885 -2.3544  1.8540
  187DOPC   H4Y23065   5.723   1.565  13.571 -2.8717 -1.4746 -0.4567
  187DOPC   C3523066   5.616   1.752  13.600 -1.0180  0.6962  0.0077
  187DOPC   H5X23067   5.514   1.709  13.611  0.2465 -2.9737 -1.0886
  187DOPC   H5Y23068   5.601   1.848  13.546 -1.5737 -0.5685 -2.1821
  187DOPC   C3623069   5.672   1.791  13.734  0.4856 -0.0820 -0.3301
  187DOPC   H6X23070   5.778   1.821  13.726 -0.5021  3.4501 -2.2770
  187DOPC   H6Y23071   5.612   1.874  13.777  1.4858 -0.2118  1.4126
  187DOPC   C3723072   5.662   1.668  13.833 -0.1382 -1.1868 -0.2324
  187DOPC   H7X23073   5.553   1.650  13.843 -0.1967 -0.8334 -0.2185
  187DOPC   H7Y23074   5.699   1.586  13.768 -0.5482  0.4134 -2.6406
  187DOPC   C3823075   5.734   1.685  13.967  0.1398 -0.1199  0.5635
  187DOPC   H8X23076   5.838   1.711  13.939  0.2651 -1.9757 -0.9189
  187DOPC   H8Y23077   5.736   1.580  14.003  0.8218 -0.3717 -0.1771
  187DOPC   C3923078   5.684   1.794  14.061 -0.4116  0.5064 -0.3607
  187DOPC   H9X23079   5.690   1.892  14.012  0.4117 -0.8532 -3.1911
  187DOPC  C31023080   5.652   1.790  14.190  0.5077  0.3285 -0.7332
  187DOPC  H10X23081   5.609   1.879  14.237  1.0320  0.5496 -0.6604
  187DOPC  C31123082   5.658   1.666  14.276 -0.1315 -0.6020 -0.3890
  187DOPC  H11X23083   5.716   1.582  14.232  0.8531 -0.2341  0.1705
  187DOPC  H11Y23084   5.556   1.627  14.295 -0.4065  0.6037  0.7283
  187DOPC  C31223085   5.715   1.682  14.419 -0.2144 -0.5433  0.2574
  187DOPC  H12X23086   5.819   1.722  14.414 -0.6363  0.3623 -3.0164
  187DOPC  H12Y23087   5.721   1.581  14.465 -0.3728 -0.5900  0.1752
  187DOPC  C31323088   5.639   1.780  14.506 -0.2785  0.2177  0.4943
  187DOPC  H13X23089   5.636   1.881  14.460 -0.5550 -0.1990 -0.4110
  187DOPC  H13Y23090   5.535   1.749  14.526 -0.6439  2.0568  1.7564
  187DOPC  C31423091   5.709   1.796  14.641  0.1115  0.7299  0.4355
  187DOPC  H14X23092   5.723   1.689  14.668 -0.8176 -0.4385 -3.1301
  187DOPC  H14Y23093   5.808   1.846  14.633 -0.9182  2.7240 -0.3050
  187DOPC  C31523094   5.619   1.858  14.751 -0.5432 -0.2891  0.4332
  187DOPC  H15X23095   5.524   1.802  14.759 -0.7205  0.0548  0.7654
  187DOPC  H15Y23096   5.592   1.960  14.714  0.3653 -0.7145 -1.5502
  187DOPC  C31623097   5.680   1.859  14.891  0.0567  1.2296  0.0597
  187DOPC  H16X23098   5.682   1.759  14.939 -2.8810  0.7819 -0.5736
  187DOPC  H16Y23099   5.787   1.886  14.878  1.0424 -2.0025  0.6459
  187DOPC  C31723100   5.609   1.948  14.995  0.0605 -0.9708  0.2077
  187DOPC  H17X23101   5.627   2.055  14.969  0.1817 -1.1724 -0.5708
  187DOPC  H17Y23102   5.502   1.922  14.982 -0.0183 -0.6735  0.2523
  187DOPC  C31823103   5.651   1.930  15.139  0.0211  0.6496  0.0040
  187DOPC  H18X23104   5.750   1.973  15.162  0.0621  0.2722  0.5471
  187DOPC  H18Y23105   5.596   1.996  15.210  1.3627  1.4997  0.2848
  187DOPC  H18Z23106   5.640   1.823  15.168  2.7717 -0.0472 -1.1776
  188DOPC     N23107   1.695   0.212  12.152  0.6124 -0.1732 -0.1471
  188DOPC   C1223108   1.720   0.359  12.170  0.9295 -0.2663  0.3849
  188DOPC  H12A23109   1.730   0.400  12.071 -1.1446 -1.0365 -0.2038
  188DOPC  H12B23110   1.814   0.376  12.221  0.1683  0.2805  1.6653
  188DOPC   C1323111   1.674   0.141  12.280 -0.1015 -0.5526  0.0201
  188DOPC  H13A23112   1.635   0.041  12.272  1.1594 -0.9293 -2.0906
  188DOPC  H13B23113   1.765   0.122  12.336  0.5794  0.3310 -0.7580
  188DOPC  H13C23114   1.608   0.203  12.339 -0.5913 -0.5617 -0.5095
  188DOPC   C1423115   1.813   0.157  12.077  0.2137 -0.4303 -0.3742
  188DOPC  H14A23116   1.801   0.050  12.068  0.7473 -0.7834  2.1290
  188DOPC  H14B23117   1.826   0.207  11.983  2.3469 -0.4798 -0.1592
  188DOPC  H14C23118   1.904   0.170  12.134 -0.7887  1.9354  0.8268
  188DOPC   C1523119   1.563   0.196  12.080  0.2004  0.4323  0.2397
  188DOPC  H15A23120   1.489   0.260  12.126  0.5317  0.0753  1.3187
  188DOPC  H15B23121   1.518   0.097  12.079 -2.7968  1.6750 -1.1960
  188DOPC  H15C23122   1.556   0.227  11.977  0.4519 -0.5686 -0.1004
  188DOPC   C1123123   1.609   0.446  12.243  0.2607 -0.0271 -0.7987
  188DOPC  H11A23124   1.640   0.553  12.243  1.4639 -0.3527  0.0576
  188DOPC  H11B23125   1.510   0.446  12.192 -0.9198 -1.4931  1.3181
  188DOPC     P23126   1.673   0.451  12.495 -0.1098  0.4544  0.1347
  188DOPC   O1323127   1.796   0.524  12.447 -0.0932 -0.0779 -0.4814
  188DOPC   O1423128   1.699   0.335  12.581 -0.0759 -0.9308  0.1086
  188DOPC   O1223129   1.579   0.407  12.377 -0.3120  0.4061  0.0292
  188DOPC   O1123130   1.563   0.555  12.559 -0.2271  0.4136  0.2759
  188DOPC    C123131   1.449   0.512  12.629 -0.0708 -0.6503  0.0547
  188DOPC    HA23132   1.405   0.415  12.597 -0.3892 -1.1811  1.9370
  188DOPC    HB23133   1.373   0.592  12.625  1.6548  1.1652  1.5533
  188DOPC    C223134   1.470   0.514  12.787  0.3368  0.1596 -1.1562
  188DOPC    HS23135   1.383   0.561  12.838  1.9592  3.4233 -1.1306
  188DOPC   O2123136   1.581   0.603  12.826  0.2255  0.2789 -0.1818
  188DOPC   C2123137   1.551   0.731  12.819 -0.0031 -0.3746  0.1382
  188DOPC   O2223138   1.452   0.783  12.774  0.2182 -0.3766 -0.0016
  188DOPC   C2223139   1.658   0.816  12.901 -0.8380 -0.1044  0.3705
  188DOPC   H2R23140   1.694   0.893  12.830  0.1486  0.7101  1.7152
  188DOPC   H2S23141   1.741   0.745  12.920 -0.7756 -0.0480  0.3106
  188DOPC    C323142   1.513   0.377  12.852 -0.2654 -0.1918  0.8118
  188DOPC    HX23143   1.601   0.331  12.803 -0.2150  1.1899 -0.4481
  188DOPC    HY23144   1.426   0.308  12.841  0.7124 -1.5687  1.3916
  188DOPC   O3123145   1.524   0.388  12.992  0.2762 -0.6028 -0.0507
  188DOPC   C3123146   1.641   0.369  13.050 -0.9141 -0.4114  0.3722
  188DOPC   O3223147   1.743   0.333  12.999  0.2017  0.8989 -0.2315
  188DOPC   C3223148   1.623   0.394  13.195  0.8919 -0.5688 -0.0743
  188DOPC   H2X23149   1.614   0.504  13.210 -0.9576 -0.4728 -1.5108
  188DOPC   H2Y23150   1.520   0.356  13.215 -1.9667  4.4896 -3.0874
  188DOPC   C2323151   1.592   0.889  13.023  0.1147 -0.2743  0.2349
  188DOPC   H3R23152   1.505   0.944  12.983 -0.1286  0.1234  1.2593
  188DOPC   H3S23153   1.657   0.963  13.074 -0.8427 -0.5057  1.8759
  188DOPC   C2423154   1.569   0.808  13.148 -0.5939 -0.4176  0.2899
  188DOPC   H4R23155   1.668   0.786  13.195 -0.5265  0.5396  0.6082
  188DOPC   H4S23156   1.526   0.707  13.127 -0.7534 -0.2111 -0.3929
  188DOPC   C2523157   1.480   0.883  13.245 -0.4347  0.5733  0.5240
  188DOPC   H5R23158   1.385   0.907  13.192  0.7230  1.5092 -1.2289
  188DOPC   H5S23159   1.533   0.980  13.259  1.1902 -0.0277 -1.0274
  188DOPC   C2623160   1.450   0.805  13.376 -1.0931 -0.6130  0.8416
  188DOPC   H6R23161   1.401   0.707  13.356 -0.7242 -0.3619 -1.5248
  188DOPC   H6S23162   1.376   0.867  13.432  0.1726 -0.3401  2.2759
  188DOPC   C2723163   1.582   0.785  13.458 -0.2667  0.4659  0.0536
  188DOPC   H7R23164   1.617   0.884  13.495 -1.9804  0.4529  1.9108
  188DOPC   H7S23165   1.645   0.737  13.380  0.6543  1.4828  0.1516
  188DOPC   C2823166   1.572   0.708  13.593 -0.1001  0.4598 -0.6623
  188DOPC   H8R23167   1.533   0.608  13.565  2.3555 -0.6916 -0.2556
  188DOPC   H8S23168   1.498   0.763  13.655 -0.3645 -1.3687  0.6951
  188DOPC   C2923169   1.712   0.690  13.652  0.2736 -0.0652  0.0895
  188DOPC   H9R23170   1.775   0.634  13.581 -0.1357  0.7731 -0.9562
  188DOPC  C21023171   1.751   0.734  13.769  0.2494 -0.2767 -0.4243
  188DOPC  H10R23172   1.849   0.713  13.814 -0.0525  1.6563  1.2547
  188DOPC  C21123173   1.661   0.798  13.876 -0.7562  0.1649  0.2268
  188DOPC  H11R23174   1.556   0.811  13.841 -0.9166 -2.5821 -0.5070
  188DOPC  H11S23175   1.697   0.903  13.885 -0.6147  0.2652 -1.2054
  188DOPC  C21223176   1.643   0.729  14.014 -0.2141 -0.7140  0.7725
  188DOPC  H12R23177   1.721   0.653  14.038  1.9415  1.9499  2.9160
  188DOPC  H12S23178   1.546   0.677  13.998 -0.7441  0.6672 -0.7467
  188DOPC  C21323179   1.615   0.834  14.120  0.4393  0.0250 -0.0497
  188DOPC  H13R23180   1.521   0.885  14.092 -0.1238 -1.0166 -0.1129
  188DOPC  H13S23181   1.701   0.904  14.121  1.2302 -0.9208  0.0940
  188DOPC  C21423182   1.597   0.750  14.251 -0.2950  0.1199 -0.7460
  188DOPC  H14R23183   1.688   0.693  14.277 -0.7643  1.0074  3.5905
  188DOPC  H14S23184   1.517   0.676  14.228 -0.4171 -0.9554  2.5825
  188DOPC  C21523185   1.567   0.840  14.368 -0.1497 -0.2048 -0.3303
  188DOPC  H15R23186   1.495   0.916  14.331 -1.7635 -0.6783  1.6430
  188DOPC  H15S23187   1.660   0.897  14.384 -1.9448  3.5760 -2.2003
  188DOPC  C21623188   1.506   0.779  14.490 -0.0042  0.6858  0.1397
  188DOPC  H16R23189   1.412   0.724  14.465 -0.0020  0.6909  0.1184
  188DOPC  H16S23190   1.481   0.856  14.565  0.8178  0.2914  0.8418
  188DOPC  C21723191   1.592   0.670  14.564  0.3882 -0.3555  0.3325
  188DOPC  H17R23192   1.680   0.722  14.608  0.6630 -1.2969  0.9200
  188DOPC  H17S23193   1.644   0.594  14.501  3.0176  1.7354 -0.1737
  188DOPC  C21823194   1.512   0.587  14.668 -0.3981  0.5959 -0.5833
  188DOPC  H18R23195   1.463   0.500  14.620  1.2712  0.4162 -2.0760
  188DOPC  H18S23196   1.441   0.657  14.716  0.2361  0.9843 -0.1929
  188DOPC  H18T23197   1.576   0.545  14.749 -0.1600 -2.3606 -2.1503
  188DOPC   C3323198   1.726   0.333  13.292 -0.0166 -0.0186 -0.3530
  188DOPC   H3X23199   1.833   0.341  13.264 -0.3067 -1.1438 -1.8948
  188DOPC   H3Y23200   1.707   0.225  13.309  0.2762 -0.1580 -0.8959
  188DOPC   C3423201   1.711   0.383  13.436 -0.1310 -0.1655 -1.5032
  188DOPC   H4X23202   1.609   0.414  13.465  0.6468  3.1849 -1.9063
  188DOPC   H4Y23203   1.766   0.480  13.441 -0.2402 -0.1734  1.0287
  188DOPC   C3523204   1.770   0.291  13.535  0.0985  0.5331  0.5336
  188DOPC   H5X23205   1.875   0.265  13.511 -0.3609 -0.8154 -0.1173
  188DOPC   H5Y23206   1.704   0.201  13.527  1.1895 -0.1422 -1.4205
  188DOPC   C3623207   1.779   0.330  13.677  0.6129 -0.1502 -0.1133
  188DOPC   H6X23208   1.856   0.408  13.693 -1.0665  1.7067 -0.6877
  188DOPC   H6Y23209   1.684   0.381  13.702  2.0485  2.5727  0.1425
  188DOPC   C3723210   1.802   0.210  13.770  0.0879 -0.3832  0.0071
  188DOPC   H7X23211   1.701   0.164  13.773  1.0635 -2.6122  1.2172
  188DOPC   H7Y23212   1.868   0.133  13.724  1.0029  1.4516 -1.9267
  188DOPC   C3823213   1.839   0.252  13.915  0.5517  0.4152  0.4955
  188DOPC   H8X23214   1.761   0.325  13.942 -0.3681 -0.5471  0.4867
  188DOPC   H8Y23215   1.934   0.311  13.910 -0.3178  1.8969  0.9636
  188DOPC   C3923216   1.866   0.133  14.005 -0.1297  0.4770 -0.5942
  188DOPC   H9X23217   1.934   0.064  13.953 -1.2292  1.9634 -4.3907
  188DOPC  C31023218   1.823   0.129  14.137 -1.2541 -0.4338  0.1538
  188DOPC  H10X23219   1.838   0.047  14.210 -1.1683  1.6188  2.5794
  188DOPC  C31123220   1.734   0.235  14.200 -0.5694  0.4768 -0.4207
  188DOPC  H11X23221   1.632   0.191  14.209 -0.6358  0.8420  0.7346
  188DOPC  H11Y23222   1.745   0.325  14.136  3.2466 -0.2641 -1.0718
  188DOPC  C31223223   1.796   0.280  14.330 -0.7791 -0.1674  0.6041
  188DOPC  H12X23224   1.743   0.369  14.369 -1.9859 -0.4969 -0.2157
  188DOPC  H12Y23225   1.898   0.317  14.304 -0.5850 -0.4532  0.9507
  188DOPC  C31323226   1.806   0.173  14.434  0.4326  0.0278  0.3639
  188DOPC  H13X23227   1.709   0.119  14.443  0.6277 -0.9074 -2.2176
  188DOPC  H13Y23228   1.884   0.102  14.399 -1.5404 -1.4479 -1.2910
  188DOPC  C31423229   1.835   0.216  14.576  0.0834  0.0615 -0.2160
  188DOPC  H14X23230   1.924   0.162  14.614  0.0367  1.8839  2.8556
  188DOPC  H14Y23231   1.868   0.321  14.566 -2.2233  0.8347 -0.3555
  188DOPC  C31523232   1.717   0.214  14.679 -0.9203  0.4697 -0.3477
  188DOPC  H15X23233   1.678   0.111  14.678 -0.4598  0.2908 -0.7770
  188DOPC  H15Y23234   1.643   0.276  14.623  0.0032 -0.3692 -2.6505
  188DOPC  C31623235   1.769   0.271  14.813  0.1621  0.5179  0.7423
  188DOPC  H16X23236   1.841   0.355  14.805  1.6631 -0.5954  2.0190
  188DOPC  H16Y23237   1.685   0.305  14.878  0.2337  0.7787  0.7011
  188DOPC  C31723238   1.848   0.169  14.901  0.3684 -0.8689  0.1068
  188DOPC  H17X23239   1.795   0.071  14.907  2.6004 -2.0740  1.3092
  188DOPC  H17Y23240   1.938   0.159  14.837  1.2957  0.1285  1.1930
  188DOPC  C31823241   1.874   0.239  15.042  0.0147 -0.0428 -0.4052
  188DOPC  H18X23242   1.978   0.214  15.071  0.6657  1.4139 -1.3667
  188DOPC  H18Y23243   1.853   0.348  15.034 -4.6911 -0.8450 -2.0342
  188DOPC  H18Z23244   1.810   0.192  15.120  1.7782 -1.1617  0.4243
  189DOPC     N23245   3.636   1.293  12.818  0.0406  0.7418  0.7098
  189DOPC   C1223246   3.539   1.321  12.708 -0.0177 -0.1845 -0.4362
  189DOPC  H12A23247   3.535   1.230  12.650 -0.4574 -0.2658 -0.2829
  189DOPC  H12B23248   3.588   1.396  12.647  0.6455 -0.7174 -0.5734
  189DOPC   C1323249   3.637   1.400  12.927 -0.3219  0.4734  0.1007
  189DOPC  H13A23250   3.710   1.379  13.004 -0.2212  2.5008  0.6063
  189DOPC  H13B23251   3.659   1.497  12.885 -1.1551  1.5008  1.9284
  189DOPC  H13C23252   3.540   1.403  12.973  0.1960 -0.6981  1.3521
  189DOPC   C1423253   3.772   1.278  12.763  0.2752  0.3476 -0.9437
  189DOPC  H14A23254   3.783   1.209  12.680  2.6903  0.7256 -1.0081
  189DOPC  H14B23255   3.812   1.376  12.742  1.1942  0.5894  1.6463
  189DOPC  H14C23256   3.831   1.232  12.840  0.0207 -0.2913 -1.1220
  189DOPC   C1523257   3.598   1.158  12.882  0.2283 -0.4400  0.5437
  189DOPC  H15A23258   3.640   1.148  12.982  1.9675  1.9874  0.1573
  189DOPC  H15B23259   3.632   1.073  12.825 -1.2282 -1.2771  0.8845
  189DOPC  H15C23260   3.491   1.156  12.893  0.2365  0.7583  0.9586
  189DOPC   C1123261   3.393   1.360  12.753 -0.0921  0.2445  0.9725
  189DOPC  H11A23262   3.386   1.452  12.814 -0.7812  1.5640 -1.0024
  189DOPC  H11B23263   3.342   1.370  12.655 -0.3165  0.7563  1.1439
  189DOPC     P23264   3.169   1.275  12.867 -0.3334  0.5405  0.1332
  189DOPC   O1323265   3.118   1.144  12.902  0.0833  0.1976 -0.1991
  189DOPC   O1423266   3.094   1.353  12.767  0.3281 -0.0149 -0.0571
  189DOPC   O1223267   3.315   1.255  12.817 -0.6197  0.1290  0.7166
  189DOPC   O1123268   3.186   1.360  12.992 -0.7377  0.3676 -0.2960
  189DOPC    C123269   3.203   1.310  13.124  0.1065  0.3167 -0.5278
  189DOPC    HA23270   3.260   1.393  13.171  0.3641  0.0056 -0.2893
  189DOPC    HB23271   3.262   1.217  13.141  0.0555  0.7303  2.3750
  189DOPC    C223272   3.065   1.281  13.192  0.4572 -0.2987  0.2689
  189DOPC    HS23273   3.016   1.200  13.134 -0.6868  2.7681 -3.4439
  189DOPC   O2123274   2.985   1.403  13.179  0.0897 -0.0017 -0.6280
  189DOPC   C2123275   2.852   1.375  13.167  0.0018  0.2453  0.2336
  189DOPC   O2223276   2.806   1.264  13.150 -0.6640  0.4367 -0.0675
  189DOPC   C2223277   2.777   1.520  13.168 -0.2625 -0.1847 -0.0141
  189DOPC   H2R23278   2.691   1.517  13.239 -0.8331 -0.2258 -0.7063
  189DOPC   H2S23279   2.731   1.528  13.067 -1.2533  1.0976  0.5068
  189DOPC    C323280   3.085   1.242  13.334  0.0643  0.0163 -0.6366
  189DOPC    HX23281   3.151   1.323  13.370  0.4146 -0.2219 -0.7396
  189DOPC    HY23282   3.149   1.154  13.355 -0.8709 -0.3030  1.1648
  189DOPC   O3123283   2.961   1.236  13.409 -0.5289  0.0763  0.1374
  189DOPC   C3123284   2.969   1.267  13.538  0.2783 -0.3259  0.1780
  189DOPC   O3223285   3.069   1.291  13.600  0.2611  0.2602 -0.3317
  189DOPC   C3223286   2.824   1.279  13.601 -0.6585 -0.4002 -0.6664
  189DOPC   H2X23287   2.774   1.356  13.537 -2.1267 -0.3997  0.4190
  189DOPC   H2Y23288   2.774   1.180  13.593  1.3744 -1.6460  0.9714
  189DOPC   C2323289   2.864   1.640  13.205 -0.9042 -0.0786  0.1035
  189DOPC   H3R23290   2.963   1.647  13.154  0.8521 -2.3544  2.8602
  189DOPC   H3S23291   2.909   1.624  13.306  1.6324 -2.0075 -1.2364
  189DOPC   C2423292   2.793   1.778  13.204  0.4578 -0.0967 -0.3265
  189DOPC   H4R23293   2.781   1.807  13.097 -0.3610  2.1966  0.3222
  189DOPC   H4S23294   2.864   1.842  13.262  0.5845 -1.4071  1.0056
  189DOPC   C2523295   2.650   1.786  13.268 -0.4728  0.2138  1.6830
  189DOPC   H5R23296   2.581   1.722  13.209  0.6226  0.3526  0.2140
  189DOPC   H5S23297   2.603   1.887  13.261 -1.8771 -0.5484 -2.0585
  189DOPC   C2623298   2.649   1.731  13.410  0.1080 -0.0424 -0.5117
  189DOPC   H6R23299   2.729   1.654  13.421 -0.2022 -0.6256 -2.1130
  189DOPC   H6S23300   2.551   1.684  13.429 -0.6780  0.5684 -2.7345
  189DOPC   C2723301   2.675   1.838  13.512 -0.1497 -0.4417 -0.6664
  189DOPC   H7R23302   2.607   1.923  13.491 -0.5397 -0.3467  0.8198
  189DOPC   H7S23303   2.776   1.878  13.489  0.9853 -2.1082  1.0655
  189DOPC   C2823304   2.656   1.792  13.655  0.3024 -0.0556 -0.3808
  189DOPC   H8R23305   2.552   1.753  13.664  0.0456  0.7982  0.4862
  189DOPC   H8S23306   2.656   1.888  13.711  1.8459 -0.8279  1.0258
  189DOPC   C2923307   2.751   1.693  13.715 -0.4906  0.5120 -0.2156
  189DOPC   H9R23308   2.764   1.601  13.655  2.3490  0.3131  0.5874
  189DOPC  C21023309   2.818   1.690  13.833  0.2947  0.0632  0.1197
  189DOPC  H10R23310   2.885   1.607  13.861 -0.5260 -0.4136  0.7139
  189DOPC  C21123311   2.802   1.797  13.938  0.3660  0.3092  0.0642
  189DOPC  H11R23312   2.694   1.822  13.948  0.0914 -1.2921  1.6107
  189DOPC  H11S23313   2.849   1.892  13.904  0.6294  0.7471  1.5707
  189DOPC  C21223314   2.841   1.761  14.080  0.1221  0.5071 -0.6434
  189DOPC  H12R23315   2.940   1.712  14.075 -0.6409 -1.4386  1.3606
  189DOPC  H12S23316   2.779   1.671  14.099  0.5607 -0.0465 -1.7246
  189DOPC  C21323317   2.821   1.861  14.190  0.3875  0.2813  0.2361
  189DOPC  H13R23318   2.712   1.881  14.203  0.1276 -0.7899 -0.1795
  189DOPC  H13S23319   2.869   1.957  14.164 -2.0297  1.4186 -0.2831
  189DOPC  C21423320   2.871   1.825  14.329 -0.3396 -0.4646 -0.6248
  189DOPC  H14R23321   2.980   1.812  14.316  0.3583  4.3682 -1.7095
  189DOPC  H14S23322   2.822   1.729  14.355  0.0072 -0.2451  0.9243
  189DOPC  C21523323   2.830   1.940  14.430  0.4444  0.3376 -0.3553
  189DOPC  H15R23324   2.855   1.907  14.533  0.1334  0.6491 -0.1772
  189DOPC  H15S23325   2.719   1.940  14.434  0.4454 -1.8475  2.4121
  189DOPC  C21623326   2.880   2.077  14.406 -0.2888 -0.1194 -0.0458
  189DOPC  H16R23327   2.849   2.151  14.482  2.2650 -0.1854  1.1767
  189DOPC  H16S23328   2.835   2.115  14.312 -1.2900 -0.1355  0.4231
  189DOPC  C21723329   3.038   2.083  14.390 -0.0242 -0.0349  0.1676
  189DOPC  H17R23330   3.072   2.036  14.295  1.3482 -0.9573  1.0890
  189DOPC  H17S23331   3.079   2.023  14.474 -0.3465 -0.0483  0.3162
  189DOPC  C21823332   3.106   2.223  14.385 -0.4980  0.2976 -0.6856
  189DOPC  H18R23333   3.215   2.201  14.393 -1.0371 -1.9872  1.1838
  189DOPC  H18S23334   3.084   2.273  14.482 -0.1325 -2.6022  1.0093
  189DOPC  H18T23335   3.074   2.280  14.295 -1.4942  0.2828 -0.3519
  189DOPC   C3323336   2.835   1.325  13.751  0.0992 -0.0592  0.6717
  189DOPC   H3X23337   2.746   1.382  13.785 -1.5849 -1.2246 -1.5190
  189DOPC   H3Y23338   2.919   1.396  13.765 -1.9231  2.2447  1.9665
  189DOPC   C3423339   2.861   1.210  13.849 -0.0528  0.1965  0.1704
  189DOPC   H4X23340   2.951   1.165  13.801 -0.8177 -1.1212 -0.0954
  189DOPC   H4Y23341   2.773   1.142  13.845  0.1582 -0.1363  1.0276
  189DOPC   C3523342   2.883   1.249  13.990 -0.8119  0.9408  0.2593
  189DOPC   H5X23343   2.832   1.345  14.018 -1.1084  0.4011  1.6499
  189DOPC   H5Y23344   2.987   1.284  14.004 -1.3148  2.8247 -0.2758
  189DOPC   C3623345   2.844   1.135  14.076 -0.1149 -0.2285 -0.2045
  189DOPC   H6X23346   2.735   1.120  14.062 -0.0283 -0.0695 -1.0979
  189DOPC   H6Y23347   2.892   1.042  14.038  1.2873  1.2886 -2.3451
  189DOPC   C3723348   2.875   1.163  14.219  0.5612 -0.2101 -0.1507
  189DOPC   H7X23349   2.983   1.178  14.241  0.2511 -0.5007  1.7263
  189DOPC   H7Y23350   2.819   1.255  14.246 -0.6866 -1.5493  2.1374
  189DOPC   C3823351   2.836   1.055  14.320  0.1710  0.6153  0.4060
  189DOPC   H8X23352   2.897   0.965  14.300  2.7638  1.6273  3.0682
  189DOPC   H8Y23353   2.729   1.037  14.296  0.3044 -0.2605  0.4383
  189DOPC   C3923354   2.846   1.096  14.464 -0.2551 -0.1050  0.1136
  189DOPC   H9X23355   2.936   1.156  14.488 -0.2244 -0.7763  1.8567
  189DOPC  C31023356   2.752   1.067  14.557 -0.2114 -0.0245 -0.1954
  189DOPC  H10X23357   2.782   1.093  14.660 -0.4931  1.9211 -0.5715
  189DOPC  C31123358   2.630   0.979  14.546 -0.0075 -0.2835  0.1276
  189DOPC  H11X23359   2.654   0.894  14.479 -2.9564 -1.9099  0.9476
  189DOPC  H11Y23360   2.551   1.036  14.492  0.8891 -0.6670 -1.6628
  189DOPC  C31223361   2.566   0.913  14.669 -0.0628  0.0194 -0.4087
  189DOPC  H12X23362   2.646   0.841  14.700  0.8661  2.1430  2.5246
  189DOPC  H12Y23363   2.472   0.867  14.631 -0.4901  1.2360 -0.8561
  189DOPC  C31323364   2.530   1.005  14.783 -0.1577  0.3686 -0.3112
  189DOPC  H13X23365   2.619   1.029  14.845 -1.2974 -0.5533  1.8394
  189DOPC  H13Y23366   2.503   1.105  14.744  0.1933  0.5412 -0.1096
  189DOPC  C31423367   2.416   0.945  14.867  0.4030  0.2400  0.3530
  189DOPC  H14X23368   2.327   0.922  14.804 -0.4330 -3.0469  2.4965
  189DOPC  H14Y23369   2.453   0.855  14.920  0.8218  1.0336  1.4477
  189DOPC  C31523370   2.367   1.039  14.973 -0.0438  0.3742  0.8007
  189DOPC  H15X23371   2.359   1.138  14.923 -0.9313 -0.4811 -0.8016
  189DOPC  H15Y23372   2.445   1.046  15.052  1.1276  0.7554 -0.3571
  189DOPC  C31623373   2.237   0.998  15.045 -0.4253  0.5260  0.1186
  189DOPC  H16X23374   2.166   0.948  14.976 -0.3552 -1.3830  1.3700
  189DOPC  H16Y23375   2.263   0.928  15.127 -2.0118  0.8792  0.9486
  189DOPC  C31723376   2.173   1.122  15.101  0.0527 -0.7108 -0.1327
  189DOPC  H17X23377   2.253   1.177  15.154  0.0822 -1.5651  0.7221
  189DOPC  H17Y23378   2.140   1.180  15.012  0.1536 -1.8211 -0.9169
  189DOPC  C31823379   2.046   1.106  15.184 -0.6306 -0.0023 -0.1653
  189DOPC  H18X23380   1.965   1.046  15.138 -2.9231  2.3056  0.5996
  189DOPC  H18Y23381   2.072   1.070  15.286  0.2933  0.2184 -0.3136
  189DOPC  H18Z23382   2.000   1.205  15.203  1.2781  0.8346  0.3778
  190DOPC     N23383   0.620   0.029  12.124 -0.3457 -0.1991 -0.3130
  190DOPC   C1223384   0.752   0.071  12.172 -0.2879 -0.0628 -0.2229
  190DOPC  H12A23385   0.780   0.169  12.136  1.3932  0.6587  2.7376
  190DOPC  H12B23386   0.823   0.008  12.121  1.1587  2.1263 -1.1007
  190DOPC   C1323387   0.588  -0.115  12.159 -0.0589  0.1085  0.2640
  190DOPC  H13A23388   0.571  -0.128  12.265 -2.9078  3.2916  0.3841
  190DOPC  H13B23389   0.491  -0.140  12.119  0.8043 -1.7117 -0.8671
  190DOPC  H13C23390   0.655  -0.194  12.128  0.5837  0.4614  0.7111
  190DOPC   C1423391   0.621   0.028  11.973  0.0127 -0.6066  0.6183
  190DOPC  H14A23392   0.525   0.003  11.930  0.4837 -1.3651 -0.0297
  190DOPC  H14B23393   0.654   0.124  11.936  0.4086 -1.7657 -2.3166
  190DOPC  H14C23394   0.692  -0.046  11.941  1.5822  1.4039 -0.7456
  190DOPC   C1523395   0.502   0.111  12.179 -0.5798 -0.7415  0.2121
  190DOPC  H15A23396   0.519   0.217  12.163 -0.7300 -0.5035  1.5225
  190DOPC  H15B23397   0.495   0.097  12.286 -0.5837  0.0341  0.3200
  190DOPC  H15C23398   0.409   0.096  12.126  0.5063 -1.7189 -1.4997
  190DOPC   C1123399   0.792   0.087  12.325  0.4299 -0.5092 -0.3489
  190DOPC  H11A23400   0.898   0.120  12.330  0.5818 -1.1669  1.2317
  190DOPC  H11B23401   0.734   0.171  12.368 -1.0539 -0.7557 -1.7519
  190DOPC     P23402   0.680  -0.041  12.527 -0.0009  0.0892 -0.3991
  190DOPC   O1323403   0.703  -0.166  12.602  0.1650  0.1767  0.7975
  190DOPC   O1423404   0.543  -0.037  12.488  0.4350  0.2085  0.8641
  190DOPC   O1223405   0.773  -0.033  12.399  0.8436 -0.1185  0.5033
  190DOPC   O1123406   0.721   0.085  12.614 -0.3369  0.6119 -0.0222
  190DOPC    C123407   0.855   0.082  12.674 -0.0928  0.4568  0.7699
  190DOPC    HA23408   0.933   0.138  12.618  1.1006  0.0990  2.0191
  190DOPC    HB23409   0.895  -0.017  12.703 -0.6320  0.2420  0.7997
  190DOPC    C223410   0.850   0.141  12.817 -0.0159  0.6433  0.2938
  190DOPC    HS23411   0.953   0.137  12.859  1.1111 -0.2322 -2.3217
  190DOPC   O2123412   0.760   0.050  12.889 -0.0198 -0.7349  0.0442
  190DOPC   C2123413   0.781   0.044  13.019 -0.4316 -0.2013 -0.0129
  190DOPC   O2223414   0.873   0.101  13.074 -0.2995 -0.0278 -0.5257
  190DOPC   C2223415   0.670  -0.047  13.074 -0.1098 -0.4671 -0.2948
  190DOPC   H2R23416   0.711  -0.144  13.109 -1.1765 -1.0779 -0.7251
  190DOPC   H2S23417   0.594  -0.080  13.001  1.8314 -1.7684 -1.8428
  190DOPC    C323418   0.799   0.290  12.807  0.1014  0.6487 -0.2029
  190DOPC    HX23419   0.695   0.276  12.768 -0.6200 -1.5900  2.3082
  190DOPC    HY23420   0.868   0.330  12.729  0.8067 -0.2108 -0.0278
  190DOPC   O3123421   0.817   0.363  12.929 -0.1928 -0.3755 -0.0235
  190DOPC   C3123422   0.712   0.368  13.004  0.5614  0.1123 -0.8127
  190DOPC   O3223423   0.603   0.334  12.974  0.1745  0.2642 -0.3416
  190DOPC   C3223424   0.734   0.463  13.125  0.0213  0.6059  0.0478
  190DOPC   H2X23425   0.839   0.439  13.154  0.6177  1.1055 -1.5823
  190DOPC   H2Y23426   0.726   0.563  13.078  1.9317  0.9411  0.3543
  190DOPC   C2323427   0.596   0.030  13.181  0.3175  0.3157 -1.2456
  190DOPC   H3R23428   0.492  -0.008  13.194 -0.1835  1.6790 -1.0998
  190DOPC   H3S23429   0.572   0.136  13.157 -1.3907  0.6624  1.5334
  190DOPC   C2423430   0.663   0.016  13.319  0.3449 -0.0753 -0.4371
  190DOPC   H4R23431   0.766   0.057  13.320  0.5639 -0.6190  1.0064
  190DOPC   H4S23432   0.670  -0.094  13.337  0.8517  0.2015  1.2142
  190DOPC   C2523433   0.588   0.089  13.431  0.3782 -0.1815 -0.3763
  190DOPC   H5R23434   0.480   0.065  13.427  0.1562  0.8936 -3.0762
  190DOPC   H5S23435   0.605   0.193  13.396  1.4083 -0.1305  0.2267
  190DOPC   C2623436   0.648   0.078  13.567 -0.2758  0.2310 -0.7735
  190DOPC   H6R23437   0.754   0.111  13.570 -0.5099  0.9505  0.4903
  190DOPC   H6S23438   0.640  -0.028  13.600  0.3209  0.1977 -0.7365
  190DOPC   C2723439   0.567   0.166  13.664  0.3467  0.8450 -0.0987
  190DOPC   H7R23440   0.469   0.114  13.667  0.8970 -0.1818  0.5875
  190DOPC   H7S23441   0.562   0.263  13.611  3.0996  0.5131 -1.1515
  190DOPC   C2823442   0.639   0.182  13.801  0.0143  0.1343  0.2066
  190DOPC   H8R23443   0.737   0.234  13.790  0.1131  0.0686  0.7343
  190DOPC   H8S23444   0.651   0.078  13.840  0.2979 -0.4659 -1.4338
  190DOPC   C2923445   0.555   0.246  13.906 -0.4331 -0.0231 -0.7728
  190DOPC   H9R23446   0.520   0.348  13.881 -0.7470 -0.1288 -0.7749
  190DOPC  C21023447   0.507   0.191  14.021 -0.1749  0.8782 -0.2337
  190DOPC  H10R23448   0.448   0.255  14.088  0.5579  0.7824  0.5209
  190DOPC  C21123449   0.523   0.052  14.086  0.2585 -0.2804 -0.2609
  190DOPC  H11R23450   0.612  -0.006  14.052 -0.2269 -1.0628 -0.2052
  190DOPC  H11S23451   0.430  -0.004  14.061 -1.0422  1.5585  0.2339
  190DOPC  C21223452   0.519   0.084  14.240 -0.0058 -0.1532  0.1870
  190DOPC  H12R23453   0.445   0.156  14.282 -1.2203 -0.7266 -0.9112
  190DOPC  H12S23454   0.612   0.134  14.276 -1.4047  0.1932  3.8207
  190DOPC  C21323455   0.531  -0.065  14.295 -0.2503  0.5822  0.0891
  190DOPC  H13R23456   0.586  -0.050  14.391 -1.0581  0.9432  0.5078
  190DOPC  H13S23457   0.582  -0.132  14.223  2.6401  2.0183  0.6440
  190DOPC  C21423458   0.392  -0.125  14.324  0.1721 -0.6391  0.4084
  190DOPC  H14R23459   0.319  -0.123  14.240 -0.8257 -0.4935  1.2543
  190DOPC  H14S23460   0.350  -0.057  14.401 -1.5579 -2.0472  0.7848
  190DOPC  C21523461   0.404  -0.264  14.389  0.0875  0.3688 -0.1116
  190DOPC  H15R23462   0.487  -0.257  14.463  0.3953 -1.2265 -0.2788
  190DOPC  H15S23463   0.432  -0.329  14.304  0.2518  0.8337 -0.4191
  190DOPC  C21623464   0.278  -0.321  14.452  0.1652  0.4017 -0.0972
  190DOPC  H16R23465   0.201  -0.341  14.375  1.8281 -1.6316 -1.3432
  190DOPC  H16S23466   0.233  -0.260  14.533 -0.2638 -1.5730  1.2455
  190DOPC  C21723467   0.311  -0.446  14.526 -0.3928 -0.0587  0.8254
  190DOPC  H17R23468   0.356  -0.421  14.625 -1.3203 -2.5962  1.9774
  190DOPC  H17S23469   0.388  -0.504  14.471 -0.1758  1.3372 -0.4131
  190DOPC  C21823470   0.193  -0.537  14.544 -0.5424  0.7335 -0.5909
  190DOPC  H18R23471   0.170  -0.580  14.444  3.4197 -0.4266 -1.1743
  190DOPC  H18S23472   0.107  -0.483  14.590 -0.2451  1.5781 -0.9968
  190DOPC  H18T23473   0.218  -0.630  14.599 -1.0816  1.0017  0.1333
  190DOPC   C3323474   0.621   0.442  13.224 -0.0272  0.2781  0.3361
  190DOPC   H3X23475   0.639   0.334  13.244  0.5231 -0.2279 -2.4160
  190DOPC   H3Y23476   0.516   0.449  13.187 -0.2299 -0.8873  0.6418
  190DOPC   C3423477   0.627   0.521  13.357 -0.5302  0.0990  0.2642
  190DOPC   H4X23478   0.625   0.629  13.333 -0.9317 -0.1711 -1.0059
  190DOPC   H4Y23479   0.716   0.495  13.418 -0.1378  1.5374  0.3420
  190DOPC   C3523480   0.500   0.498  13.436 -0.0956 -0.1555 -0.0961
  190DOPC   H5X23481   0.501   0.393  13.473  1.9026 -0.6268 -1.3046
  190DOPC   H5Y23482   0.417   0.515  13.364 -1.2475  4.4383  1.9776
  190DOPC   C3623483   0.493   0.592  13.553  0.5601 -0.3476 -0.0643
  190DOPC   H6X23484   0.589   0.618  13.602 -0.2059  0.7378  0.9059
  190DOPC   H6Y23485   0.445   0.684  13.514 -1.3925 -1.1983  0.2266
  190DOPC   C3723486   0.401   0.546  13.669  0.5039 -0.0982  0.2283
  190DOPC   H7X23487   0.293   0.547  13.643  0.0619 -0.5663  1.9337
  190DOPC   H7Y23488   0.441   0.446  13.697  2.3081 -0.8598 -4.2002
  190DOPC   C3823489   0.411   0.635  13.789  0.2046  0.1612 -0.8883
  190DOPC   H8X23490   0.364   0.733  13.766 -1.1030  0.0359  1.0865
  190DOPC   H8Y23491   0.517   0.663  13.805  0.4687 -0.5165 -1.3954
  190DOPC   C3923492   0.351   0.595  13.913 -0.2474 -0.1533 -0.0162
  190DOPC   H9X23493   0.243   0.579  13.917 -0.0427 -1.4500  2.2768
  190DOPC  C31023494   0.419   0.571  14.029  0.6536 -0.0891 -0.5341
  190DOPC  H10X23495   0.353   0.547  14.113 -2.2678 -0.1501 -2.6656
  190DOPC  C31123496   0.569   0.572  14.060 -0.2298 -1.1148  0.4749
  190DOPC  H11X23497   0.610   0.640  13.982 -0.2832  0.6927  1.9554
  190DOPC  H11Y23498   0.617   0.473  14.048  2.9329  0.2513  0.9568
  190DOPC  C31223499   0.604   0.618  14.203 -0.3437 -0.0281  0.5843
  190DOPC  H12X23500   0.561   0.548  14.277 -0.2773 -2.0977 -1.2130
  190DOPC  H12Y23501   0.556   0.714  14.230 -0.3333  0.3375 -0.6141
  190DOPC  C31323502   0.752   0.611  14.242 -0.3410  0.5987 -0.0367
  190DOPC  H13X23503   0.791   0.507  14.233 -0.0969  0.2585  3.3688
  190DOPC  H13Y23504   0.820   0.660  14.169  1.8366 -1.4386  0.4774
  190DOPC  C31423505   0.772   0.652  14.387  0.0852 -0.5820 -0.7413
  190DOPC  H14X23506   0.728   0.753  14.402  2.2016  0.2136  0.5603
  190DOPC  H14Y23507   0.709   0.591  14.455 -0.7383  0.5793 -0.4248
  190DOPC  C31523508   0.921   0.632  14.440  0.1871  0.1503 -0.2036
  190DOPC  H15X23509   0.985   0.687  14.368  1.4070 -1.1316 -0.1328
  190DOPC  H15Y23510   0.939   0.524  14.422  0.4097  0.2273 -0.4441
  190DOPC  C31623511   0.954   0.671  14.581  0.5829  0.6256  0.2115
  190DOPC  H16X23512   0.935   0.780  14.584  1.1127  0.9375 -3.2565
  190DOPC  H16Y23513   0.887   0.616  14.651  0.9404 -0.0469  0.0379
  190DOPC  C31723514   1.104   0.653  14.616  0.2969  0.4765 -0.2275
  190DOPC  H17X23515   1.126   0.561  14.557 -1.4273  0.4110 -0.8191
  190DOPC  H17Y23516   1.162   0.738  14.576 -0.1302  0.1975 -1.4969
  190DOPC  C31823517   1.128   0.648  14.769  0.0109 -0.2499  0.3371
  190DOPC  H18X23518   1.064   0.568  14.812  0.2470  0.4097  2.0050
  190DOPC  H18Y23519   1.231   0.620  14.796  0.5810  1.1977 -0.2258
  190DOPC  H18Z23520   1.102   0.743  14.821  0.8083 -0.0318  0.3412
  191DOPC     N23521   4.930   0.431  12.695 -0.0538  0.1042 -0.5826
  191DOPC   C1223522   4.824   0.490  12.602  0.5417  0.6452  0.1629
  191DOPC  H12A23523   4.775   0.404  12.559  0.8936  0.4883  0.0731
  191DOPC  H12B23524   4.874   0.530  12.515 -1.9558 -0.1652 -1.7674
  191DOPC   C1323525   5.009   0.338  12.608 -0.3760  0.7350 -0.5519
  191DOPC  H13A23526   4.958   0.245  12.593  2.7269 -0.8182 -2.5353
  191DOPC  H13B23527   5.031   0.383  12.513  0.0476  1.0536 -0.3095
  191DOPC  H13C23528   5.101   0.304  12.654 -0.9522 -0.2074 -0.0723
  191DOPC   C1423529   4.872   0.343  12.809  0.1654 -0.0059  0.4506
  191DOPC  H14A23530   4.803   0.403  12.866  1.6353  0.0220  2.3044
  191DOPC  H14B23531   4.820   0.254  12.777 -0.0403  0.0202  0.7039
  191DOPC  H14C23532   4.944   0.316  12.885 -0.5913 -2.2612  0.4578
  191DOPC   C1523533   5.017   0.534  12.753  0.2656 -0.1473 -0.5455
  191DOPC  H15A23534   5.048   0.608  12.680  0.1829 -1.0547 -1.5152
  191DOPC  H15B23535   5.103   0.485  12.797 -1.1696 -0.9641  1.4669
  191DOPC  H15C23536   4.969   0.600  12.824 -2.2033  0.5722 -2.7328
  191DOPC   C1123537   4.712   0.587  12.661 -0.9866  0.0554  0.2182
  191DOPC  H11A23538   4.646   0.523  12.724  0.7189 -0.5245  1.4956
  191DOPC  H11B23539   4.761   0.661  12.728 -1.4397 -0.7025  1.4353
  191DOPC     P23540   4.677   0.794  12.504 -0.2316  0.5907 -0.1159
  191DOPC   O1323541   4.565   0.835  12.419  1.0984  0.3023 -0.3522
  191DOPC   O1423542   4.810   0.807  12.440 -0.5475  0.0741 -0.2775
  191DOPC   O1223543   4.641   0.654  12.555 -0.2024 -0.1937 -0.2203
  191DOPC   O1123544   4.675   0.875  12.641 -0.1566  0.2538  0.1910
  191DOPC    C123545   4.544   0.913  12.695  0.1698 -0.7977 -1.0244
  191DOPC    HA23546   4.464   0.890  12.622 -1.8875  1.8704  0.2039
  191DOPC    HB23547   4.538   1.023  12.710 -1.8058 -1.2941  4.1569
  191DOPC    C223548   4.508   0.859  12.836  0.0447 -0.6395 -0.0530
  191DOPC    HS23549   4.499   0.748  12.838 -1.3661 -0.5501 -0.6370
  191DOPC   O2123550   4.373   0.917  12.877  0.4410  0.1675 -0.3455
  191DOPC   C2123551   4.308   0.840  12.957  0.3431  0.0345  0.2397
  191DOPC   O2223552   4.341   0.736  13.006  0.0787  0.7476  0.0598
  191DOPC   C2223553   4.169   0.912  12.982 -0.4795 -0.0135 -0.4738
  191DOPC   H2R23554   4.113   0.919  12.885  1.0237 -0.6257 -1.4216
  191DOPC   H2S23555   4.191   1.019  13.001  0.2944  0.1002 -1.8479
  191DOPC    C323556   4.617   0.895  12.952  0.1509  0.1960  0.3582
  191DOPC    HX23557   4.626   1.003  12.932 -0.1117  0.2467  0.5154
  191DOPC    HY23558   4.716   0.850  12.928  0.7109  2.4504 -2.0768
  191DOPC   O3123559   4.579   0.876  13.085 -0.3791  0.1176 -0.3444
  191DOPC   C3123560   4.675   0.913  13.167 -0.4293  0.2414  0.0839
  191DOPC   O3223561   4.785   0.952  13.135 -0.3915  0.5572 -0.0619
  191DOPC   C3223562   4.632   0.886  13.317 -0.3166 -0.1678  0.4350
  191DOPC   H2X23563   4.532   0.934  13.316 -1.2141 -1.9193  1.1432
  191DOPC   H2Y23564   4.614   0.776  13.322 -1.2544 -0.1739 -1.6739
  191DOPC   C2323565   4.084   0.850  13.090 -0.0714 -0.5240  0.0299
  191DOPC   H3R23566   4.114   0.745  13.111 -0.4866  0.1991  5.9465
  191DOPC   H3S23567   3.979   0.852  13.052 -0.3684 -0.3186  0.8282
  191DOPC   C2423568   4.087   0.927  13.231  0.7961  0.2072  0.1781
  191DOPC   H4R23569   3.985   0.925  13.275  0.0943  2.4292 -1.1158
  191DOPC   H4S23570   4.102   1.036  13.211 -0.5424  0.6029  1.1754
  191DOPC   C2523571   4.197   0.872  13.321 -0.8275  0.2659  0.1120
  191DOPC   H5R23572   4.297   0.879  13.274 -1.0051  1.2605 -0.1308
  191DOPC   H5S23573   4.175   0.767  13.351 -0.6468  0.1473 -0.1681
  191DOPC   C2623574   4.189   0.951  13.449  0.6073 -0.2723 -0.0998
  191DOPC   H6R23575   4.086   0.943  13.490 -0.1917  0.0468 -1.9791
  191DOPC   H6S23576   4.199   1.060  13.430 -0.5151  0.6764  3.7436
  191DOPC   C2723577   4.300   0.918  13.548 -0.5879 -0.4240 -0.6741
  191DOPC   H7R23578   4.403   0.943  13.515  0.0586 -1.0218  0.8102
  191DOPC   H7S23579   4.294   0.809  13.570  0.2036 -0.2563  0.5006
  191DOPC   C2823580   4.286   0.986  13.687  0.1146  0.4376 -0.3422
  191DOPC   H8R23581   4.177   0.994  13.702 -0.3452 -1.8979 -1.8847
  191DOPC   H8S23582   4.333   1.087  13.687  1.3374 -0.0386  2.3157
  191DOPC   C2923583   4.353   0.911  13.798 -0.0987  0.8745  0.9992
  191DOPC   H9R23584   4.444   0.860  13.764 -1.8536 -0.3777 -2.1361
  191DOPC  C21023585   4.320   0.908  13.928 -0.0907  0.0269  0.0206
  191DOPC  H10R23586   4.397   0.859  13.990  1.2499  0.7524 -1.0115
  191DOPC  C21123587   4.201   0.967  13.999  0.3702 -0.2040 -0.5118
  191DOPC  H11R23588   4.125   0.890  14.026  2.2178 -2.7347 -2.0340
  191DOPC  H11S23589   4.148   1.046  13.942 -0.3623 -0.9610 -0.9136
  191DOPC  C21223590   4.233   1.024  14.131  0.5217 -0.5494 -0.2944
  191DOPC  H12R23591   4.136   1.061  14.170 -0.1149 -1.9017 -0.5164
  191DOPC  H12S23592   4.289   1.120  14.126 -1.9732  1.0005  0.0002
  191DOPC  C21323593   4.276   0.927  14.236  0.0469 -0.4089  0.2567
  191DOPC  H13R23594   4.374   0.877  14.215  2.4538  3.8862  0.0372
  191DOPC  H13S23595   4.200   0.849  14.256 -1.1321  0.5081 -0.4728
  191DOPC  C21423596   4.307   0.995  14.377 -0.5407 -0.7413 -0.8445
  191DOPC  H14R23597   4.230   1.066  14.415  0.3602  0.0801 -0.5068
  191DOPC  H14S23598   4.394   1.064  14.370 -0.8993 -0.2947 -0.9589
  191DOPC  C21523599   4.341   0.891  14.480  0.1327  0.4870  0.1470
  191DOPC  H15R23600   4.443   0.849  14.464 -0.0042  0.1657  0.1136
  191DOPC  H15S23601   4.272   0.806  14.464 -0.7440  1.3850 -0.9903
  191DOPC  C21623602   4.322   0.934  14.623 -0.0148  0.3576 -1.0146
  191DOPC  H16R23603   4.257   0.856  14.668 -1.8968  2.3972  0.0130
  191DOPC  H16S23604   4.277   1.036  14.623  2.1133  1.3661 -1.6870
  191DOPC  C21723605   4.450   0.928  14.703 -0.4768  0.4795 -0.6280
  191DOPC  H17R23606   4.533   0.960  14.637  1.4953 -0.5540  1.2609
  191DOPC  H17S23607   4.469   0.821  14.723 -0.4457  0.7301  0.7824
  191DOPC  C21823608   4.460   0.996  14.835  0.7822 -0.2058 -0.0045
  191DOPC  H18R23609   4.559   0.977  14.882  1.3127 -0.7635 -1.2988
  191DOPC  H18S23610   4.377   0.967  14.903 -0.2728  0.5945 -0.9023
  191DOPC  H18T23611   4.448   1.105  14.820 -2.0426 -0.1160  2.0050
  191DOPC   C3323612   4.733   0.928  13.418  0.0683  0.1468  0.0248
  191DOPC   H3X23613   4.835   0.890  13.394  0.5674  2.7007 -2.5202
  191DOPC   H3Y23614   4.705   0.885  13.516 -1.4385 -0.5421 -0.6853
  191DOPC   C3423615   4.744   1.078  13.441  0.2523 -0.1412  0.4543
  191DOPC   H4X23616   4.642   1.121  13.444 -0.4735 -1.3468 -2.8773
  191DOPC   H4Y23617   4.808   1.126  13.364 -0.6333 -0.8774 -0.7696
  191DOPC   C3523618   4.803   1.111  13.579 -0.7349  0.6485 -0.3639
  191DOPC   H5X23619   4.835   1.217  13.590  1.0784  0.2388 -1.2289
  191DOPC   H5Y23620   4.903   1.065  13.595 -0.6607  0.8489 -0.2451
  191DOPC   C3623621   4.714   1.069  13.702 -0.0934  0.2390  0.1150
  191DOPC   H6X23622   4.609   1.083  13.670  0.1994 -1.1544 -1.5732
  191DOPC   H6Y23623   4.723   0.961  13.727  1.7524  0.3511  0.1129
  191DOPC   C3723624   4.742   1.155  13.828  0.4302  0.6238 -0.2363
  191DOPC   H7X23625   4.845   1.137  13.866  0.7009  1.0524 -0.7685
  191DOPC   H7Y23626   4.737   1.260  13.793 -0.9306  0.1530 -1.5296
  191DOPC   C3823627   4.646   1.133  13.946  0.1151  0.5560  0.2495
  191DOPC   H8X23628   4.666   1.035  13.995 -1.1476  0.1333 -0.0631
  191DOPC   H8Y23629   4.544   1.114  13.907 -0.3821 -0.1668  1.7837
  191DOPC   C3923630   4.648   1.244  14.045 -0.8428 -0.4411  0.7334
  191DOPC   H9X23631   4.562   1.312  14.047 -0.7122 -0.1715 -0.9282
  191DOPC  C31023632   4.741   1.265  14.142  0.3610 -0.4549  0.1759
  191DOPC  H10X23633   4.730   1.366  14.185  1.5997  0.3143 -1.1887
  191DOPC  C31123634   4.863   1.194  14.185  0.0432  0.0436 -0.4744
  191DOPC  H11X23635   4.947   1.266  14.177 -0.2000  0.2849 -0.9044
  191DOPC  H11Y23636   4.882   1.111  14.115 -0.9602 -1.6147  1.1283
  191DOPC  C31223637   4.852   1.145  14.329 -0.1948  0.6071  0.0877
  191DOPC  H12X23638   4.948   1.096  14.357 -0.9902  0.2521  2.3827
  191DOPC  H12Y23639   4.768   1.073  14.336 -0.7216  1.4123  3.7790
  191DOPC  C31323640   4.827   1.251  14.444  0.0987 -0.0872  0.0143
  191DOPC  H13X23641   4.914   1.319  14.436  0.8102 -0.9960 -0.1511
  191DOPC  H13Y23642   4.744   1.318  14.413 -0.8706 -1.0186  0.5274
  191DOPC  C31423643   4.823   1.184  14.579  0.0039  0.1513 -0.1410
  191DOPC  H14X23644   4.719   1.147  14.588 -0.2551  0.7472 -0.6051
  191DOPC  H14Y23645   4.891   1.097  14.589 -1.5832 -0.9828  1.2627
  191DOPC  C31523646   4.847   1.283  14.697 -0.1830 -0.1752  0.4373
  191DOPC  H15X23647   4.845   1.384  14.651  0.3950 -0.6602 -0.6633
  191DOPC  H15Y23648   4.948   1.263  14.738  0.6741  2.7067 -0.0311
  191DOPC  C31623649   4.738   1.257  14.804 -0.3302  0.0732  0.2268
  191DOPC  H16X23650   4.705   1.153  14.824  0.5360  0.1201  2.0821
  191DOPC  H16Y23651   4.792   1.283  14.897 -0.3238 -0.7418  0.4591
  191DOPC  C31723652   4.613   1.338  14.792  0.5994 -0.1319 -0.1707
  191DOPC  H17X23653   4.628   1.423  14.722  1.1010  0.8962  1.1726
  191DOPC  H17Y23654   4.535   1.271  14.747  0.7920  1.0829 -2.4799
  191DOPC  C31823655   4.556   1.395  14.923 -0.7727  0.0867  0.3132
  191DOPC  H18X23656   4.572   1.317  15.001 -1.2664 -0.5990 -0.2661
  191DOPC  H18Y23657   4.619   1.484  14.947 -0.2089 -0.6997  1.9406
  191DOPC  H18Z23658   4.448   1.419  14.920 -0.7898  0.0679  0.7174
  192DOPC     N23659   6.322   4.119  12.132  0.0743 -0.3076  0.9204
  192DOPC   C1223660   6.279   3.988  12.204 -0.0357  0.1451 -0.1520
  192DOPC  H12A23661   6.367   3.934  12.235 -1.4089 -1.3739  1.2707
  192DOPC  H12B23662   6.243   3.921  12.127  1.5726  0.3429 -1.1238
  192DOPC   C1323663   6.373   4.211  12.235  1.1510  0.2488  0.0987
  192DOPC  H13A23664   6.297   4.242  12.305 -1.1444 -1.5446 -1.4237
  192DOPC  H13B23665   6.461   4.173  12.285  0.8302  0.6353  0.9750
  192DOPC  H13C23666   6.401   4.298  12.178 -0.2824  1.8516  1.7395
  192DOPC   C1423667   6.218   4.178  12.042 -0.2141  0.5298  0.0476
  192DOPC  H14A23668   6.249   4.274  12.003  0.4569  0.2581 -0.0911
  192DOPC  H14B23669   6.196   4.110  11.960  0.3879 -2.5747  2.2757
  192DOPC  H14C23670   6.127   4.201  12.096 -0.9427 -0.5377 -0.6688
  192DOPC   C1523671   6.434   4.070  12.041 -0.0308 -0.5668 -0.5691
  192DOPC  H15A23672   6.398   4.011  11.958 -0.6958 -0.3119 -0.4640
  192DOPC  H15B23673   6.510   4.013  12.094  0.4984 -0.5196 -1.2575
  192DOPC  H15C23674   6.483   4.150  11.988 -1.2689 -0.5035 -1.6680
  192DOPC   C1123675   6.176   4.006  12.317  0.5095  0.3072 -0.3698
  192DOPC  H11A23676   6.160   3.900  12.346  0.1336  0.0159 -1.5566
  192DOPC  H11B23677   6.237   4.055  12.396  1.3829  0.7967 -1.3168
  192DOPC     P23678   5.938   4.035  12.212  0.0225 -0.1089  0.0101
  192DOPC   O1323679   5.965   3.922  12.122 -0.3346  0.0263  0.3429
  192DOPC   O1423680   5.873   4.156  12.148  0.3413 -0.3370  0.1733
  192DOPC   O1223681   6.064   4.081  12.283 -0.0866 -0.3739 -0.0173
  192DOPC   O1123682   5.844   3.987  12.335 -0.2877 -0.6334 -0.0183
  192DOPC    C123683   5.875   3.887  12.433 -0.2674 -0.7949  0.4313
  192DOPC    HA23684   5.979   3.850  12.423 -0.0400 -0.2645  0.8036
  192DOPC    HB23685   5.806   3.801  12.419 -0.5825 -0.2879 -1.4317
  192DOPC    C223686   5.866   3.931  12.580 -0.1882 -0.0652 -0.0017
  192DOPC    HS23687   5.880   3.839  12.641  3.2193  0.2056 -0.2081
  192DOPC   O2123688   5.736   3.987  12.610  0.4389  0.2611 -0.6698
  192DOPC   C2123689   5.629   3.916  12.592 -0.3559 -0.2485 -0.0535
  192DOPC   O2223690   5.625   3.798  12.558  0.2083 -0.4354 -0.0128
  192DOPC   C2223691   5.506   3.996  12.625 -0.2200 -0.7241 -0.1127
  192DOPC   H2R23692   5.437   4.013  12.540  0.5685 -1.0680 -0.8367
  192DOPC   H2S23693   5.542   4.091  12.670  3.0143 -1.3108 -1.1790
  192DOPC    C323694   5.976   4.026  12.625 -0.0803  0.4520 -0.0132
  192DOPC    HX23695   5.949   4.121  12.574 -3.3130 -0.7290 -0.7340
  192DOPC    HY23696   6.073   3.989  12.585  1.4247  2.6438  1.3706
  192DOPC   O3123697   6.002   4.050  12.766 -0.3377 -0.0755  0.3228
  192DOPC   C3123698   6.038   3.943  12.852 -0.0853 -0.0975  0.1861
  192DOPC   O3223699   6.061   3.831  12.807  0.1657 -0.2673 -0.3247
  192DOPC   C3223700   6.047   3.996  12.990  0.2057  0.0219 -1.1389
  192DOPC   H2X23701   6.087   4.100  12.991  0.0009  0.1113 -1.7218
  192DOPC   H2Y23702   5.948   3.996  13.040  0.4663 -1.9437 -0.5454
  192DOPC   C2323703   5.430   3.928  12.745 -0.9665 -0.4648 -0.1353
  192DOPC   H3R23704   5.490   3.927  12.839 -2.6380 -2.9887  0.9990
  192DOPC   H3S23705   5.399   3.824  12.723 -0.1558 -1.0926  1.4902
  192DOPC   C2423706   5.308   4.017  12.769 -0.6304  0.3336 -0.6125
  192DOPC   H4R23707   5.239   4.024  12.683 -2.6907  2.4559  1.0807
  192DOPC   H4S23708   5.346   4.115  12.805  0.1475 -0.5880  1.2381
  192DOPC   C2523709   5.231   3.961  12.889  0.5447 -0.5507 -0.5628
  192DOPC   H5R23710   5.215   3.852  12.876 -2.7064 -0.2287 -0.1435
  192DOPC   H5S23711   5.124   3.987  12.873  0.9797  0.2780 -2.3929
  192DOPC   C2623712   5.274   4.012  13.030  0.4215 -0.0644 -0.1768
  192DOPC   H6R23713   5.307   4.117  13.019 -0.5602  0.5577  2.3008
  192DOPC   H6S23714   5.364   3.952  13.057  0.6783  0.3248 -0.1661
  192DOPC   C2723715   5.168   3.991  13.138  0.0858 -0.0007 -0.9702
  192DOPC   H7R23716   5.133   3.885  13.137 -0.8322  0.2277  1.2191
  192DOPC   H7S23717   5.089   4.060  13.102 -1.3946 -1.0906  0.0756
  192DOPC   C2823718   5.227   4.037  13.271 -0.7853 -0.5530 -0.6837
  192DOPC   H8R23719   5.147   4.049  13.347 -0.9793 -0.8801 -0.8314
  192DOPC   H8S23720   5.278   4.135  13.258 -2.2481  0.4919  1.0042
  192DOPC   C2923721   5.332   3.936  13.324  0.0832 -0.6844 -0.0660
  192DOPC   H9R23722   5.369   3.867  13.247  0.2384  0.9595 -1.5446
  192DOPC  C21023723   5.346   3.898  13.454  0.3513  0.8733 -1.0330
  192DOPC  H10R23724   5.413   3.814  13.474  1.3816  2.1726  1.4278
  192DOPC  C21123725   5.275   3.966  13.574 -0.0998 -0.2252  0.1063
  192DOPC  H11R23726   5.164   3.959  13.575 -0.1907  0.6299 -1.3605
  192DOPC  H11S23727   5.304   4.073  13.566 -0.4737 -0.1665 -0.6168
  192DOPC  C21223728   5.337   3.903  13.703 -0.9467  0.0773  0.2343
  192DOPC  H12R23729   5.440   3.942  13.707 -0.2974 -1.6125  0.8173
  192DOPC  H12S23730   5.353   3.794  13.692 -2.3789  0.0916 -3.6221
  192DOPC  C21323731   5.260   3.947  13.824 -0.2208  0.4088  0.5116
  192DOPC  H13R23732   5.191   3.864  13.849 -0.0562  0.5951  1.6364
  192DOPC  H13S23733   5.195   4.034  13.797 -1.4617 -0.5600  0.2726
  192DOPC  C21423734   5.350   3.981  13.943  0.4819 -0.0988  0.7467
  192DOPC  H14R23735   5.427   4.052  13.907 -0.0198  0.0683 -0.0299
  192DOPC  H14S23736   5.404   3.886  13.965  0.2463 -0.9439 -1.8918
  192DOPC  C21523737   5.268   4.019  14.069 -0.7350 -0.4319 -0.2706
  192DOPC  H15R23738   5.199   3.934  14.086 -1.4629  0.0538 -0.7265
  192DOPC  H15S23739   5.209   4.111  14.051 -0.1685 -0.1007 -0.4806
  192DOPC  C21623740   5.348   4.056  14.195 -0.4022 -0.5572  0.0005
  192DOPC  H16R23741   5.364   3.958  14.247 -1.9150 -1.4615 -1.1669
  192DOPC  H16S23742   5.288   4.121  14.263 -0.3315 -1.2078  0.6961
  192DOPC  C21723743   5.488   4.113  14.159 -0.7414  0.6731 -0.3745
  192DOPC  H17R23744   5.475   4.190  14.080  3.0691  1.3660 -0.4938
  192DOPC  H17S23745   5.540   4.026  14.112  0.3479 -0.6547  2.9810
  192DOPC  C21823746   5.556   4.172  14.280 -0.1293 -0.2268 -0.7656
  192DOPC  H18R23747   5.568   4.104  14.367 -2.6199  1.2988  0.9212
  192DOPC  H18S23748   5.488   4.250  14.321  0.9147  0.1780  0.2632
  192DOPC  H18T23749   5.643   4.238  14.260 -1.8120  2.3068 -0.3185
  192DOPC   C3323750   6.138   3.912  13.084  0.1064  0.8691 -0.2458
  192DOPC   H3X23751   6.225   3.874  13.027  0.6083  0.8724  0.5073
  192DOPC   H3Y23752   6.078   3.823  13.112 -1.9548  1.6144 -2.0348
  192DOPC   C3423753   6.183   3.986  13.211  0.6124 -0.0327  0.1469
  192DOPC   H4X23754   6.215   4.089  13.185  1.7560 -0.3070  0.4045
  192DOPC   H4Y23755   6.273   3.932  13.248  0.6160 -1.4938 -1.8199
  192DOPC   C3523756   6.080   3.974  13.324  0.4463 -0.0985 -0.7310
  192DOPC   H5X23757   6.041   3.871  13.337 -4.0609  1.7010  2.5549
  192DOPC   H5Y23758   5.993   4.035  13.291 -1.1623 -1.6417  0.4919
  192DOPC   C3623759   6.135   4.021  13.468 -1.2188 -0.0833 -0.1215
  192DOPC   H6X23760   6.219   3.953  13.497  0.1095  1.4944 -0.0964
  192DOPC   H6Y23761   6.168   4.127  13.469 -2.4142  0.3009  1.0123
  192DOPC   C3723762   6.027   4.015  13.577 -0.2184 -0.0569 -0.3263
  192DOPC   H7X23763   5.936   4.060  13.532 -0.1085  0.1440 -0.3441
  192DOPC   H7Y23764   6.003   3.906  13.578 -1.2243  0.0966 -2.4783
  192DOPC   C3823765   6.065   4.077  13.707 -1.1910  0.2856  0.9390
  192DOPC   H8X23766   6.075   4.187  13.696  0.1208 -0.0264 -1.9239
  192DOPC   H8Y23767   6.170   4.052  13.735 -0.9689 -1.8294 -1.4460
  192DOPC   C3923768   5.971   4.033  13.819  0.1104  0.3198  0.1744
  192DOPC   H9X23769   5.867   4.026  13.786  0.0886  0.0399  0.3020
  192DOPC  C31023770   5.988   4.022  13.950 -0.2346  0.0282 -0.0174
  192DOPC  H10X23771   5.906   3.972  14.003  1.1845 -1.0654  1.2733
  192DOPC  C31123772   6.119   4.029  14.030 -0.0310  0.1525 -0.0477
  192DOPC  H11X23773   6.191   4.102  13.986  0.8422 -0.1048  0.9037
  192DOPC  H11Y23774   6.184   3.939  14.027 -0.8311 -0.4698 -3.9291
  192DOPC  C31223775   6.090   4.060  14.180 -0.2040  0.3617 -0.2750
  192DOPC  H12X23776   6.015   3.985  14.214 -0.2649  0.0925 -0.9956
  192DOPC  H12Y23777   6.041   4.159  14.194  0.1928  0.3156  1.8785
  192DOPC  C31323778   6.219   4.057  14.265  0.3506 -0.6642  0.2440
  192DOPC  H13X23779   6.299   3.992  14.225  0.9731  1.6853 -2.7038
  192DOPC  H13Y23780   6.265   4.158  14.261 -0.9565  0.0874  2.3529
  192DOPC  C31423781   6.199   4.020  14.417 -0.5062  0.1040  0.1028
  192DOPC  H14X23782   6.179   3.911  14.408  1.2709 -0.0954 -2.7416
  192DOPC  H14Y23783   6.296   4.026  14.470  0.3208  0.1406 -1.3602
  192DOPC  C31523784   6.077   4.088  14.484  0.7300 -0.2353  0.0670
  192DOPC  H15X23785   5.987   4.041  14.439  0.4809 -0.3360  0.6600
  192DOPC  H15Y23786   6.074   4.195  14.455  1.0298 -0.1621  0.3032
  192DOPC  C31623787   6.056   4.045  14.632 -0.0853  0.1206 -0.0562
  192DOPC  H16X23788   6.020   3.940  14.633  0.5552 -0.1185  1.7969
  192DOPC  H16Y23789   6.137   4.058  14.707 -0.2857 -1.2850  0.4266
  192DOPC  C31723790   5.932   4.121  14.695  0.2555 -0.0588 -0.0479
  192DOPC  H17X23791   5.914   4.072  14.793  2.9944 -1.4503 -0.1294
  192DOPC  H17Y23792   5.967   4.224  14.717  0.3616  0.3535 -1.9674
  192DOPC  C31823793   5.797   4.121  14.620  0.0970  0.8558 -0.2898
  192DOPC  H18X23794   5.756   4.020  14.597 -0.9566  1.6225 -2.0051
  192DOPC  H18Y23795   5.718   4.171  14.679 -0.1945 -1.1894  1.1970
  192DOPC  H18Z23796   5.802   4.173  14.522  3.6870  0.7933 -0.2707
  193DOPC     N23797   6.322   1.440  12.308  0.2688 -0.1846 -0.6265
  193DOPC   C1223798   6.223   1.395  12.421  0.3135  0.4947  0.0076
  193DOPC  H12A23799   6.222   1.287  12.425  1.1132  0.4375 -0.8935
  193DOPC  H12B23800   6.121   1.422  12.400 -0.5887 -1.6005  1.4165
  193DOPC   C1323801   6.315   1.348  12.195 -0.4823 -0.4138 -0.0977
  193DOPC  H13A23802   6.221   1.363  12.144 -0.1421  2.1643 -0.0989
  193DOPC  H13B23803   6.393   1.366  12.122 -1.0622  4.5370  0.1249
  193DOPC  H13C23804   6.317   1.245  12.227  0.2749 -0.7167 -1.0667
  193DOPC   C1423805   6.464   1.445  12.354 -0.1267 -0.8980 -0.0009
  193DOPC  H14A23806   6.515   1.358  12.392  0.2441 -0.2376  1.0921
  193DOPC  H14B23807   6.525   1.489  12.277 -0.9540 -0.9971 -0.7225
  193DOPC  H14C23808   6.465   1.496  12.450  0.1149 -1.0265  0.0672
  193DOPC   C1523809   6.290   1.581  12.256  0.0241  0.4537 -0.4786
  193DOPC  H15A23810   6.272   1.643  12.342 -1.6325 -3.0100  1.9011
  193DOPC  H15B23811   6.205   1.577  12.189  0.0863  0.6372 -0.5683
  193DOPC  H15C23812   6.372   1.606  12.190  0.3518 -0.0488 -0.2637
  193DOPC   C1123813   6.260   1.439  12.567 -0.2632 -0.3491 -0.4344
  193DOPC  H11A23814   6.188   1.398  12.641  0.3258 -1.0222 -0.2154
  193DOPC  H11B23815   6.359   1.398  12.595 -0.2585  0.9122  1.6276
  193DOPC     P23816   6.166   1.660  12.650  0.2478 -0.0471  0.2036
  193DOPC   O1323817   6.042   1.641  12.574 -0.0904  0.1445  0.0818
  193DOPC   O1423818   6.214   1.798  12.676 -0.2514  0.3152 -0.2927
  193DOPC   O1223819   6.273   1.583  12.574 -0.1201  0.0566 -0.1470
  193DOPC   O1123820   6.159   1.575  12.785 -0.0384 -0.1263 -0.3538
  193DOPC    C123821   6.268   1.597  12.882  0.8941  0.0195  0.3412
  193DOPC    HA23822   6.356   1.652  12.842  1.3141  1.2697  2.7770
  193DOPC    HB23823   6.292   1.501  12.932  0.4023 -0.6598 -0.7091
  193DOPC    C223824   6.217   1.697  12.994 -0.2979  0.1595  0.7097
  193DOPC    HS23825   6.227   1.803  12.962  0.1201 -0.1008 -0.0557
  193DOPC   O2123826   6.282   1.673  13.117  0.2979  0.0941  0.4609
  193DOPC   C2123827   6.407   1.708  13.115 -0.8790  0.2601 -0.5769
  193DOPC   O2223828   6.462   1.779  13.038 -0.0540  0.3018  0.0193
  193DOPC   C2223829   6.480   1.647  13.240 -0.2388  1.0805 -0.2422
  193DOPC   H2R23830   6.581   1.694  13.234  0.2801  0.2817  1.6657
  193DOPC   H2S23831   6.491   1.537  13.245  1.0970  1.1572 -0.8658
  193DOPC    C323832   6.062   1.686  13.006 -0.3842  0.3766 -0.0038
  193DOPC    HX23833   6.038   1.581  13.033 -0.0608  0.0085 -1.1125
  193DOPC    HY23834   6.012   1.721  12.913  0.3255 -0.4322 -0.7076
  193DOPC   O3123835   6.014   1.759  13.120 -0.1824  0.1136 -0.1347
  193DOPC   C3123836   5.988   1.885  13.114 -0.2884 -0.0851 -0.5396
  193DOPC   O3223837   6.013   1.961  13.019  0.6084 -0.4243  0.0749
  193DOPC   C3223838   5.938   1.941  13.247  0.3687 -0.2549  0.1955
  193DOPC   H2X23839   5.944   2.052  13.243  1.0826 -0.2071  1.7694
  193DOPC   H2Y23840   5.828   1.923  13.250  0.0398  1.6147  2.3442
  193DOPC   C2323841   6.415   1.700  13.369  0.2959  0.3407 -0.0562
  193DOPC   H3R23842   6.315   1.652  13.366  0.9430 -1.0378 -2.2922
  193DOPC   H3S23843   6.399   1.809  13.357  0.6311  0.3047 -0.9132
  193DOPC   C2423844   6.498   1.671  13.498  0.9708  0.2164 -0.1668
  193DOPC   H4R23845   6.591   1.730  13.485  0.4817  0.7979 -1.1467
  193DOPC   H4S23846   6.523   1.564  13.490  1.0775  0.0952  1.4515
  193DOPC   C2523847   6.408   1.698  13.616  0.5940 -0.2501 -0.2087
  193DOPC   H5R23848   6.316   1.637  13.606 -0.9396  2.2273 -2.4452
  193DOPC   H5S23849   6.384   1.806  13.611 -0.4559 -0.4476  0.2171
  193DOPC   C2623850   6.482   1.671  13.750 -0.3938  0.2003 -0.5751
  193DOPC   H6R23851   6.411   1.708  13.827 -1.7831  0.6334 -2.0073
  193DOPC   H6S23852   6.573   1.734  13.760 -1.1606  1.0819  1.5948
  193DOPC   C2723853   6.514   1.526  13.784 -0.2376 -0.6046  0.4693
  193DOPC   H7R23854   6.587   1.496  13.706 -1.1850  0.5938 -0.9148
  193DOPC   H7S23855   6.421   1.465  13.785 -0.3946 -0.3710  1.6899
  193DOPC   C2823856   6.568   1.515  13.926 -0.9698  0.4324 -0.8067
  193DOPC   H8R23857   6.494   1.549  14.000 -0.2858 -1.5433  0.8780
  193DOPC   H8S23858   6.647   1.593  13.936 -0.6122  0.0428 -0.5201
  193DOPC   C2923859   6.637   1.384  13.960 -0.2525  0.4305  0.1738
  193DOPC   H9R23860   6.710   1.358  13.883 -1.8113 -0.4831 -1.0613
  193DOPC  C21023861   6.609   1.307  14.066  0.0436  0.0511 -0.0562
  193DOPC  H10R23862   6.685   1.230  14.084  1.4716  1.9178  2.5632
  193DOPC  C21123863   6.527   1.344  14.184  0.1176  0.1872  0.2672
  193DOPC  H11R23864   6.435   1.282  14.173 -0.8903  1.6043  0.3923
  193DOPC  H11S23865   6.485   1.447  14.191  0.2193  0.4272 -1.8870
  193DOPC  C21223866   6.590   1.304  14.321  0.1201 -0.0888 -0.3049
  193DOPC  H12R23867   6.683   1.363  14.335  0.5161 -0.4871 -1.1926
  193DOPC  H12S23868   6.627   1.199  14.324  2.2226  0.5948 -0.9755
  193DOPC  C21323869   6.499   1.329  14.444 -0.2927 -0.8067 -0.5169
  193DOPC  H13R23870   6.414   1.258  14.435 -0.3382 -0.6603 -1.2925
  193DOPC  H13S23871   6.477   1.438  14.439  1.4969 -0.4725 -2.2056
  193DOPC  C21423872   6.571   1.300  14.580 -0.2930 -0.4257 -0.1918
  193DOPC  H14R23873   6.617   1.390  14.625 -0.1026 -1.2457  1.3205
  193DOPC  H14S23874   6.648   1.220  14.572  0.4335  0.0202  1.8375
  193DOPC  C21523875   6.471   1.267  14.684  0.5461  0.6675 -0.1695
  193DOPC  H15R23876   6.423   1.170  14.662 -0.3374  1.0439  0.0601
  193DOPC  H15S23877   6.393   1.345  14.696  0.4779  1.1636 -3.0653
  193DOPC  C21623878   6.535   1.254  14.822 -0.2450 -0.8016 -0.0505
  193DOPC  H16R23879   6.605   1.340  14.831 -1.0986 -0.1428  0.4096
  193DOPC  H16S23880   6.592   1.158  14.816  1.2034 -0.0187  0.7464
  193DOPC  C21723881   6.424   1.249  14.931 -0.4855  0.3557 -0.1354
  193DOPC  H17R23882   6.385   1.147  14.914  1.7642 -0.2972 -1.8421
  193DOPC  H17S23883   6.350   1.331  14.913  1.0753  1.4736 -1.8729
  193DOPC  C21823884   6.483   1.253  15.073 -0.6222 -0.1934 -0.4865
  193DOPC  H18R23885   6.569   1.183  15.071 -1.1731 -0.8933  0.1185
  193DOPC  H18S23886   6.416   1.217  15.154  0.0837 -0.2388  0.0930
  193DOPC  H18T23887   6.515   1.357  15.097  0.6408 -0.9408  1.2508
  193DOPC   C3323888   5.998   1.884  13.374  0.0930 -0.2797  0.0391
  193DOPC   H3X23889   6.107   1.886  13.355  0.0478 -0.8530 -0.2659
  193DOPC   H3Y23890   5.988   1.777  13.402 -3.5082 -0.1766 -0.3680
  193DOPC   C3423891   5.971   1.968  13.501  0.2886  0.1489 -0.3818
  193DOPC   H4X23892   5.861   1.966  13.513  0.1210 -1.0051 -1.7935
  193DOPC   H4Y23893   6.010   2.067  13.470 -1.1824  1.0608  0.5817
  193DOPC   C3523894   6.044   1.911  13.623 -0.8982  0.2113 -0.3358
  193DOPC   H5X23895   6.154   1.910  13.603 -0.6449 -0.2614  0.9637
  193DOPC   H5Y23896   6.005   1.808  13.636 -0.2616  0.0547  0.4121
  193DOPC   C3623897   6.031   1.992  13.752  0.3558  0.0516  0.0914
  193DOPC   H6X23898   6.048   2.098  13.725 -2.4667  0.5269 -0.1477
  193DOPC   H6Y23899   5.925   1.984  13.785  0.6643  0.7226  1.2658
  193DOPC   C3723900   6.135   1.947  13.856  0.0875 -0.7791  0.7451
  193DOPC   H7X23901   6.129   1.836  13.865  1.0564 -1.0762 -1.5310
  193DOPC   H7Y23902   6.238   1.969  13.819 -0.1705 -0.1254  0.4038
  193DOPC   C3823903   6.113   2.020  13.992  0.5791 -0.0488  0.5119
  193DOPC   H8X23904   6.099   2.124  13.957  0.1816  0.0680  1.0224
  193DOPC   H8Y23905   6.203   2.010  14.056 -0.1226 -0.0616  1.5144
  193DOPC   C3923906   5.987   1.971  14.067 -0.2487  0.0922 -0.3419
  193DOPC   H9X23907   5.946   1.882  14.017 -0.6437  1.1775 -2.0308
  193DOPC  C31023908   5.959   2.001  14.194  0.3417 -0.0001  0.0413
  193DOPC  H10X23909   5.872   1.954  14.243  0.2208 -0.1588 -0.3267
  193DOPC  C31123910   6.041   2.107  14.268 -0.4745 -0.2585 -0.1323
  193DOPC  H11X23911   5.979   2.193  14.300 -2.9697 -0.9552 -2.6303
  193DOPC  H11Y23912   6.114   2.156  14.199  0.6672 -0.2241  1.0589
  193DOPC  C31223913   6.107   2.061  14.400  0.2058  0.0407  0.4094
  193DOPC  H12X23914   6.160   2.150  14.441  1.5789  0.0684 -1.2977
  193DOPC  H12Y23915   6.181   1.983  14.374 -1.2303 -0.9057 -1.0239
  193DOPC  C31323916   6.017   2.011  14.513 -0.0235  0.3937 -0.3951
  193DOPC  H13X23917   5.929   2.076  14.535  0.3570  0.2253  1.8679
  193DOPC  H13Y23918   5.991   1.911  14.471  1.4682  0.2401 -1.0018
  193DOPC  C31423919   6.075   1.999  14.655 -0.4072 -0.0586 -0.5800
  193DOPC  H14X23920   6.028   1.914  14.709  0.9886 -1.4035 -1.3811
  193DOPC  H14Y23921   6.182   1.973  14.646 -0.5533 -1.8113  1.8108
  193DOPC  C31523922   6.059   2.121  14.740 -0.1809 -0.4717 -0.1886
  193DOPC  H15X23923   5.951   2.130  14.764 -0.1156 -0.2808  0.0289
  193DOPC  H15Y23924   6.091   2.217  14.693  0.6307 -0.1280  1.0219
  193DOPC  C31623925   6.141   2.102  14.867 -0.8309  0.4097 -0.3334
  193DOPC  H16X23926   6.118   2.011  14.926  1.1386 -2.1143 -3.1712
  193DOPC  H16Y23927   6.251   2.101  14.850 -0.4910  2.6759  1.2929
  193DOPC  C31723928   6.122   2.225  14.955  0.2469  0.2795  0.6016
  193DOPC  H17X23929   6.127   2.311  14.884  0.0297 -0.3181 -0.1563
  193DOPC  H17Y23930   6.020   2.233  14.999 -1.1425  0.1835 -2.3608
  193DOPC  C31823931   6.219   2.235  15.075  0.4683 -0.4284  0.3650
  193DOPC  H18X23932   6.198   2.176  15.167  0.4686  1.6585  1.7799
  193DOPC  H18Y23933   6.321   2.218  15.034 -0.3214  0.7363 -2.3023
  193DOPC  H18Z23934   6.215   2.338  15.115  0.1365 -0.7230  1.1205
  194DOPC     N23935   0.298   5.926  12.386  0.0808 -0.0256  0.5311
  194DOPC   C1223936   0.245   5.822  12.487  0.7813 -0.5237  0.0024
  194DOPC  H12A23937   0.215   5.734  12.433 -0.1950  0.2173 -0.7116
  194DOPC  H12B23938   0.155   5.855  12.537 -0.8992 -2.7114 -1.4172
  194DOPC   C1323939   0.412   5.881  12.310  0.0380  0.1429 -0.8374
  194DOPC  H13A23940   0.396   5.795  12.246 -0.4441  0.2941 -0.9244
  194DOPC  H13B23941   0.440   5.959  12.241  0.3484 -1.0904 -2.1642
  194DOPC  H13C23942   0.490   5.843  12.374 -1.1841 -0.0125  0.6088
  194DOPC   C1423943   0.333   6.050  12.454  0.7355 -0.9014 -0.6148
  194DOPC  H14A23944   0.357   6.136  12.393  0.0992  0.2181  0.6636
  194DOPC  H14B23945   0.259   6.086  12.523  1.4418 -1.3773  0.4104
  194DOPC  H14C23946   0.411   6.021  12.523  1.2911 -0.7552 -1.1615
  194DOPC   C1523947   0.190   5.957  12.282 -0.7997 -0.2684 -0.2064
  194DOPC  H15A23948   0.095   5.980  12.326 -0.7200 -1.4149  0.5938
  194DOPC  H15B23949   0.174   5.884  12.204 -2.6340 -1.8160  1.5227
  194DOPC  H15C23950   0.226   6.050  12.241 -1.4274  0.5704  1.1144
  194DOPC   C1123951   0.348   5.790  12.601  0.3741 -0.4341  0.2643
  194DOPC  H11A23952   0.385   5.882  12.650 -1.9655  1.0094 -0.4989
  194DOPC  H11B23953   0.303   5.726  12.681  1.0013  0.5263  1.4081
  194DOPC     P23954   0.487   5.566  12.546 -0.1280  0.2932 -0.0417
  194DOPC   O1323955   0.599   5.523  12.463  0.1053  0.2928 -0.2492
  194DOPC   O1423956   0.357   5.484  12.540 -0.1714  1.0938 -0.3673
  194DOPC   O1223957   0.465   5.722  12.536  0.0926  0.1673  0.1997
  194DOPC   O1123958   0.544   5.550  12.697  0.0358  0.3074  0.0702
  194DOPC    C123959   0.675   5.587  12.734 -0.2400  0.1218  0.1352
  194DOPC    HA23960   0.732   5.639  12.654  0.4187 -0.7160  0.0578
  194DOPC    HB23961   0.732   5.493  12.750 -1.0331 -0.4952 -0.5788
  194DOPC    C223962   0.687   5.663  12.870  0.5103  0.0840  0.0760
  194DOPC    HS23963   0.797   5.679  12.873  0.8334 -1.8612 -0.2420
  194DOPC   O2123964   0.637   5.559  12.955  0.2778  0.1796 -0.3825
  194DOPC   C2123965   0.695   5.569  13.078  0.5691 -0.5303 -0.2549
  194DOPC   O2223966   0.787   5.643  13.108  0.0852 -0.2554  0.0758
  194DOPC   C2223967   0.625   5.479  13.183 -0.0031  0.2831 -0.3599
  194DOPC   H2R23968   0.669   5.378  13.164  0.8071  0.6276 -0.3472
  194DOPC   H2S23969   0.517   5.472  13.159  0.0854 -0.2018 -0.6300
  194DOPC    C323970   0.606   5.795  12.874 -0.4886 -0.6695 -0.5069
  194DOPC    HX23971   0.504   5.781  12.832 -1.1814  1.6031  0.2044
  194DOPC    HY23972   0.660   5.863  12.805  0.3396 -1.2317 -0.4240
  194DOPC   O3123973   0.601   5.855  13.004 -0.0969 -0.6440 -0.2273
  194DOPC   C3123974   0.693   5.938  13.047 -0.5290 -0.2016  0.8974
  194DOPC   O3223975   0.803   5.958  12.991  0.7180 -0.6087 -0.7171
  194DOPC   C3223976   0.645   5.991  13.187 -0.2941 -0.2738 -0.6257
  194DOPC   H2X23977   0.549   6.048  13.183  1.5379  3.5682  2.5805
  194DOPC   H2Y23978   0.616   5.908  13.255 -0.6761 -0.5204 -1.0843
  194DOPC   C2323979   0.651   5.521  13.333 -0.0235  0.2892 -0.4713
  194DOPC   H3R23980   0.759   5.546  13.339  0.0618 -0.2708  0.7077
  194DOPC   H3S23981   0.628   5.425  13.384  2.1903  0.5839  1.2402
  194DOPC   C2423982   0.558   5.635  13.379 -0.6489  0.0058  0.1517
  194DOPC   H4R23983   0.460   5.597  13.413 -0.1525  1.3817  3.4584
  194DOPC   H4S23984   0.556   5.702  13.290  1.3063 -2.0598 -1.5940
  194DOPC   C2523985   0.621   5.696  13.508 -0.3969 -0.3933 -0.9108
  194DOPC   H5R23986   0.719   5.738  13.476 -0.5287 -0.1801 -1.0341
  194DOPC   H5S23987   0.635   5.610  13.577 -3.2094  1.9407  2.9318
  194DOPC   C2623988   0.522   5.794  13.580 -0.0215  0.4446  0.5212
  194DOPC   H6R23989   0.437   5.726  13.601 -0.9067  0.6757 -2.0194
  194DOPC   H6S23990   0.495   5.886  13.525  2.0343  1.4719  1.1121
  194DOPC   C2723991   0.573   5.840  13.715  0.5785 -0.0326 -0.3741
  194DOPC   H7R23992   0.673   5.884  13.695  1.4720 -2.4207 -1.4407
  194DOPC   H7S23993   0.587   5.754  13.783  1.3179 -0.9743 -1.6778
  194DOPC   C2823994   0.480   5.941  13.791 -0.4487 -0.5883  0.5950
  194DOPC   H8R23995   0.384   5.902  13.831 -1.3698  0.1661 -0.8268
  194DOPC   H8S23996   0.451   6.011  13.710  1.1128 -1.8251 -1.1403
  194DOPC   C2923997   0.572   5.998  13.896 -0.2763  0.0778  0.3899
  194DOPC   H9R23998   0.674   6.034  13.873 -0.0834  0.9464  2.3962
  194DOPC  C21023999   0.532   6.040  14.013 -0.9792 -0.0457 -0.0935
  194DOPC  H10R24000   0.609   6.064  14.088 -0.2570  1.4554 -1.2414
  194DOPC  C21124001   0.391   6.034  14.067 -0.4457 -0.0886  0.8078
  194DOPC  H11R24002   0.330   5.955  14.019 -1.1515  0.2428  1.1478
  194DOPC  H11S24003   0.326   6.122  14.049 -2.2595 -1.7977 -1.7398
  194DOPC  C21224004   0.379   5.982  14.212 -0.3394 -0.1984  0.7123
  194DOPC  H12R24005   0.275   5.989  14.249 -1.4247  0.2594 -2.1395
  194DOPC  H12S24006   0.442   6.039  14.284 -0.6804 -0.8648  1.5395
  194DOPC  C21324007   0.423   5.828  14.233 -0.9723 -0.2880  0.3934
  194DOPC  H13R24008   0.457   5.808  14.336 -2.0694  1.0271  1.0376
  194DOPC  H13S24009   0.502   5.799  14.160 -0.2798  0.3691  0.8664
  194DOPC  C21424010   0.308   5.729  14.205  0.4627  0.2050  0.2216
  194DOPC  H14R24011   0.351   5.627  14.206 -0.3684 -0.2274 -1.9308
  194DOPC  H14S24012   0.275   5.741  14.099 -1.4515 -0.7443  0.6660
  194DOPC  C21524013   0.184   5.755  14.295  0.3582  0.5793  0.6209
  194DOPC  H15R24014   0.113   5.672  14.278  1.6074 -0.4908  0.4726
  194DOPC  H15S24015   0.137   5.851  14.263 -2.3270 -1.0499 -0.6631
  194DOPC  C21624016   0.198   5.750  14.441  0.1934  0.2975 -0.0240
  194DOPC  H16R24017   0.097   5.734  14.484  0.3688  0.4765  0.4600
  194DOPC  H16S24018   0.235   5.845  14.485  1.5029 -1.2189  2.4049
  194DOPC  C21724019   0.285   5.628  14.496 -0.3545  0.4504  0.4946
  194DOPC  H17R24020   0.386   5.625  14.451 -0.8570  0.2369 -0.6450
  194DOPC  H17S24021   0.223   5.539  14.468 -2.1989  1.2616  1.7810
  194DOPC  C21824022   0.294   5.628  14.647  0.7912 -0.1913  0.3097
  194DOPC  H18R24023   0.196   5.628  14.698  0.6445  1.1501  0.0677
  194DOPC  H18S24024   0.349   5.717  14.685  3.5028 -0.5506 -2.3393
  194DOPC  H18T24025   0.357   5.546  14.688  1.4834  0.0772 -0.1987
  194DOPC   C3324026   0.742   6.084  13.251 -1.1419 -0.3649  0.2172
  194DOPC   H3X24027   0.767   6.174  13.192  1.6843  0.7830  2.9135
  194DOPC   H3Y24028   0.836   6.029  13.270 -1.4063 -0.5448  1.0841
  194DOPC   C3424029   0.687   6.115  13.395 -0.2997 -0.9453 -0.2868
  194DOPC   H4X24030   0.696   6.019  13.449  0.0156  0.4896  2.3993
  194DOPC   H4Y24031   0.579   6.144  13.394 -0.2817 -0.7418 -2.8641
  194DOPC   C3524032   0.789   6.210  13.464 -0.3218 -0.0307  0.7345
  194DOPC   H5X24033   0.775   6.311  13.419 -2.9521  0.0200  1.5078
  194DOPC   H5Y24034   0.892   6.185  13.432  0.0484 -0.1776  1.9925
  194DOPC   C3624035   0.779   6.209  13.615 -0.7366  0.7873  0.5366
  194DOPC   H6X24036   0.679   6.210  13.664 -0.6351 -0.3502  0.7940
  194DOPC   H6Y24037   0.832   6.121  13.657 -1.1891  0.7539  1.0500
  194DOPC   C3724038   0.845   6.331  13.667  0.0685  0.2904  0.4601
  194DOPC   H7X24039   0.943   6.348  13.618 -1.0537  0.5977 -1.7971
  194DOPC   H7Y24040   0.787   6.419  13.632 -0.4957  0.5322  1.9369
  194DOPC   C3824041   0.867   6.328  13.817  0.5725  0.5411 -1.3150
  194DOPC   H8X24042   0.933   6.414  13.843 -0.5961  1.2575 -0.6359
  194DOPC   H8Y24043   0.921   6.238  13.854  0.8103  0.8054 -1.0084
  194DOPC   C3924044   0.738   6.342  13.889 -0.2642 -0.2735  0.1784
  194DOPC   H9X24045   0.657   6.361  13.817 -0.0175  1.1330  0.2409
  194DOPC  C31024046   0.710   6.342  14.020  0.3633  0.2871 -0.0380
  194DOPC  H10X24047   0.607   6.309  14.037  0.1882  0.6455 -0.3893
  194DOPC  C31124048   0.807   6.326  14.132 -0.3779 -0.4998  0.4885
  194DOPC  H11X24049   0.833   6.430  14.161 -0.8285 -0.6081  1.3181
  194DOPC  H11Y24050   0.901   6.272  14.108  0.5068  1.1478  0.1280
  194DOPC  C31224051   0.740   6.279  14.265  0.2054 -0.1106 -0.4507
  194DOPC  H12X24052   0.703   6.174  14.255  0.6705 -0.1678 -1.6943
  194DOPC  H12Y24053   0.649   6.339  14.285  1.6357  2.5635 -1.5976
  194DOPC  C31324054   0.827   6.276  14.392  0.4386 -0.5508  0.2459
  194DOPC  H13X24055   0.911   6.203  14.385  0.1740 -0.6762 -3.2182
  194DOPC  H13Y24056   0.882   6.372  14.403  0.2898 -0.4933  0.4889
  194DOPC  C31424057   0.747   6.254  14.521  0.8573  0.1373 -0.4558
  194DOPC  H14X24058   0.810   6.281  14.608  0.9112  0.5950 -0.6335
  194DOPC  H14Y24059   0.662   6.325  14.513 -0.6497 -1.7105 -2.1606
  194DOPC  C31524060   0.682   6.117  14.538  0.7290 -0.6106 -0.1604
  194DOPC  H15X24061   0.762   6.043  14.517  3.0523  1.6296  0.3413
  194DOPC  H15Y24062   0.600   6.106  14.463 -0.3018  1.5257  0.5783
  194DOPC  C31624063   0.635   6.102  14.682 -0.2822  0.5299 -0.2487
  194DOPC  H16X24064   0.714   6.065  14.750 -0.3979  3.0643  1.3942
  194DOPC  H16Y24065   0.614   6.203  14.723  2.4170  0.3838  1.7888
  194DOPC  C31724066   0.528   5.995  14.687  0.0546 -0.4327  0.3456
  194DOPC  H17X24067   0.466   6.000  14.595  1.2620  1.2476 -0.4236
  194DOPC  H17Y24068   0.579   5.896  14.681  3.1411  0.9679  1.4673
  194DOPC  C31824069   0.447   5.998  14.819  0.0423  0.1111  0.7573
  194DOPC  H18X24070   0.346   5.953  14.804  1.5598 -3.1763 -0.4137
  194DOPC  H18Y24071   0.508   5.946  14.896 -0.0492  1.6989  1.9411
  194DOPC  H18Z24072   0.433   6.100  14.861  0.8674  0.0869  1.0970
  195DOPC     N24073   4.232   0.003  12.492  0.0396  0.2114  0.1324
  195DOPC   C1224074   4.155  -0.077  12.599  0.2343  0.3306  0.5702
  195DOPC  H12A24075   4.188  -0.179  12.613 -0.0154  0.0830 -0.5714
  195DOPC  H12B24076   4.053  -0.087  12.565 -0.1616 -0.4604  1.9101
  195DOPC   C1324077   4.185  -0.024  12.356 -0.2790  0.1189 -0.5831
  195DOPC  H13A24078   4.081  -0.052  12.350 -0.3012 -0.7499  2.3128
  195DOPC  H13B24079   4.195   0.049  12.276 -0.5432  0.4509 -0.3189
  195DOPC  H13C24080   4.227  -0.121  12.334 -2.6168 -1.4687  1.4197
  195DOPC   C1424081   4.385  -0.009  12.502  0.3573  0.2964  0.0992
  195DOPC  H14A24082   4.405  -0.107  12.460 -1.7334 -0.7453  1.3415
  195DOPC  H14B24083   4.425   0.072  12.443 -0.5435  1.5274  1.1274
  195DOPC  H14C24084   4.411   0.001  12.606  0.5220  1.1429 -0.0207
  195DOPC   C1524085   4.199   0.151  12.516 -0.2325  0.4090 -0.0397
  195DOPC  H15A24086   4.222   0.178  12.618 -1.5071  1.9359 -0.1122
  195DOPC  H15B24087   4.095   0.178  12.513 -0.4610 -0.1587  1.8321
  195DOPC  H15C24088   4.269   0.216  12.465  1.7349 -2.1587 -0.8273
  195DOPC   C1124089   4.141  -0.015  12.741  1.4693  0.2260  0.5737
  195DOPC  H11A24090   4.059   0.060  12.747 -0.8951 -2.1993  0.8169
  195DOPC  H11B24091   4.098  -0.093  12.808  0.2465  1.4625  1.2928
  195DOPC     P24092   4.354  -0.025  12.901 -0.8709  0.3208  0.2339
  195DOPC   O1324093   4.413   0.088  12.977 -0.5332  0.0245  0.1540
  195DOPC   O1424094   4.456  -0.115  12.833  0.1611 -0.1996 -0.5732
  195DOPC   O1224095   4.263   0.037  12.789 -0.0134  0.2248 -0.5415
  195DOPC   O1124096   4.261  -0.116  12.989 -0.5912 -0.2350  0.0102
  195DOPC    C124097   4.153  -0.062  13.071 -0.2528  0.4454  0.6101
  195DOPC    HA24098   4.054  -0.092  13.029  0.5610  1.6978 -2.4562
  195DOPC    HB24099   4.153   0.049  13.067  1.9712  0.5128  1.3534
  195DOPC    C224100   4.172  -0.107  13.222 -1.0778 -0.5069  0.2505
  195DOPC    HS24101   4.086  -0.064  13.278  1.1796  0.7572  3.0077
  195DOPC   O2124102   4.299  -0.059  13.274 -0.0633 -0.1059  0.1893
  195DOPC   C2124103   4.317   0.068  13.301 -0.2204 -0.2007  0.4536
  195DOPC   O2224104   4.231   0.154  13.302  0.1170 -0.0311 -0.4660
  195DOPC   C2224105   4.456   0.093  13.350  0.4344  0.4490  0.1632
  195DOPC   H2R24106   4.470   0.203  13.354  0.1532  0.7072 -3.1176
  195DOPC   H2S24107   4.525   0.049  13.275 -1.3197  0.0950 -1.3170
  195DOPC    C324108   4.169  -0.256  13.250  0.0432  0.0994  0.0163
  195DOPC    HX24109   4.249  -0.295  13.183  0.6201  0.2947  0.5754
  195DOPC    HY24110   4.084  -0.317  13.213  0.9159 -0.8885 -0.4080
  195DOPC   O3124111   4.196  -0.294  13.379 -0.2747  0.3210  0.0305
  195DOPC   C3124112   4.105  -0.273  13.477  0.1184 -0.6075 -0.7348
  195DOPC   O3224113   4.003  -0.210  13.469 -0.0235  0.0100  0.1904
  195DOPC   C3224114   4.164  -0.337  13.604 -0.1121 -0.3323 -0.5816
  195DOPC   H2X24115   4.136  -0.444  13.610 -0.5126 -0.1633  1.6388
  195DOPC   H2Y24116   4.275  -0.336  13.602 -0.0894  2.0048 -1.0060
  195DOPC   C2324117   4.477   0.027  13.496 -0.4798 -0.1015  0.0925
  195DOPC   H3R24118   4.587   0.018  13.506 -0.3671 -2.5191 -2.2762
  195DOPC   H3S24119   4.456  -0.081  13.484  0.7782 -0.3755  0.2511
  195DOPC   C2424120   4.411   0.095  13.620 -0.9639  0.3159  0.5092
  195DOPC   H4R24121   4.304   0.102  13.590 -0.8293 -0.2816 -0.1510
  195DOPC   H4S24122   4.450   0.198  13.633 -0.5068 -0.0562  2.2927
  195DOPC   C2524123   4.435   0.023  13.747 -0.4586 -0.6409  0.0749
  195DOPC   H5R24124   4.541   0.001  13.768 -0.8220 -3.3370 -0.5473
  195DOPC   H5S24125   4.393  -0.080  13.745 -2.4703  0.1386 -0.3614
  195DOPC   C2624126   4.376   0.097  13.868  0.2337  0.5581 -0.5359
  195DOPC   H6R24127   4.267   0.095  13.851  0.3452  0.2940 -1.2585
  195DOPC   H6S24128   4.409   0.203  13.860 -0.9656  0.8571 -2.1693
  195DOPC   C2724129   4.412   0.020  13.991 -0.1408 -0.3492 -0.5942
  195DOPC   H7R24130   4.521   0.017  14.010 -0.3187 -0.5699  0.4359
  195DOPC   H7S24131   4.375  -0.084  13.978 -1.0879 -0.2164  0.8108
  195DOPC   C2824132   4.344   0.074  14.118  0.4562  0.3503 -0.1485
  195DOPC   H8R24133   4.367  -0.010  14.188  1.8449 -0.4100 -1.4563
  195DOPC   H8S24134   4.236   0.078  14.096  0.8310  0.8324 -2.1222
  195DOPC   C2924135   4.394   0.213  14.162  0.2041 -0.3560  0.5630
  195DOPC   H9R24136   4.389   0.293  14.087  0.4682 -0.6041  0.2794
  195DOPC  C21024137   4.440   0.247  14.283 -0.1635 -0.4948  0.3735
  195DOPC  H10R24138   4.484   0.348  14.293  3.9132 -2.2278  2.3039
  195DOPC  C21124139   4.457   0.171  14.407 -0.0412 -0.0811  0.0017
  195DOPC  H11R24140   4.402   0.074  14.409 -0.8776  0.3834 -0.0581
  195DOPC  H11S24141   4.419   0.228  14.494 -0.8515 -0.7096  0.0771
  195DOPC  C21224142   4.606   0.129  14.434 -0.2325  0.2999 -0.5952
  195DOPC  H12R24143   4.669   0.220  14.424 -1.6176  1.1758 -1.8598
  195DOPC  H12S24144   4.638   0.049  14.365 -2.5375 -0.1991 -1.1823
  195DOPC  C21324145   4.622   0.072  14.581  0.2253 -0.1436 -0.3991
  195DOPC  H13R24146   4.524   0.027  14.609  0.2315  0.0567 -0.0423
  195DOPC  H13S24147   4.630   0.159  14.650  1.6693  0.1581 -0.9168
  195DOPC  C21424148   4.750  -0.002  14.624  0.0336  0.4549  0.3369
  195DOPC  H14R24149   4.843   0.022  14.568 -0.3150 -0.4222 -0.6391
  195DOPC  H14S24150   4.718  -0.106  14.605  1.2748 -0.0009  0.6686
  195DOPC  C21524151   4.765   0.009  14.777  0.3195 -0.0862  1.1532
  195DOPC  H15R24152   4.670  -0.016  14.829 -0.1804 -2.0789 -0.5904
  195DOPC  H15S24153   4.816   0.105  14.800 -0.8936  0.3724  2.0225
  195DOPC  C21624154   4.857  -0.104  14.831 -0.0819 -0.2595 -0.5125
  195DOPC  H16R24155   4.802  -0.195  14.799 -1.0177  0.9425 -2.5496
  195DOPC  H16S24156   4.861  -0.103  14.942  0.8765 -0.1602 -0.5382
  195DOPC  C21724157   5.003  -0.114  14.778 -0.3588  0.5966 -0.4701
  195DOPC  H17R24158   5.055  -0.017  14.791  1.7011 -0.4425 -0.5977
  195DOPC  H17S24159   4.992  -0.129  14.668 -0.9277  0.2313 -0.3668
  195DOPC  C21824160   5.074  -0.240  14.845  0.4876  0.2986 -0.0072
  195DOPC  H18R24161   5.047  -0.336  14.795 -0.1012  0.7443 -0.5562
  195DOPC  H18S24162   5.039  -0.244  14.950  0.5324  2.0220  0.0985
  195DOPC  H18T24163   5.184  -0.225  14.849  0.3447  1.0424  1.8148
  195DOPC   C3324164   4.128  -0.254  13.734  0.5026 -0.1023 -0.7748
  195DOPC   H3X24165   4.017  -0.253  13.736  0.4350 -1.0431 -2.2410
  195DOPC   H3Y24166   4.167  -0.150  13.726  0.8262  0.0264  1.7415
  195DOPC   C3424167   4.178  -0.315  13.868  0.6011 -0.4329 -0.2419
  195DOPC   H4X24168   4.287  -0.331  13.878  0.5842 -0.5102 -0.1794
  195DOPC   H4Y24169   4.125  -0.413  13.873  0.2613 -0.1949  1.0313
  195DOPC   C3524170   4.127  -0.239  13.992 -0.2103 -0.0288  0.4256
  195DOPC   H5X24171   4.016  -0.242  13.989 -0.2698  0.2901  1.7386
  195DOPC   H5Y24172   4.166  -0.135  13.990  1.2890 -0.5518  0.7195
  195DOPC   C3624173   4.183  -0.285  14.132  0.2494 -0.0654 -0.5838
  195DOPC   H6X24174   4.192  -0.393  14.155  1.6190  0.6153  2.6167
  195DOPC   H6Y24175   4.288  -0.247  14.134  0.1496  0.4110 -2.3587
  195DOPC   C3724176   4.109  -0.220  14.250  0.1421  0.3526  0.0608
  195DOPC   H7X24177   4.127  -0.110  14.251 -0.2323  0.4081  1.2247
  195DOPC   H7Y24178   4.000  -0.232  14.232  0.2406 -0.5350  0.0348
  195DOPC   C3824179   4.149  -0.284  14.387  0.6189  0.1168 -1.0021
  195DOPC   H8X24180   4.110  -0.387  14.402 -2.4723  1.4379  1.3553
  195DOPC   H8Y24181   4.102  -0.230  14.473 -0.8265 -2.1839 -0.2618
  195DOPC   C3924182   4.295  -0.301  14.406 -0.3108  0.4384  0.2664
  195DOPC   H9X24183   4.351  -0.318  14.313 -0.0769 -0.4384  0.5579
  195DOPC  C31024184   4.364  -0.278  14.520 -0.6203  0.1800  0.1355
  195DOPC  H10X24185   4.474  -0.270  14.519 -0.6466  0.6653  0.7156
  195DOPC  C31124186   4.310  -0.243  14.654  0.1813 -0.3897  0.4754
  195DOPC  H11X24187   4.211  -0.287  14.680 -1.1100  1.8596 -0.3489
  195DOPC  H11Y24188   4.298  -0.135  14.674 -0.9508 -0.1448 -1.3220
  195DOPC  C31224189   4.400  -0.298  14.771 -0.3718  0.4392  0.3133
  195DOPC  H12X24190   4.505  -0.288  14.734 -0.7866  1.5988 -0.6506
  195DOPC  H12Y24191   4.365  -0.403  14.777 -0.7186  0.4615 -0.9722
  195DOPC  C31324192   4.373  -0.235  14.902 -0.4955  0.1969 -0.0197
  195DOPC  H13X24193   4.414  -0.134  14.921 -1.4134  0.6409 -0.3559
  195DOPC  H13Y24194   4.263  -0.233  14.918 -0.6964  0.2153 -1.3337
  195DOPC  C31424195   4.428  -0.317  15.023  0.7770 -0.3746  0.9451
  195DOPC  H14X24196   4.394  -0.266  15.115 -0.1232  1.5285 -0.3848
  195DOPC  H14Y24197   4.387  -0.420  15.017 -0.3811  0.1418 -2.0190
  195DOPC  C31524198   4.587  -0.319  15.034  0.8760 -0.4125  0.0699
  195DOPC  H15X24199   4.636  -0.225  15.000  2.3185 -0.4647  1.8891
  195DOPC  H15Y24200   4.621  -0.400  14.966  0.1571  0.0956 -0.9356
  195DOPC  C31624201   4.626  -0.344  15.177  0.0383  0.5877  0.1203
  195DOPC  H16X24202   4.588  -0.251  15.224  1.5395  3.3230 -3.6188
  195DOPC  H16Y24203   4.570  -0.432  15.214  0.7464 -0.4186 -1.0894
  195DOPC  C31724204   4.777  -0.369  15.194  0.3271  0.4611 -0.3141
  195DOPC  H17X24205   4.798  -0.471  15.155  0.5573  0.2137  0.4438
  195DOPC  H17Y24206   4.836  -0.311  15.119  0.1907 -1.5337 -2.0784
  195DOPC  C31824207   4.821  -0.364  15.344  0.4298  0.7129  0.1975
  195DOPC  H18X24208   4.811  -0.265  15.393 -2.1701  0.3571  0.4933
  195DOPC  H18Y24209   4.749  -0.427  15.400 -0.9538  1.9925 -0.1136
  195DOPC  H18Z24210   4.926  -0.402  15.351 -0.2262 -1.3465 -0.5863
  196DOPC     N24211   1.756   1.703  12.459  0.0431 -0.2666  0.3537
  196DOPC   C1224212   1.784   1.612  12.577  0.1111  0.7349  0.6269
  196DOPC  H12A24213   1.742   1.651  12.669  0.5940 -2.2782  2.2770
  196DOPC  H12B24214   1.889   1.630  12.596  0.4724 -1.1482  0.5429
  196DOPC   C1324215   1.796   1.644  12.328  0.5102  0.4508 -0.5751
  196DOPC  H13A24216   1.898   1.611  12.310  0.2602  0.2464 -1.7232
  196DOPC  H13B24217   1.733   1.557  12.316 -1.6587  1.7449  0.9297
  196DOPC  H13C24218   1.764   1.703  12.243 -0.0775  1.3707  0.2629
  196DOPC   C1424219   1.828   1.828  12.482 -0.5135  0.0106 -0.2890
  196DOPC  H14A24220   1.770   1.865  12.566  1.0179  0.7361  0.4747
  196DOPC  H14B24221   1.931   1.823  12.512 -0.5743 -2.0980 -0.2838
  196DOPC  H14C24222   1.815   1.893  12.397 -2.1030 -0.2272 -0.2564
  196DOPC   C1524223   1.611   1.727  12.460 -0.3359 -0.4327 -0.1176
  196DOPC  H15A24224   1.579   1.781  12.548  1.6995 -0.1179  0.4791
  196DOPC  H15B24225   1.549   1.639  12.455 -1.2316  0.2547 -2.9338
  196DOPC  H15C24226   1.588   1.805  12.389  0.2850 -0.3705 -0.2546
  196DOPC   C1124227   1.757   1.457  12.571  1.5142 -0.4306  0.0362
  196DOPC  H11A24228   1.797   1.415  12.477  0.5854 -0.4431 -0.3659
  196DOPC  H11B24229   1.810   1.415  12.659  0.4259 -0.9419  0.4638
  196DOPC     P24230   1.552   1.317  12.509  0.0813 -0.5278  0.1883
  196DOPC   O1324231   1.657   1.213  12.486 -0.3521 -0.1587  0.2305
  196DOPC   O1424232   1.480   1.362  12.383 -0.1920  0.1147  0.2319
  196DOPC   O1224233   1.614   1.438  12.586  0.9608 -0.1399  0.1908
  196DOPC   O1124234   1.444   1.260  12.610  0.2237  0.1152 -0.1872
  196DOPC    C124235   1.494   1.221  12.739  0.3686  0.2081 -0.2170
  196DOPC    HA24236   1.600   1.247  12.760  1.2349 -2.5100 -0.8160
  196DOPC    HB24237   1.502   1.110  12.738  0.1599  0.1461 -2.9344
  196DOPC    C224238   1.400   1.266  12.852 -0.3523 -0.0867  1.0689
  196DOPC    HS24239   1.374   1.373  12.835  1.9556  0.5617  1.3019
  196DOPC   O2124240   1.475   1.245  12.966  0.0461 -0.0464 -0.6808
  196DOPC   C2124241   1.475   1.344  13.056 -0.5163 -0.2411 -0.1311
  196DOPC   O2224242   1.421   1.453  13.040 -0.0287 -0.0944  0.3829
  196DOPC   C2224243   1.565   1.289  13.174 -0.4768  0.2164 -0.3411
  196DOPC   H2R24244   1.646   1.365  13.181 -1.4109  1.2097 -0.0736
  196DOPC   H2S24245   1.616   1.201  13.130  3.4260  1.5887  0.9814
  196DOPC    C324246   1.273   1.174  12.867  0.2158  0.1913  0.3218
  196DOPC    HX24247   1.313   1.074  12.891  0.3670  0.3561  0.7629
  196DOPC    HY24248   1.227   1.155  12.767  1.0096 -0.1147  0.0102
  196DOPC   O3124249   1.184   1.204  12.967  0.4029 -0.1254  0.7203
  196DOPC   C3124250   1.100   1.308  12.942  0.3555  0.1998 -0.4705
  196DOPC   O3224251   1.101   1.382  12.848 -0.2795 -0.2066  0.2591
  196DOPC   C3224252   1.010   1.316  13.062  0.1700  0.5624 -0.1698
  196DOPC   H2X24253   0.943   1.401  13.040 -2.3115 -1.2987 -0.2701
  196DOPC   H2Y24254   0.951   1.222  13.069  0.4286  0.3863 -0.3575
  196DOPC   C2324255   1.475   1.276  13.297  0.1423 -0.5103 -0.9024
  196DOPC   H3R24256   1.396   1.200  13.280  0.0970 -0.1545 -2.3775
  196DOPC   H3S24257   1.424   1.370  13.326  0.1954 -1.1667  1.5556
  196DOPC   C2424258   1.552   1.241  13.430  0.6721 -0.4712  0.1697
  196DOPC   H4R24259   1.644   1.304  13.428  0.7029 -0.5282 -0.4843
  196DOPC   H4S24260   1.592   1.137  13.426  2.8842  0.3552 -2.8353
  196DOPC   C2524261   1.480   1.274  13.561  0.2582 -0.4493 -0.3668
  196DOPC   H5R24262   1.373   1.245  13.562  0.1460 -0.1136 -1.4232
  196DOPC   H5S24263   1.488   1.385  13.564  1.2941 -0.5132  3.0483
  196DOPC   C2624264   1.544   1.211  13.690  0.3340 -0.0250  0.8673
  196DOPC   H6R24265   1.651   1.239  13.692 -0.1356  1.9544  0.7957
  196DOPC   H6S24266   1.525   1.102  13.691  2.1693 -0.3690  0.6470
  196DOPC   C2724267   1.470   1.264  13.813 -0.0014 -0.7707 -0.1234
  196DOPC   H7R24268   1.362   1.247  13.795  0.2001 -1.7543 -0.4833
  196DOPC   H7S24269   1.495   1.372  13.812  0.9141 -0.9635  0.6739
  196DOPC   C2824270   1.510   1.192  13.939  0.1100  0.6131  0.1269
  196DOPC   H8R24271   1.497   1.082  13.939 -1.0131  0.7015 -1.6192
  196DOPC   H8S24272   1.444   1.227  14.021  0.6707  2.3840 -0.1329
  196DOPC   C2924273   1.659   1.224  13.969  0.4320 -0.2989  0.3847
  196DOPC   H9R24274   1.730   1.169  13.907 -0.9023  1.2866 -2.8272
  196DOPC  C21024275   1.701   1.315  14.056 -0.6051  0.2068  0.3282
  196DOPC  H10R24276   1.808   1.334  14.071 -0.4131 -0.1022 -0.5722
  196DOPC  C21124277   1.618   1.399  14.151  0.8657  0.2805  0.3798
  196DOPC  H11R24278   1.510   1.394  14.128  0.4452 -0.0669  2.3265
  196DOPC  H11S24279   1.664   1.501  14.152  1.9643 -0.1572  3.0858
  196DOPC  C21224280   1.615   1.342  14.295 -0.7996  0.0154 -0.1501
  196DOPC  H12R24281   1.720   1.317  14.321 -0.6960 -1.0680 -1.5012
  196DOPC  H12S24282   1.551   1.252  14.303 -1.6419  0.2595 -2.9797
  196DOPC  C21324283   1.556   1.448  14.389  0.6694  0.2155 -0.1738
  196DOPC  H13R24284   1.476   1.496  14.329  1.3681  0.8795 -0.6130
  196DOPC  H13S24285   1.623   1.531  14.422  0.0465  0.4276  0.5728
  196DOPC  C21424286   1.501   1.384  14.524  0.1936  0.3442  0.5854
  196DOPC  H14R24287   1.444   1.296  14.486  2.5500 -0.9531 -0.1383
  196DOPC  H14S24288   1.437   1.449  14.588  0.2507  0.2820  0.7068
  196DOPC  C21524289   1.612   1.320  14.601 -0.0393 -0.6310 -0.2089
  196DOPC  H15R24290   1.659   1.376  14.685 -0.1901  0.9230 -1.1370
  196DOPC  H15S24291   1.695   1.296  14.532  1.9253 -0.4930  1.9876
  196DOPC  C21624292   1.575   1.182  14.649 -0.4254 -0.2777 -0.4918
  196DOPC  H16R24293   1.549   1.130  14.554 -1.1194 -0.1817 -0.3588
  196DOPC  H16S24294   1.492   1.191  14.722 -1.1123  0.0329 -1.2974
  196DOPC  C21724295   1.685   1.108  14.720 -0.4894 -0.0912  0.3197
  196DOPC  H17R24296   1.772   1.115  14.653  1.2009 -0.4978  2.3673
  196DOPC  H17S24297   1.665   0.998  14.721  2.8215 -0.7845  0.4215
  196DOPC  C21824298   1.712   1.164  14.861 -0.3246 -0.3973 -0.1952
  196DOPC  H18R24299   1.759   1.263  14.847  1.6703 -1.2834 -0.0402
  196DOPC  H18S24300   1.783   1.105  14.922 -0.2303  0.5040  0.5772
  196DOPC  H18T24301   1.618   1.179  14.918 -1.0252  0.3146 -1.4974
  196DOPC   C3324302   1.098   1.357  13.187  0.0864 -0.0449 -0.2696
  196DOPC   H3X24303   1.152   1.454  13.179  1.1078 -0.5577  0.1856
  196DOPC   H3Y24304   1.177   1.283  13.212  0.8048  0.4714 -0.9499
  196DOPC   C3424305   1.006   1.370  13.308 -0.4934 -0.4420  0.2903
  196DOPC   H4X24306   0.943   1.279  13.319  0.6191 -1.5442 -1.8611
  196DOPC   H4Y24307   0.939   1.458  13.295 -1.3184 -1.3425 -2.1425
  196DOPC   C3524308   1.102   1.402  13.432 -0.0632 -0.5133  0.2054
  196DOPC   H5X24309   1.163   1.494  13.422  3.3643 -2.6457  0.0874
  196DOPC   H5Y24310   1.170   1.315  13.431 -0.5893 -0.9709  1.5660
  196DOPC   C3624311   1.028   1.407  13.572 -0.4122 -0.2544 -0.2475
  196DOPC   H6X24312   0.964   1.497  13.582  0.9858  0.6954  0.5240
  196DOPC   H6Y24313   0.954   1.325  13.583 -0.4519 -0.2396 -0.4060
  196DOPC   C3724314   1.134   1.418  13.683  0.1831 -1.0788 -0.4082
  196DOPC   H7X24315   1.198   1.328  13.697  2.1236  0.5114  1.6606
  196DOPC   H7Y24316   1.200   1.504  13.661  0.7692 -1.8336 -1.7257
  196DOPC   C3824317   1.055   1.452  13.810  0.4506  0.6002 -0.1188
  196DOPC   H8X24318   0.992   1.364  13.838  1.1226  0.3323  0.5821
  196DOPC   H8Y24319   0.982   1.534  13.795 -0.4827 -0.2370 -0.2544
  196DOPC   C3924320   1.153   1.489  13.924 -0.1803  0.3584  0.9767
  196DOPC   H9X24321   1.228   1.561  13.889  0.5648 -1.1621 -0.7331
  196DOPC  C31024322   1.163   1.426  14.042  0.3637 -0.4593  0.4537
  196DOPC  H10X24323   1.236   1.460  14.117  0.4279  0.1069  0.1361
  196DOPC  C31124324   1.069   1.322  14.100 -0.4681 -0.1898  0.4771
  196DOPC  H11X24325   1.113   1.258  14.179 -2.2298 -0.0151  1.6565
  196DOPC  H11Y24326   1.022   1.258  14.023 -0.5427  1.1118 -0.5964
  196DOPC  C31224327   0.957   1.399  14.183 -0.0411 -0.5170  0.1042
  196DOPC  H12X24328   0.877   1.322  14.189  1.2091 -1.8570  0.0647
  196DOPC  H12Y24329   0.928   1.487  14.122 -1.0144 -0.8575  0.0574
  196DOPC  C31324330   1.000   1.451  14.315 -0.8658  0.1317 -0.4218
  196DOPC  H13X24331   1.026   1.363  14.379 -0.2423 -0.1923 -1.1033
  196DOPC  H13Y24332   1.095   1.508  14.309  0.3997 -1.9042 -0.6625
  196DOPC  C31424333   0.906   1.538  14.388  0.0436  0.3972  0.3153
  196DOPC  H14X24334   0.876   1.629  14.331 -0.4067  0.9050  1.3354
  196DOPC  H14Y24335   0.815   1.477  14.406  0.9147 -0.7568  0.8865
  196DOPC  C31524336   0.961   1.583  14.528 -0.3414  0.4366  0.3091
  196DOPC  H15X24337   1.056   1.638  14.522 -0.5288  0.6587 -0.8686
  196DOPC  H15Y24338   0.981   1.489  14.583  2.8702  0.2623 -0.9535
  196DOPC  C31624339   0.861   1.676  14.598 -0.3791 -0.4724  0.6113
  196DOPC  H16X24340   0.799   1.729  14.523 -0.7053 -1.0546  0.4681
  196DOPC  H16Y24341   0.787   1.607  14.644 -0.3695 -0.7189  0.2584
  196DOPC  C31724342   0.911   1.751  14.717 -0.1686  0.1239  0.6663
  196DOPC  H17X24343   0.962   1.678  14.784 -0.2706  0.3627  1.0043
  196DOPC  H17Y24344   0.996   1.819  14.693 -0.0413 -0.1260  0.4077
  196DOPC  C31824345   0.786   1.797  14.805  0.0735 -0.6189  0.6412
  196DOPC  H18X24346   0.722   1.870  14.751  0.2432 -0.3886  0.7476
  196DOPC  H18Y24347   0.719   1.717  14.844 -1.6678  0.9911  1.1574
  196DOPC  H18Z24348   0.817   1.856  14.894 -0.8919  1.6649 -0.4235
  197DOPC     N24349   6.558   6.682  12.656 -0.4715 -0.3327 -0.1333
  197DOPC   C1224350   6.622   6.690  12.791 -0.9311 -0.4285  0.6151
  197DOPC  H12A24351   6.547   6.693  12.869  0.0850  1.6151  1.5946
  197DOPC  H12B24352   6.671   6.784  12.812 -1.5993 -0.3197  1.8052
  197DOPC   C1324353   6.655   6.718  12.546  0.1406  0.4854 -0.1638
  197DOPC  H13A24354   6.747   6.663  12.554  0.9400  1.8612  0.3965
  197DOPC  H13B24355   6.614   6.687  12.451 -0.6923 -0.2616  0.4114
  197DOPC  H13C24356   6.693   6.819  12.540  1.7260 -0.0781 -0.0078
  197DOPC   C1424357   6.450   6.785  12.644  0.7441  0.2430 -0.1218
  197DOPC  H14A24358   6.423   6.794  12.540  0.4012  0.3197 -0.0290
  197DOPC  H14B24359   6.363   6.755  12.701 -1.0055  0.4358 -2.5533
  197DOPC  H14C24360   6.481   6.885  12.674  0.4446  0.7309 -1.3868
  197DOPC   C1524361   6.507   6.540  12.634  0.4899  0.5702 -0.1819
  197DOPC  H15A24362   6.579   6.469  12.671 -1.2378 -0.6740  0.9173
  197DOPC  H15B24363   6.485   6.512  12.532  0.1754 -0.3179  0.1262
  197DOPC  H15C24364   6.421   6.525  12.698  0.7107 -0.9186 -0.2045
  197DOPC   C1124365   6.733   6.581  12.839  0.4804  1.1641 -0.6992
  197DOPC  H11A24366   6.823   6.598  12.776 -0.2389  2.2290 -1.4726
  197DOPC  H11B24367   6.757   6.611  12.944 -1.9117  2.4685 -0.4599
  197DOPC     P24368   6.778   6.324  12.786  0.0946 -0.0859  0.2577
  197DOPC   O1324369   6.859   6.377  12.669  0.3394  0.2997 -0.9738
  197DOPC   O1424370   6.691   6.205  12.763 -0.2976  0.0879  0.1396
  197DOPC   O1224371   6.685   6.440  12.841  0.0190  0.2444 -0.3830
  197DOPC   O1124372   6.868   6.289  12.910 -0.5969 -1.2658 -0.0195
  197DOPC    C124373   6.818   6.241  13.038  0.0233 -0.7611  0.3943
  197DOPC    HA24374   6.885   6.157  13.067  2.9862  1.0665 -0.6216
  197DOPC    HB24375   6.712   6.214  13.025 -0.5116  1.8490 -1.5711
  197DOPC    C224376   6.826   6.349  13.151 -0.5861 -0.8928 -0.4050
  197DOPC    HS24377   6.807   6.454  13.120  2.7359  0.2054  0.8478
  197DOPC   O2124378   6.956   6.331  13.216  0.7087 -0.2717 -0.4049
  197DOPC   C2124379   7.020   6.446  13.246 -0.2603  0.4149 -0.7103
  197DOPC   O2224380   6.974   6.557  13.230  0.1649  0.0589 -0.4603
  197DOPC   C2224381   7.146   6.414  13.323  0.2869  0.0876 -0.7710
  197DOPC   H2R24382   7.203   6.509  13.329  0.6839 -0.1099 -1.2598
  197DOPC   H2S24383   7.205   6.345  13.258  1.6209  1.4288 -1.0482
  197DOPC    C324384   6.716   6.319  13.250 -0.0579 -0.2297  0.0209
  197DOPC    HX24385   6.741   6.235  13.318  0.0556 -1.6073 -1.6618
  197DOPC    HY24386   6.631   6.272  13.195 -1.0106  0.4727  0.8446
  197DOPC   O3124387   6.675   6.438  13.320  0.7361 -0.2848 -0.2816
  197DOPC   C3124388   6.700   6.450  13.452  0.4475 -0.6708  0.7602
  197DOPC   O3224389   6.759   6.376  13.520 -0.5817  0.1687 -0.0941
  197DOPC   C3224390   6.647   6.587  13.501  0.0187 -0.2529 -0.2943
  197DOPC   H2X24391   6.730   6.657  13.523 -1.3080  1.4785 -0.5536
  197DOPC   H2Y24392   6.588   6.641  13.425 -1.8004 -1.6595  0.0455
  197DOPC   C2324393   7.115   6.357  13.462 -0.0703 -0.9014 -0.0991
  197DOPC   H3R24394   7.202   6.297  13.497  0.3431  0.3601  1.1439
  197DOPC   H3S24395   7.037   6.279  13.454  0.2602 -1.2995  0.4233
  197DOPC   C2424396   7.088   6.464  13.577 -0.4655 -0.0659  0.1433
  197DOPC   H4R24397   6.989   6.507  13.552 -0.2030 -0.7438 -2.3214
  197DOPC   H4S24398   7.161   6.548  13.571 -1.6674  1.1895  2.0559
  197DOPC   C2524399   7.073   6.404  13.715 -0.3650 -0.6519  0.0398
  197DOPC   H5R24400   7.172   6.363  13.743  0.3847 -0.1267 -1.7154
  197DOPC   H5S24401   7.001   6.319  13.711 -0.1660 -0.8351  0.3217
  197DOPC   C2624402   7.033   6.513  13.815  0.2991 -0.0942  0.6595
  197DOPC   H6R24403   6.944   6.568  13.780  0.3473 -0.1949  0.3815
  197DOPC   H6S24404   7.119   6.584  13.812  2.2328 -2.3199 -0.0050
  197DOPC   C2724405   7.019   6.463  13.960 -0.2497  0.9034 -0.4947
  197DOPC   H7R24406   7.008   6.550  14.028 -0.6767 -0.0065  0.6396
  197DOPC   H7S24407   7.105   6.397  13.985 -1.9563 -0.8928  1.0095
  197DOPC   C2824408   6.900   6.365  13.980  0.2708 -0.3000  0.1101
  197DOPC   H8R24409   6.895   6.318  14.081 -0.9838 -0.4473  0.0001
  197DOPC   H8S24410   6.924   6.287  13.905  0.0601  1.0113 -1.3717
  197DOPC   C2924411   6.761   6.413  13.941 -0.1639  0.3132  0.6437
  197DOPC   H9R24412   6.757   6.464  13.844  0.8245  1.1467  1.0200
  197DOPC  C21024413   6.655   6.413  14.015  0.3769 -0.4348 -0.1331
  197DOPC  H10R24414   6.564   6.467  13.984  0.1998 -1.4619 -1.4411
  197DOPC  C21124415   6.634   6.376  14.166 -0.7806  0.5153  0.3631
  197DOPC  H11R24416   6.712   6.302  14.192  0.1469  1.9431  1.8593
  197DOPC  H11S24417   6.535   6.332  14.188 -0.3205 -1.3495 -1.0858
  197DOPC  C21224418   6.656   6.501  14.247  0.1642  0.0870  0.5760
  197DOPC  H12R24419   6.727   6.574  14.204  0.9385 -0.5045  0.8245
  197DOPC  H12S24420   6.701   6.479  14.346 -0.1222  0.4374  0.7874
  197DOPC  C21324421   6.524   6.573  14.276 -0.4989  0.2451 -0.7155
  197DOPC  H13R24422   6.457   6.517  14.344 -1.2040  2.8892  0.9150
  197DOPC  H13S24423   6.466   6.585  14.182 -1.5599  1.1030  0.0373
  197DOPC  C21424424   6.539   6.716  14.335 -0.3149  0.4145 -0.4608
  197DOPC  H14R24425   6.596   6.769  14.256 -1.2182 -1.7288 -2.6797
  197DOPC  H14S24426   6.604   6.710  14.424  1.9489  2.3446 -1.8917
  197DOPC  C21524427   6.410   6.792  14.354 -0.2377 -0.5442 -0.7037
  197DOPC  H15R24428   6.339   6.726  14.409  0.8390 -0.4367  0.8488
  197DOPC  H15S24429   6.350   6.815  14.263 -1.2489  0.4512  0.1809
  197DOPC  C21624430   6.441   6.921  14.434  0.0873  0.2419 -0.8748
  197DOPC  H16R24431   6.540   6.959  14.402 -0.3815  1.7175 -0.6289
  197DOPC  H16S24432   6.439   6.881  14.537 -1.5942  3.1561  0.3321
  197DOPC  C21724433   6.346   7.034  14.397 -0.0390  0.4616  0.1825
  197DOPC  H17R24434   6.271   6.997  14.324  1.0009  0.6228 -1.0047
  197DOPC  H17S24435   6.409   7.109  14.345  1.1679  0.1380  1.1308
  197DOPC  C21824436   6.290   7.111  14.517 -0.2318  0.3216  0.3646
  197DOPC  H18R24437   6.226   7.045  14.579  0.9966 -1.3909 -0.1091
  197DOPC  H18S24438   6.239   7.206  14.491 -0.7723  0.1639  0.8242
  197DOPC  H18T24439   6.374   7.154  14.575  0.5653  0.2670 -0.7049
  197DOPC   C3324440   6.573   6.565  13.632 -0.1451  0.3350  0.0172
  197DOPC   H3X24441   6.601   6.479  13.696  0.0158  0.0961 -0.3703
  197DOPC   H3Y24442   6.467   6.542  13.606  0.0783  1.0434 -1.6647
  197DOPC   C3424443   6.560   6.695  13.716  0.2447 -0.0717  0.1900
  197DOPC   H4X24444   6.533   6.770  13.639 -0.8677 -0.4314  0.2089
  197DOPC   H4Y24445   6.661   6.722  13.752 -0.5666  0.9217  1.8796
  197DOPC   C3524446   6.449   6.683  13.821  0.3477  0.6562  0.4253
  197DOPC   H5X24447   6.482   6.601  13.889  0.7410  0.6888  0.2756
  197DOPC   H5Y24448   6.356   6.657  13.767 -0.3437  0.1740  1.7799
  197DOPC   C3624449   6.423   6.807  13.910  0.3163  0.0446  0.3998
  197DOPC   H6X24450   6.481   6.789  14.004  1.0526  0.6916  0.0806
  197DOPC   H6Y24451   6.466   6.895  13.858 -0.1230  0.6616  1.0701
  197DOPC   C3724452   6.276   6.848  13.951 -0.1522 -0.1982  0.3459
  197DOPC   H7X24453   6.225   6.769  14.009  0.2788  0.3702  1.5370
  197DOPC   H7Y24454   6.293   6.932  14.021 -1.2236 -0.5285  1.0307
  197DOPC   C3824455   6.181   6.878  13.837 -0.1903 -0.4211 -0.2625
  197DOPC   H8X24456   6.124   6.788  13.806 -1.3841 -0.0209  0.7143
  197DOPC   H8Y24457   6.234   6.912  13.746  3.7148  1.8201  2.5212
  197DOPC   C3924458   6.086   6.983  13.890 -0.3406  0.7124 -0.3415
  197DOPC   H9X24459   6.119   7.087  13.877  1.1449  0.3420  0.3244
  197DOPC  C31024460   5.987   6.963  13.977  0.3772  0.8221  0.5632
  197DOPC  H10X24461   5.939   7.051  14.022 -0.9406  0.6519 -0.4310
  197DOPC  C31124462   5.944   6.836  14.042 -0.0585  0.6750  0.4170
  197DOPC  H11X24463   5.987   6.745  13.995 -0.2956  1.9009 -2.3867
  197DOPC  H11Y24464   5.835   6.819  14.029  0.0331  1.9855 -3.2001
  197DOPC  C31224465   5.988   6.821  14.192  0.0655  0.4220 -0.9053
  197DOPC  H12X24466   6.094   6.854  14.205  0.1903 -0.2768 -0.0723
  197DOPC  H12Y24467   5.989   6.711  14.207  0.8253  0.7199  1.6382
  197DOPC  C31324468   5.897   6.895  14.284  0.0335 -0.6328 -0.3835
  197DOPC  H13X24469   5.887   7.002  14.256 -0.7095 -0.4516  0.5111
  197DOPC  H13Y24470   5.799   6.845  14.274  0.1559 -0.9833  0.1099
  197DOPC  C31424471   5.939   6.887  14.433  0.1046  0.3460 -0.7304
  197DOPC  H14X24472   5.918   6.788  14.479 -2.3135  0.7545 -0.8136
  197DOPC  H14Y24473   6.049   6.900  14.441  0.1081  0.4751 -1.0042
  197DOPC  C31524474   5.890   7.006  14.519 -0.3918  0.1354 -0.3356
  197DOPC  H15X24475   5.780   6.997  14.531 -0.7580  0.3995 -2.9514
  197DOPC  H15Y24476   5.919   7.096  14.461  1.3543  0.0839  0.3736
  197DOPC  C31624477   5.950   7.020  14.654  0.1728  0.8402 -0.1378
  197DOPC  H16X24478   6.054   6.982  14.661 -0.6015 -1.7679 -1.4124
  197DOPC  H16Y24479   5.953   7.127  14.686 -2.9350  0.3540  2.3975
  197DOPC  C31724480   5.873   6.943  14.764 -0.0169 -0.3135  0.3281
  197DOPC  H17X24481   5.774   6.991  14.784 -0.7504 -0.8292 -1.8308
  197DOPC  H17Y24482   5.845   6.844  14.723 -0.0618  0.1709 -0.8726
  197DOPC  C31824483   5.953   6.916  14.890 -0.1352 -0.3564 -0.7765
  197DOPC  H18X24484   5.894   6.852  14.959 -1.5972  0.4379 -1.2521
  197DOPC  H18Y24485   6.046   6.865  14.856  0.8459  1.5022 -0.9820
  197DOPC  H18Z24486   5.986   7.004  14.948  2.9028 -0.7577 -1.7176
  198DOPC     N24487   4.983   5.636  12.284 -1.3356  0.1256 -0.6114
  198DOPC   C1224488   4.922   5.574  12.405  0.5081  0.4445  0.8246
  198DOPC  H12A24489   4.998   5.514  12.452  2.0082  1.8927  0.3364
  198DOPC  H12B24490   4.846   5.506  12.371 -0.4257  1.6054  0.5124
  198DOPC   C1324491   5.076   5.756  12.318 -0.2044 -0.3972 -0.2604
  198DOPC  H13A24492   5.101   5.809  12.227 -2.9909  0.7841 -0.4338
  198DOPC  H13B24493   5.030   5.823  12.390 -0.2025  1.8103 -2.2071
  198DOPC  H13C24494   5.173   5.723  12.353 -0.8012 -1.4705  0.4485
  198DOPC   C1424495   4.881   5.691  12.188 -0.1006 -0.0943  0.2180
  198DOPC  H14A24496   4.806   5.739  12.249 -1.7004 -1.5604 -0.4946
  198DOPC  H14B24497   4.931   5.753  12.115  2.8083 -1.3020  1.0310
  198DOPC  H14C24498   4.832   5.613  12.131  0.8090 -1.6893  1.5347
  198DOPC   C1524499   5.066   5.540  12.206 -0.1613  0.2655  1.2769
  198DOPC  H15A24500   5.139   5.493  12.271  0.2886 -1.9002 -0.6497
  198DOPC  H15B24501   5.122   5.585  12.126 -4.3269  0.1084 -2.0857
  198DOPC  H15C24502   4.998   5.469  12.160  1.1810 -0.0432 -0.3161
  198DOPC   C1124503   4.851   5.659  12.510 -0.2716 -0.1483 -0.2238
  198DOPC  H11A24504   4.838   5.591  12.597  0.2182 -1.6974 -1.3174
  198DOPC  H11B24505   4.924   5.737  12.539  1.8431 -1.1830 -2.3680
  198DOPC     P24506   4.601   5.639  12.436  0.0304  0.1031  0.0575
  198DOPC   O1324507   4.613   5.557  12.313 -0.5776  0.2360 -0.4367
  198DOPC   O1424508   4.481   5.725  12.427  0.5848 -0.2009 -0.4525
  198DOPC   O1224509   4.737   5.725  12.447 -0.4305 -0.3137  0.3569
  198DOPC   O1124510   4.593   5.560  12.574 -0.0571  0.2841  0.9498
  198DOPC    C124511   4.526   5.626  12.681 -0.1282 -0.1797 -0.1930
  198DOPC    HA24512   4.419   5.637  12.655 -0.1586  3.1829  0.7872
  198DOPC    HB24513   4.573   5.724  12.704 -1.4216  0.4627 -0.2003
  198DOPC    C224514   4.541   5.543  12.816  0.3567  0.1291  0.0622
  198DOPC    HS24515   4.480   5.596  12.893 -0.1789 -1.5443  0.8384
  198DOPC   O2124516   4.680   5.538  12.858  0.4687  0.4281 -0.3561
  198DOPC   C2124517   4.736   5.638  12.907 -0.1512 -0.1725  0.0232
  198DOPC   O2224518   4.681   5.745  12.919 -0.3876 -1.0077 -0.1285
  198DOPC   C2224519   4.869   5.586  12.965 -0.0945  0.3829 -0.2038
  198DOPC   H2R24520   4.943   5.596  12.883  2.4610 -2.4518  1.5767
  198DOPC   H2S24521   4.860   5.479  12.992  1.9544  0.3819  0.6366
  198DOPC    C324522   4.481   5.400  12.810 -0.0721  0.4802  0.2946
  198DOPC    HX24523   4.538   5.335  12.740 -2.4193  1.3214 -2.6116
  198DOPC    HY24524   4.378   5.400  12.766  0.8802 -0.0205 -2.1248
  198DOPC   O3124525   4.481   5.322  12.933 -0.6189 -0.2955 -0.4298
  198DOPC   C3124526   4.385   5.367  13.021  0.2116  0.5615 -0.4968
  198DOPC   O3224527   4.310   5.458  13.001  0.1076  0.4681  0.1947
  198DOPC   C3224528   4.386   5.262  13.137 -0.4590  0.3983 -0.1686
  198DOPC   H2X24529   4.288   5.210  13.131 -2.2566  3.2531  1.7082
  198DOPC   H2Y24530   4.478   5.200  13.133 -1.5858 -1.2766 -2.0006
  198DOPC   C2324531   4.913   5.679  13.079 -0.1908  0.1913 -0.9254
  198DOPC   H3R24532   4.912   5.782  13.036 -0.9581  1.0304  0.9616
  198DOPC   H3S24533   5.019   5.652  13.098 -0.9175 -1.7269  0.7721
  198DOPC   C2424534   4.831   5.664  13.207  0.1322 -0.4794 -0.4779
  198DOPC   H4R24535   4.834   5.562  13.252 -1.6260 -0.1780  0.3985
  198DOPC   H4S24536   4.725   5.689  13.187  0.2828  1.4460  0.8415
  198DOPC   C2524537   4.883   5.754  13.321 -0.2512 -0.2958  0.2607
  198DOPC   H5R24538   4.864   5.858  13.289 -0.6794 -0.8605 -1.4237
  198DOPC   H5S24539   4.991   5.732  13.334 -0.4218 -0.5667  1.2925
  198DOPC   C2624540   4.801   5.732  13.447  0.2489 -0.2495 -0.2662
  198DOPC   H6R24541   4.826   5.634  13.494  1.1951 -0.5930 -1.4394
  198DOPC   H6S24542   4.694   5.737  13.415 -0.2202  1.4037  1.4089
  198DOPC   C2724543   4.821   5.852  13.544  0.2526 -0.6519  0.1233
  198DOPC   H7R24544   4.800   5.950  13.497 -0.8283 -1.6566 -1.6074
  198DOPC   H7S24545   4.930   5.855  13.567  0.0928 -1.7760  1.1496
  198DOPC   C2824546   4.746   5.841  13.682 -0.6238 -0.8792  0.6295
  198DOPC   H8R24547   4.641   5.842  13.647  0.5055 -1.3697 -3.3143
  198DOPC   H8S24548   4.766   5.923  13.755  1.6902 -2.1532  1.5239
  198DOPC   C2924549   4.768   5.711  13.759  0.6716 -0.1533 -0.0885
  198DOPC   H9R24550   4.724   5.631  13.698 -0.9612  1.9166 -1.7835
  198DOPC  C21024551   4.821   5.693  13.880 -0.8957 -0.2511  0.2472
  198DOPC  H10R24552   4.833   5.593  13.922 -0.9657  0.4719  2.0677
  198DOPC  C21124553   4.883   5.799  13.973  0.3150  0.0813  0.2280
  198DOPC  H11R24554   4.817   5.812  14.062  0.7036  2.9952  0.1928
  198DOPC  H11S24555   4.887   5.899  13.925  0.1039  0.2012  0.4565
  198DOPC  C21224556   5.027   5.776  14.021  0.7854  0.8408  0.2055
  198DOPC  H12R24557   5.098   5.791  13.937 -0.2167 -0.6382 -0.9804
  198DOPC  H12S24558   5.032   5.666  14.042 -0.9323  0.4672 -1.1280
  198DOPC  C21324559   5.078   5.856  14.138 -0.4715 -0.2116  0.0339
  198DOPC  H13R24560   5.056   5.965  14.138  2.0831  0.3585  0.7309
  198DOPC  H13S24561   5.185   5.838  14.117 -0.6303  0.1174 -1.0974
  198DOPC  C21424562   5.052   5.805  14.283  0.3239 -0.3375  0.0433
  198DOPC  H14R24563   4.943   5.782  14.280  0.3813 -0.5935 -0.0582
  198DOPC  H14S24564   5.073   5.892  14.349 -0.8257  0.5157 -0.6706
  198DOPC  C21524565   5.121   5.677  14.325  0.6073 -0.4806 -0.0684
  198DOPC  H15R24566   5.232   5.691  14.323  0.7602 -1.4607  0.9325
  198DOPC  H15S24567   5.091   5.603  14.249  1.5890  0.2466 -1.1968
  198DOPC  C21624568   5.074   5.630  14.469  0.2351 -1.0691  0.4465
  198DOPC  H16R24569   4.963   5.638  14.479  0.1631  1.8344 -1.5068
  198DOPC  H16S24570   5.115   5.707  14.539 -1.5957  1.9159 -1.5270
  198DOPC  C21724571   5.126   5.495  14.505 -0.1151 -0.5544 -0.4288
  198DOPC  H17R24572   5.235   5.498  14.524 -0.0343 -1.1867 -0.7490
  198DOPC  H17S24573   5.120   5.425  14.419  0.1225  1.4595 -2.1540
  198DOPC  C21824574   5.071   5.433  14.629 -0.0263 -0.1786  0.2242
  198DOPC  H18R24575   5.110   5.332  14.654  0.3258  0.0987  0.8288
  198DOPC  H18S24576   4.961   5.427  14.613  0.1294  2.2967 -2.5612
  198DOPC  H18T24577   5.090   5.500  14.716  0.1365 -0.6532  0.5589
  198DOPC   C3324578   4.397   5.333  13.277  0.3326  0.1397 -0.1222
  198DOPC   H3X24579   4.319   5.409  13.295  1.4247  1.0737  0.8756
  198DOPC   H3Y24580   4.501   5.369  13.297 -0.3054  1.1292  1.6388
  198DOPC   C3424581   4.355   5.226  13.380 -0.2939  0.7736  0.1267
  198DOPC   H4X24582   4.434   5.148  13.381  1.4285  2.3268 -2.2256
  198DOPC   H4Y24583   4.252   5.188  13.363  0.0327  0.3337 -0.9411
  198DOPC   C3524584   4.357   5.281  13.520  0.0620  0.9479  0.2357
  198DOPC   H5X24585   4.300   5.376  13.530 -0.3849  0.5100  2.2303
  198DOPC   H5Y24586   4.464   5.286  13.549 -0.1212 -0.7005  1.3368
  198DOPC   C3624587   4.295   5.169  13.612 -0.1738 -0.3259 -0.3832
  198DOPC   H6X24588   4.190   5.150  13.583  0.0242 -0.1539 -1.2643
  198DOPC   H6Y24589   4.366   5.084  13.600 -0.3666 -0.6006  0.4072
  198DOPC   C3724590   4.308   5.202  13.760  0.7459  0.1078 -0.4414
  198DOPC   H7X24591   4.407   5.245  13.786  0.9457 -1.1905  1.0809
  198DOPC   H7Y24592   4.232   5.279  13.784  0.9082  0.4636 -1.0412
  198DOPC   C3824593   4.293   5.079  13.854 -0.4701 -0.4280  0.0475
  198DOPC   H8X24594   4.339   4.999  13.792  0.9420  0.3949 -0.0160
  198DOPC   H8Y24595   4.184   5.059  13.852 -0.8982  1.4106  1.7993
  198DOPC   C3924596   4.336   5.098  13.996 -0.1723  0.1069 -0.1467
  198DOPC   H9X24597   4.409   5.180  14.002  0.7311 -0.5325 -1.6182
  198DOPC  C31024598   4.291   5.046  14.112 -0.2024  0.1575  0.8327
  198DOPC  H10X24599   4.340   5.080  14.205 -1.3428 -1.4422  2.0784
  198DOPC  C31124600   4.188   4.948  14.151 -0.1388 -0.0524 -0.4184
  198DOPC  H11X24601   4.190   4.864  14.079  0.7980 -0.4316  0.0316
  198DOPC  H11Y24602   4.087   4.995  14.153 -0.0763  0.0625  0.2156
  198DOPC  C31224603   4.202   4.883  14.288  0.6666  0.2365 -0.9613
  198DOPC  H12X24604   4.295   4.823  14.300 -0.0573 -0.3923  2.2527
  198DOPC  H12Y24605   4.120   4.814  14.315  0.2054  1.4903  1.0465
  198DOPC  C31324606   4.205   4.986  14.399 -0.0895  0.1396  0.1125
  198DOPC  H13X24607   4.302   5.041  14.401 -0.3174  0.5307  0.5210
  198DOPC  H13Y24608   4.130   5.068  14.401 -0.0854  0.1365  0.5337
  198DOPC  C31424609   4.191   4.925  14.538  0.3554  0.2001  0.1912
  198DOPC  H14X24610   4.244   4.828  14.547 -0.1207 -0.2385 -1.4371
  198DOPC  H14Y24611   4.237   4.981  14.622 -0.7051 -2.6096  2.8448
  198DOPC  C31524612   4.046   4.919  14.589 -0.0884  0.2747 -0.1477
  198DOPC  H15X24613   3.987   4.846  14.530 -0.6948  1.5169 -1.1187
  198DOPC  H15Y24614   4.012   5.024  14.581 -0.2483  0.0920 -3.7507
  198DOPC  C31624615   4.030   4.883  14.738 -0.1121 -0.4204 -0.5558
  198DOPC  H16X24616   4.101   4.953  14.786  1.4939 -0.2081 -3.0798
  198DOPC  H16Y24617   3.928   4.908  14.777  0.7358  0.6581  1.0973
  198DOPC  C31724618   4.065   4.735  14.769 -0.2077 -0.7491  0.0550
  198DOPC  H17X24619   4.014   4.676  14.690  1.3006  0.4256 -1.8616
  198DOPC  H17Y24620   4.175   4.723  14.769  0.2844  2.7017 -2.0068
  198DOPC  C31824621   4.014   4.696  14.908 -0.5425  1.1363 -0.3296
  198DOPC  H18X24622   4.043   4.779  14.976  0.0807  0.0870  0.7297
  198DOPC  H18Y24623   3.903   4.691  14.903 -0.5649  0.4980  0.5685
  198DOPC  H18Z24624   4.044   4.600  14.955 -1.1393  0.3604 -1.4649
  199DOPC     N24625   4.886   1.100  12.172 -0.4632  0.3493  0.8784
  199DOPC   C1224626   4.775   1.069  12.272 -0.2825  0.7207 -0.8684
  199DOPC  H12A24627   4.805   0.980  12.325  0.4645  0.1219 -2.2278
  199DOPC  H12B24628   4.690   1.049  12.208  0.3788  3.1590 -2.6830
  199DOPC   C1324629   5.016   1.139  12.235 -0.0921 -0.2765  1.2709
  199DOPC  H13A24630   5.079   1.055  12.261  0.7747 -0.1680 -0.3228
  199DOPC  H13B24631   5.067   1.203  12.164 -0.2151 -0.6233  0.8632
  199DOPC  H13C24632   4.998   1.211  12.314  0.8427  1.1056  0.2912
  199DOPC   C1424633   4.853   1.213  12.086  0.4402 -0.3687  0.6183
  199DOPC  H14A24634   4.832   1.299  12.148  0.0794 -0.6091  0.8426
  199DOPC  H14B24635   4.927   1.238  12.012  0.1711 -0.5741  0.2732
  199DOPC  H14C24636   4.759   1.206  12.033 -0.0188  1.0658  1.1891
  199DOPC   C1524637   4.908   0.971  12.085 -0.8686 -0.2693  0.7116
  199DOPC  H15A24638   4.969   1.000  12.001 -1.0063 -1.2838  0.2410
  199DOPC  H15B24639   4.821   0.932  12.033 -0.3787  1.2159 -1.3212
  199DOPC  H15C24640   4.953   0.886  12.134  0.8535 -2.4987 -4.0476
  199DOPC   C1124641   4.742   1.177  12.378  0.6407 -0.0449 -0.9480
  199DOPC  H11A24642   4.680   1.133  12.459  1.2935  1.8821  0.7179
  199DOPC  H11B24643   4.833   1.211  12.434  1.6231  0.5409 -2.8081
  199DOPC     P24644   4.528   1.308  12.290 -0.1056  0.2464 -0.1556
  199DOPC   O1324645   4.462   1.177  12.296 -0.1110 -0.4187 -0.1322
  199DOPC   O1424646   4.502   1.387  12.166  0.2517  0.0140 -0.1171
  199DOPC   O1224647   4.684   1.290  12.317  0.0200 -0.0886  1.1755
  199DOPC   O1124648   4.500   1.395  12.417 -0.5016 -0.2387 -0.7576
  199DOPC    C124649   4.579   1.493  12.482 -0.8459 -0.5559  0.0939
  199DOPC    HA24650   4.523   1.582  12.517  1.4530  0.3894  1.6602
  199DOPC    HB24651   4.652   1.536  12.409 -1.0950 -0.3612 -0.0437
  199DOPC    C224652   4.648   1.443  12.608  0.2702 -0.1401 -0.2190
  199DOPC    HS24653   4.708   1.356  12.573 -0.0494 -1.3186  1.9839
  199DOPC   O2124654   4.541   1.405  12.697 -0.0396  0.1329 -0.4921
  199DOPC   C2124655   4.574   1.314  12.786 -0.7821  0.3384  0.1016
  199DOPC   O2224656   4.676   1.249  12.794  0.1019  0.1456  0.7142
  199DOPC   C2224657   4.459   1.316  12.888  0.3394 -0.2247  0.4696
  199DOPC   H2R24658   4.395   1.227  12.871  1.1361 -1.2085  2.2537
  199DOPC   H2S24659   4.404   1.412  12.889  0.6954 -0.0020  2.4672
  199DOPC    C324660   4.747   1.551  12.674  0.0105  0.1569  0.0249
  199DOPC    HX24661   4.694   1.649  12.684  0.6327  0.6560 -1.3045
  199DOPC    HY24662   4.830   1.584  12.609 -0.7221  1.2736 -0.3755
  199DOPC   O3124663   4.796   1.511  12.804 -0.4566  0.1307  0.3732
  199DOPC   C3124664   4.908   1.431  12.809  0.3137  0.2923  0.0450
  199DOPC   O3224665   4.965   1.393  12.712 -0.6420 -0.0878  0.1675
  199DOPC   C3224666   4.936   1.387  12.958  0.2677 -0.0849  0.2031
  199DOPC   H2X24667   4.967   1.474  13.021  1.5148 -0.8216  0.6224
  199DOPC   H2Y24668   4.839   1.347  12.996  0.5850 -2.1219 -1.0413
  199DOPC   C2324669   4.500   1.299  13.033  0.0405  0.7839 -0.5287
  199DOPC   H3R24670   4.581   1.363  13.076 -0.3924 -0.9115  3.2446
  199DOPC   H3S24671   4.525   1.192  13.049 -1.5887  0.4703  0.1763
  199DOPC   C2424672   4.390   1.331  13.125  0.2594  0.5698 -1.5284
  199DOPC   H4R24673   4.307   1.257  13.125 -1.0176  1.9555 -1.7143
  199DOPC   H4S24674   4.349   1.433  13.107 -0.0112  0.8892  0.5569
  199DOPC   C2524675   4.449   1.340  13.268 -0.3763  0.4343  0.0176
  199DOPC   H5R24676   4.526   1.420  13.274 -0.1048  0.1739  0.0773
  199DOPC   H5S24677   4.492   1.239  13.287 -0.3686  0.4721  0.1983
  199DOPC   C2624678   4.345   1.363  13.375 -0.3220 -0.2791  0.8739
  199DOPC   H6R24679   4.257   1.309  13.333  0.6478 -0.9170 -0.4029
  199DOPC   H6S24680   4.317   1.469  13.396  0.0620  0.0443 -0.1990
  199DOPC   C2724681   4.368   1.293  13.512 -0.0679 -0.2642 -0.2805
  199DOPC   H7R24682   4.395   1.192  13.475  0.5698 -0.3560  0.4231
  199DOPC   H7S24683   4.273   1.291  13.570 -0.0680 -1.9281 -0.2754
  199DOPC   C2824684   4.489   1.345  13.592  0.4504  0.9338 -0.1137
  199DOPC   H8R24685   4.577   1.331  13.526  1.9390  0.9301  1.7872
  199DOPC   H8S24686   4.518   1.281  13.678 -0.3172  2.2067  1.1416
  199DOPC   C2924687   4.479   1.491  13.622 -0.6117 -0.7158  0.4303
  199DOPC   H9R24688   4.488   1.560  13.537 -1.8336  0.6945  1.3878
  199DOPC  C21024689   4.425   1.548  13.734  0.6225 -0.4205  0.9870
  199DOPC  H10R24690   4.396   1.654  13.735 -1.9995 -1.0678  2.7392
  199DOPC  C21124691   4.393   1.484  13.862  0.2460 -0.0608  0.3354
  199DOPC  H11R24692   4.431   1.542  13.949  0.1294 -0.9335  0.9875
  199DOPC  H11S24693   4.456   1.393  13.869  3.2434  1.5920 -2.3925
  199DOPC  C21224694   4.244   1.444  13.888 -0.7252 -1.0700  0.1904
  199DOPC  H12R24695   4.210   1.378  13.806  1.8434 -2.4315  0.1104
  199DOPC  H12S24696   4.181   1.536  13.888 -0.1369 -0.6494 -0.5886
  199DOPC  C21324697   4.222   1.385  14.032 -0.0468 -0.0712  0.0172
  199DOPC  H13R24698   4.289   1.300  14.055 -1.8402 -1.8836 -1.1493
  199DOPC  H13S24699   4.122   1.338  14.043  0.6379 -1.2841  1.3860
  199DOPC  C21424700   4.222   1.492  14.131  0.2284 -0.6283  0.0748
  199DOPC  H14R24701   4.140   1.566  14.124  1.1224  0.2292 -2.0181
  199DOPC  H14S24702   4.312   1.556  14.121 -0.7598  1.1749  1.9017
  199DOPC  C21524703   4.217   1.426  14.274  0.1023 -0.1993  0.0451
  199DOPC  H15R24704   4.155   1.334  14.277  1.2934 -1.0322 -0.0855
  199DOPC  H15S24705   4.175   1.497  14.349 -1.0224 -0.1786 -0.5825
  199DOPC  C21624706   4.356   1.376  14.316 -0.6278  0.9344  0.0472
  199DOPC  H16R24707   4.426   1.363  14.231  0.2610  0.8893  0.7647
  199DOPC  H16S24708   4.346   1.270  14.349 -0.3119  0.6110 -0.8612
  199DOPC  C21724709   4.422   1.447  14.433 -0.3704 -0.1305  0.1650
  199DOPC  H17R24710   4.454   1.549  14.402  1.7811 -1.2257 -1.5825
  199DOPC  H17S24711   4.513   1.393  14.467 -0.8729 -1.0069  0.1256
  199DOPC  C21824712   4.335   1.460  14.558 -0.1325  0.8518 -0.1525
  199DOPC  H18R24713   4.257   1.539  14.558 -0.5907  0.4091  0.7061
  199DOPC  H18S24714   4.406   1.485  14.640 -0.1874  1.7686 -0.3685
  199DOPC  H18T24715   4.295   1.357  14.565  1.3900  0.2148 -0.4794
  199DOPC   C3324716   5.037   1.276  12.981  0.5215 -0.2313 -0.1907
  199DOPC   H3X24717   5.139   1.317  12.960  0.8117 -0.4615  0.7491
  199DOPC   H3Y24718   5.025   1.197  12.904 -0.3341 -0.4262  0.1378
  199DOPC   C3424719   5.032   1.214  13.123  0.4529 -0.4743 -0.8397
  199DOPC   H4X24720   5.095   1.122  13.128 -0.0022 -0.7314  0.4134
  199DOPC   H4Y24721   4.927   1.188  13.145  0.9485 -2.8974 -1.0239
  199DOPC   C3524722   5.080   1.314  13.236  0.0882  0.0084 -0.7747
  199DOPC   H5X24723   5.058   1.276  13.338 -0.3373  2.1125 -0.0163
  199DOPC   H5Y24724   5.023   1.409  13.223  0.6390  0.2092 -1.8147
  199DOPC   C3624725   5.232   1.350  13.229 -0.0064  0.1398 -0.2468
  199DOPC   H6X24726   5.290   1.255  13.227 -0.8902 -0.4022 -1.2354
  199DOPC   H6Y24727   5.256   1.401  13.133  2.9760  1.9441  1.2808
  199DOPC   C3724728   5.282   1.444  13.345  0.5513  0.0845  0.2949
  199DOPC   H7X24729   5.389   1.457  13.319  0.7790 -0.3771  0.9815
  199DOPC   H7Y24730   5.231   1.543  13.338  0.0316 -0.2085 -0.0856
  199DOPC   C3824731   5.263   1.388  13.483  0.1329 -0.0936 -1.0170
  199DOPC   H8X24732   5.316   1.292  13.503  0.8891  0.7246  1.2546
  199DOPC   H8Y24733   5.154   1.366  13.491  0.5899 -2.2643  0.3342
  199DOPC   C3924734   5.318   1.489  13.588  0.2613  0.0993 -0.2243
  199DOPC   H9X24735   5.356   1.576  13.532  1.0774  0.0689  0.2598
  199DOPC  C31024736   5.314   1.480  13.721  0.4332 -0.1252 -0.1858
  199DOPC  H10X24737   5.361   1.556  13.786  0.2617  0.0061 -0.2140
  199DOPC  C31124738   5.247   1.359  13.789  0.0974  0.0163  0.2021
  199DOPC  H11X24739   5.326   1.289  13.821  0.5821  0.2868 -0.3787
  199DOPC  H11Y24740   5.172   1.315  13.720 -1.0261  0.9671  0.7758
  199DOPC  C31224741   5.176   1.391  13.920  0.3288  0.1494  0.2102
  199DOPC  H12X24742   5.148   1.287  13.947  1.2200 -0.4277 -1.0187
  199DOPC  H12Y24743   5.082   1.448  13.901 -0.0960 -0.6871 -0.2532
  199DOPC  C31324744   5.251   1.446  14.041 -0.1148 -0.4182 -0.3910
  199DOPC  H13X24745   5.346   1.397  14.073 -0.0245 -0.8204 -1.2300
  199DOPC  H13Y24746   5.288   1.546  14.009 -0.1227 -0.7060 -1.3428
  199DOPC  C31424747   5.161   1.465  14.167 -0.3539  0.0293 -0.5338
  199DOPC  H14X24748   5.096   1.554  14.154  2.2292  2.3062  1.0760
  199DOPC  H14Y24749   5.099   1.373  14.173 -0.3740 -0.0233 -1.4060
  199DOPC  C31524750   5.243   1.491  14.293 -0.4673 -0.2370 -0.6546
  199DOPC  H15X24751   5.177   1.540  14.367  0.1491 -0.4619  0.0580
  199DOPC  H15Y24752   5.325   1.558  14.257  1.0938 -3.6396 -4.2271
  199DOPC  C31624753   5.296   1.363  14.356  0.0007  0.5299  0.3024
  199DOPC  H16X24754   5.215   1.289  14.376  0.6041  0.0404  0.9978
  199DOPC  H16Y24755   5.368   1.314  14.287 -0.9301  0.1218 -0.3959
  199DOPC  C31724756   5.361   1.381  14.488 -0.7245 -0.2730 -0.0771
  199DOPC  H17X24757   5.421   1.289  14.504 -3.4348 -1.9669  1.1266
  199DOPC  H17Y24758   5.429   1.469  14.487 -1.5042  0.3350 -0.4037
  199DOPC  C31824759   5.263   1.395  14.601 -0.2034 -0.3231 -0.3632
  199DOPC  H18X24760   5.213   1.494  14.593 -0.8915 -0.6364 -0.0173
  199DOPC  H18Y24761   5.176   1.327  14.591 -1.2727  1.0415 -0.5300
  199DOPC  H18Z24762   5.328   1.387  14.691  0.5835 -2.5329 -1.0551
  200DOPC     N24763   6.672   2.032  12.357 -0.0066  0.3636  0.2164
  200DOPC   C1224764   6.718   1.961  12.474 -0.7427  0.0937  0.0005
  200DOPC  H12A24765   6.641   1.918  12.537 -1.6462 -0.2145 -1.2826
  200DOPC  H12B24766   6.765   2.035  12.537  2.4529 -0.2172 -1.8312
  200DOPC   C1324767   6.781   2.110  12.297  0.3350  0.3891  0.4542
  200DOPC  H13A24768   6.754   2.173  12.213  1.9924 -0.2434 -0.5954
  200DOPC  H13B24769   6.832   2.153  12.382  1.4941  2.7970 -1.3372
  200DOPC  H13C24770   6.854   2.043  12.254 -0.3134  0.0564 -0.1519
  200DOPC   C1424771   6.558   2.123  12.404 -0.5459  0.3603  0.9438
  200DOPC  H14A24772   6.596   2.186  12.483 -1.0439  0.0188  1.4620
  200DOPC  H14B24773   6.526   2.187  12.323 -1.9090 -0.5985  0.6916
  200DOPC  H14C24774   6.470   2.079  12.448 -0.4073  0.5736  1.4360
  200DOPC   C1524775   6.620   1.930  12.263 -0.1695 -0.4399  0.4022
  200DOPC  H15A24776   6.578   1.967  12.171 -0.6908  1.9771  1.5368
  200DOPC  H15B24777   6.547   1.875  12.321 -0.4242 -1.4230 -0.8184
  200DOPC  H15C24778   6.696   1.859  12.234  0.1909 -1.1874  2.8765
  200DOPC   C1124779   6.823   1.852  12.467 -0.3761 -0.6232  0.3656
  200DOPC  H11A24780   6.859   1.811  12.564  0.5840  0.4086  0.4610
  200DOPC  H11B24781   6.788   1.768  12.403 -3.9859  2.1541 -1.7012
  200DOPC     P24782   7.046   1.998  12.492  0.2584  0.2236  0.2102
  200DOPC   O1324783   6.973   2.117  12.543 -0.5629 -0.5272  0.1364
  200DOPC   O1424784   7.172   2.016  12.418 -0.2792 -0.2506  0.0168
  200DOPC   O1224785   6.941   1.910  12.407 -0.5278  0.7804  0.8095
  200DOPC   O1124786   7.083   1.915  12.616 -0.1249 -0.2820  0.2963
  200DOPC    C124787   7.192   1.917  12.702  0.3804  0.0459  1.2507
  200DOPC    HA24788   7.210   2.024  12.724  0.4472  0.2803  0.1425
  200DOPC    HB24789   7.280   1.878  12.646 -0.1676 -0.0767  0.4605
  200DOPC    C224790   7.167   1.835  12.832  0.2494 -0.8997 -0.1607
  200DOPC    HS24791   7.163   1.729  12.802 -1.0763 -1.8490  2.9957
  200DOPC   O2124792   7.039   1.877  12.906 -0.4309  0.1677 -0.1217
  200DOPC   C2124793   7.001   1.770  12.988  0.8927 -0.7738  0.5765
  200DOPC   O2224794   7.032   1.657  12.973  0.2064 -0.0209 -0.2332
  200DOPC   C2224795   6.904   1.824  13.091 -0.3450 -0.4611 -0.2589
  200DOPC   H2R24796   6.812   1.762  13.084 -1.1039  0.3657  1.7929
  200DOPC   H2S24797   6.870   1.924  13.056 -3.2101 -1.6961 -1.3690
  200DOPC    C324798   7.292   1.854  12.920  0.2739 -0.1543 -0.1478
  200DOPC    HX24799   7.298   1.961  12.951  1.8733 -0.0282 -0.7832
  200DOPC    HY24800   7.383   1.819  12.868 -0.3607 -1.8831 -0.1373
  200DOPC   O3124801   7.284   1.781  13.043  0.5063 -0.2081 -0.4606
  200DOPC   C3124802   7.330   1.656  13.042 -0.5018 -0.5710 -0.2548
  200DOPC   O3224803   7.406   1.612  12.954 -0.0739  0.1084  0.0874
  200DOPC   C3224804   7.295   1.586  13.172  0.3606 -0.3232  1.0465
  200DOPC   H2X24805   7.338   1.649  13.253 -1.1117  2.0640  0.0979
  200DOPC   H2Y24806   7.184   1.577  13.176  0.2350 -0.8541 -1.6066
  200DOPC   C2324807   6.952   1.836  13.241 -0.0233  0.1258 -0.3363
  200DOPC   H3R24808   7.013   1.929  13.246 -0.4836  0.5520 -2.0900
  200DOPC   H3S24809   7.007   1.744  13.270 -0.6597 -0.4706 -0.9821
  200DOPC   C2424810   6.827   1.847  13.330 -0.0714  0.3715 -0.1382
  200DOPC   H4R24811   6.784   1.746  13.345  0.1771 -0.2788 -3.2103
  200DOPC   H4S24812   6.746   1.907  13.283 -0.9410 -0.2811  0.4928
  200DOPC   C2524813   6.855   1.908  13.466 -0.1020 -0.3273 -0.0793
  200DOPC   H5R24814   6.763   1.897  13.527 -0.3204  2.4664  0.2247
  200DOPC   H5S24815   6.870   2.015  13.440 -3.1097  0.2940  0.3410
  200DOPC   C2624816   6.971   1.860  13.554 -1.1626 -0.3865 -0.2450
  200DOPC   H6R24817   7.068   1.888  13.507 -0.6209  1.1588  1.6426
  200DOPC   H6S24818   6.965   1.751  13.577  2.5407 -0.2212  2.5281
  200DOPC   C2724819   6.968   1.928  13.693  0.2098 -0.3966 -0.3490
  200DOPC   H7R24820   6.870   1.902  13.738 -0.1847 -0.3738 -1.1701
  200DOPC   H7S24821   6.969   2.038  13.681  2.5872 -0.3815 -0.5550
  200DOPC   C2824822   7.074   1.878  13.798  0.3566 -0.1056 -0.3565
  200DOPC   H8R24823   7.091   1.769  13.789  0.3590  0.0516 -3.7818
  200DOPC   H8S24824   7.032   1.900  13.899  0.7178  0.2594 -0.2812
  200DOPC   C2924825   7.203   1.943  13.760  0.3171  0.5471 -0.4095
  200DOPC   H9R24826   7.261   1.885  13.688 -2.1856 -1.6384 -0.8262
  200DOPC  C21024827   7.267   2.044  13.823  0.1110 -0.6335  0.0669
  200DOPC  H10R24828   7.367   2.074  13.788  0.1394  1.4282  1.6833
  200DOPC  C21124829   7.218   2.145  13.923  0.4947  0.3380 -0.1370
  200DOPC  H11R24830   7.116   2.121  13.958  0.6474 -3.3483 -1.7620
  200DOPC  H11S24831   7.219   2.249  13.884 -1.5442  1.2839  2.1001
  200DOPC  C21224832   7.298   2.143  14.050 -0.0217 -0.2694 -0.0453
  200DOPC  H12R24833   7.400   2.177  14.020 -0.1261 -1.1400 -1.4380
  200DOPC  H12S24834   7.307   2.041  14.092 -2.0546 -1.3685 -2.0859
  200DOPC  C21324835   7.244   2.240  14.153  0.1861  0.3905 -0.6792
  200DOPC  H13R24836   7.193   2.184  14.234  1.7767  0.2377  0.2727
  200DOPC  H13S24837   7.166   2.307  14.112  0.7259  1.1568 -0.4880
  200DOPC  C21424838   7.356   2.333  14.212  0.7032  0.0900 -0.1325
  200DOPC  H14R24839   7.393   2.394  14.127 -1.5661  0.2883 -1.0357
  200DOPC  H14S24840   7.439   2.263  14.236 -0.0728 -1.4021 -1.5390
  200DOPC  C21524841   7.313   2.412  14.329 -0.1887 -0.3536  0.0081
  200DOPC  H15R24842   7.246   2.492  14.289 -0.6637 -0.0657  1.3113
  200DOPC  H15S24843   7.402   2.469  14.366  0.1432  0.4684 -1.9321
  200DOPC  C21624844   7.251   2.336  14.448 -0.5307  0.4363 -0.0174
  200DOPC  H16R24845   7.334   2.277  14.491  0.3444 -0.3725 -2.6430
  200DOPC  H16S24846   7.172   2.268  14.411 -1.9944  2.1005 -0.1267
  200DOPC  C21724847   7.194   2.428  14.554 -0.2122  0.0709 -0.6316
  200DOPC  H17R24848   7.102   2.471  14.508 -0.2657  0.6443  0.0122
  200DOPC  H17S24849   7.261   2.514  14.576  1.5720 -1.5072  0.3341
  200DOPC  C21824850   7.156   2.348  14.679 -0.3300  0.0259 -0.4713
  200DOPC  H18R24851   7.216   2.263  14.717  0.0191  1.2941  1.9937
  200DOPC  H18S24852   7.051   2.319  14.657  0.4405 -0.5703 -3.8839
  200DOPC  H18T24853   7.157   2.416  14.767 -4.2133 -1.9171  1.3637
  200DOPC   C3324854   7.359   1.444  13.184  0.1221  0.6125  0.3531
  200DOPC   H3X24855   7.470   1.447  13.179  0.1552 -0.1185  0.4609
  200DOPC   H3Y24856   7.331   1.372  13.104 -2.3364  1.0082  0.7880
  200DOPC   C3424857   7.309   1.384  13.317 -0.3751  0.4562  0.3927
  200DOPC   H4X24858   7.352   1.282  13.326 -1.0091  0.0135 -1.2592
  200DOPC   H4Y24859   7.199   1.377  13.306 -0.2239 -0.8085 -0.6850
  200DOPC   C3524860   7.353   1.464  13.439 -0.4286 -0.1851 -0.1440
  200DOPC   H5X24861   7.314   1.568  13.448  0.0929  0.0900 -0.9953
  200DOPC   H5Y24862   7.463   1.479  13.446 -0.5983  1.0082  0.4036
  200DOPC   C3624863   7.313   1.399  13.574 -0.4072  0.5224 -0.0729
  200DOPC   H6X24864   7.205   1.413  13.594 -1.0108 -0.7338 -2.1718
  200DOPC   H6Y24865   7.331   1.289  13.570  0.8060  0.6153  1.7356
  200DOPC   C3724866   7.394   1.470  13.681  0.5095  0.4315  0.0605
  200DOPC   H7X24867   7.491   1.417  13.684  0.0402 -0.4868 -0.7194
  200DOPC   H7Y24868   7.411   1.577  13.655  2.1426  0.2765  0.3812
  200DOPC   C3824869   7.324   1.471  13.825  0.7960  0.1770  0.1693
  200DOPC   H8X24870   7.288   1.367  13.837 -0.3279  0.7094  1.7816
  200DOPC   H8Y24871   7.249   1.552  13.814  0.0581 -0.4912  0.1932
  200DOPC   C3924872   7.427   1.502  13.931  0.0711  0.4510 -0.2792
  200DOPC   H9X24873   7.518   1.441  13.939  0.5739  1.3270  1.0585
  200DOPC  C31024874   7.418   1.612  14.012 -0.1306  0.2513  0.2225
  200DOPC  H10X24875   7.494   1.637  14.088  1.0935  7.0794 -2.5429
  200DOPC  C31124876   7.297   1.701  14.027 -0.2338  0.7475  0.2080
  200DOPC  H11X24877   7.204   1.660  13.982  0.7526 -0.4526 -0.8060
  200DOPC  H11Y24878   7.304   1.804  13.988 -0.9963  0.9708  0.6369
  200DOPC  C31224879   7.284   1.729  14.175 -0.0115 -0.7662 -0.3867
  200DOPC  H12X24880   7.374   1.791  14.193 -1.9445  2.7308 -1.9910
  200DOPC  H12Y24881   7.288   1.637  14.238 -1.5301 -0.4570  0.2158
  200DOPC  C31324882   7.161   1.807  14.212  1.0330 -0.2074  0.2078
  200DOPC  H13X24883   7.150   1.896  14.146 -0.6092 -1.0104 -0.6888
  200DOPC  H13Y24884   7.072   1.741  14.200  0.7714  0.0595  0.6884
  200DOPC  C31424885   7.164   1.852  14.360  0.5487  0.2779  0.1016
  200DOPC  H14X24886   7.160   1.762  14.424 -1.6668  0.7792  0.7620
  200DOPC  H14Y24887   7.256   1.913  14.368  0.0604  0.9567  0.5917
  200DOPC  C31524888   7.042   1.941  14.392  0.0129 -0.1341 -0.0272
  200DOPC  H15X24889   6.944   1.890  14.381 -0.0730  0.0093  0.0750
  200DOPC  H15Y24890   7.050   2.028  14.322  2.1845  1.0845  1.6208
  200DOPC  C31624891   7.052   1.998  14.531 -0.2926 -0.8450  0.3510
  200DOPC  H16X24892   7.157   2.027  14.554 -0.6244  0.3979  0.3410
  200DOPC  H16Y24893   6.988   2.088  14.543 -0.6467 -1.2393  1.5439
  200DOPC  C31724894   7.002   1.892  14.642 -0.2344 -0.8933  0.2602
  200DOPC  H17X24895   6.893   1.915  14.645  0.1365  1.1469 -0.3243
  200DOPC  H17Y24896   7.023   1.788  14.610 -1.1346 -1.4387  1.3781
  200DOPC  C31824897   7.055   1.927  14.780  0.5870 -0.4936 -0.1668
  200DOPC  H18X24898   6.981   1.894  14.857  0.5959 -2.4955 -0.9399
  200DOPC  H18Y24899   7.153   1.879  14.799  0.2700 -0.2957  2.2316
  200DOPC  H18Z24900   7.065   2.037  14.788 -1.4430 -0.3489  1.2203
  201SOD    SOD24901   4.655   0.583  19.313 -0.0109  0.1807 -0.2199
  202SOD    SOD24902   4.565   2.675  11.191 -0.2898  0.2031  0.2533
  203SOD    SOD24903   2.352   3.789  18.838  0.2264 -0.0265 -0.6715
  204SOD    SOD24904   2.235   5.100  10.043  0.2802 -0.2694  0.6753
  205SOD    SOD24905   3.356   2.035  18.896 -0.0285 -0.2188 -0.1514
  206SOD    SOD24906   0.366   0.086  12.569  0.4519  0.0437  0.3375
  207SOD    SOD24907   1.090   6.113  11.121  0.2620 -0.0875 -0.1204
  208SOD    SOD24908   6.493   2.611  20.145 -0.5273 -0.1219 -0.0285
  209SOD    SOD24909   1.150   1.761  11.497 -0.3289 -0.3181  0.0899
  210SOD    SOD24910   5.507   1.494  20.533 -0.2972  0.0418 -0.5241
  211SOD    SOD24911   1.140   1.387  18.500 -0.2246  0.3151  0.2380
  212SOD    SOD24912   2.919   4.722  19.755  0.2673 -0.0391  0.2788
  213SOD    SOD24913   0.884   0.114  10.749 -0.1192 -0.0077 -0.0321
  214SOD    SOD24914   2.193   2.261  20.142  0.6124  0.0649  0.6134
  215SOD    SOD24915   2.741   6.323  18.122 -0.2789 -0.1010  0.0944
  216SOD    SOD24916   1.490   4.413  20.307 -0.0498 -0.0803  0.1215
  217SOD    SOD24917   3.409   0.657  10.732 -0.1670 -0.1881 -0.0597
  218SOD    SOD24918   6.608   0.558  18.734  0.0973 -0.0982 -0.2303
  219SOD    SOD24919   4.157   6.348  18.182 -0.4362 -0.5284 -0.4357
  220SOD    SOD24920   2.290   2.176  10.435  0.2257  0.0665 -0.6201
  221SOD    SOD24921   5.875   4.576  11.464  0.5681 -0.4556  0.1160
  222SOD    SOD24922   2.040   6.579  18.801 -0.1791 -0.5839 -0.2601
  223SOD    SOD24923   3.707   4.657  11.085  0.0381  0.0668 -0.6214
  224SOD    SOD24924   5.339   6.585  11.514  0.3301 -0.0832  0.1407
  225SOD    SOD24925   5.842   0.426  10.885 -0.1727  0.0887 -0.5783
  226SOD    SOD24926   4.708   3.499  17.527 -0.1328  0.7902 -0.0325
  227CLA    CLA24927   3.756   3.896  10.362 -0.3462  0.1107  0.0888
  228CLA    CLA24928   6.594   1.177  10.571  0.2644  0.0068 -0.1214
  229CLA    CLA24929   1.927   1.085  10.954  0.1502 -0.3740  0.1428
  230CLA    CLA24930   3.580   4.798  18.422 -0.1249  0.2000  0.0254
  231CLA    CLA24931   5.050   1.442  19.512  0.0560 -0.0736 -0.0041
  232CLA    CLA24932   4.623   5.522  18.401 -0.1507  0.1981  0.0996
  233CLA    CLA24933   0.039   6.301  19.316  0.1834 -0.1593  0.3939
  234CLA    CLA24934   6.617   0.724  19.278 -0.2885 -0.1943  0.5810
  235CLA    CLA24935   4.997   6.710  10.592  0.0030  0.1323  0.0972
  236CLA    CLA24936   4.185   1.402  18.755  0.1141  0.3255 -0.0356
  237CLA    CLA24937   2.099   3.272  19.903 -0.3188  0.1351  0.1910
  238CLA    CLA24938   1.553   6.037  11.586 -0.0776 -0.0036 -0.2515
  239CLA    CLA24939   2.550   0.467  10.018 -0.6188 -0.1245  0.2827
  240CLA    CLA24940   6.109   5.683  20.258  0.0205  0.2569  0.0877
  241CLA    CLA24941   2.817   6.162   9.517  0.1081 -0.1260 -0.0329
  242CLA    CLA24942   3.334   1.142  18.259  0.0766 -0.0199 -0.0428
  243CLA    CLA24943   6.564   4.990  11.277  0.3966 -0.2218 -0.0230
  244CLA    CLA24944   2.794   5.162  10.673 -0.0862 -0.0085 -0.5951
  245CLA    CLA24945   6.634   1.366  12.009 -0.3093  0.0181  0.1152
  246CLA    CLA24946   0.290   3.416  20.375 -0.0963 -0.1675  0.1907
  247CLA    CLA24947   6.195   0.100  11.276  0.3652  0.4206  0.4001
  248CLA    CLA24948   1.156   4.978  10.505 -0.0078 -0.0299  0.0821
  249CLA    CLA24949   2.374   3.272  11.774  0.0816 -0.4490  0.2656
  250CLA    CLA24950   4.343   4.765  19.034 -0.2844 -0.0111 -0.1949
  251CLA    CLA24951   1.427   4.059  19.777  0.5373 -0.3733 -0.2044
  252CLA    CLA24952   6.531   2.470  12.263 -0.2066 -0.0671 -0.3573
  253TIP3   OH224953   0.964   4.991  20.269 -0.1039  0.4227  0.3573
  253TIP3    H124954   0.882   4.943  20.272  0.6608 -0.9809 -0.0408
  253TIP3    H224955   1.029   4.930  20.304  0.8097  1.3966  0.4134
  254TIP3   OH224956   1.812   1.578  18.374 -0.4191  0.6190  0.0426
  254TIP3    H124957   1.854   1.655  18.334  1.9672 -0.2653  0.6601
  254TIP3    H224958   1.867   1.558  18.449  0.3011 -2.8892 -1.2332
  255TIP3   OH224959   0.171   0.805  20.718  0.2078  0.1907  0.7725
  255TIP3    H124960   0.122   0.884  20.738  0.0488  0.1419  0.5753
  255TIP3    H224961   0.104   0.738  20.703  0.3222  0.2555 -0.0409
  256TIP3   OH224962   4.042   2.283  18.203  0.4441  0.2093 -0.3480
  256TIP3    H124963   4.126   2.246  18.230  0.2134 -0.1757 -0.1392
  256TIP3    H224964   4.007   2.323  18.283 -0.5677 -1.5584  0.1529
  257TIP3   OH224965   2.486   5.495  19.787  0.1947 -0.5254 -0.3658
  257TIP3    H124966   2.541   5.420  19.762 -0.0887 -0.5924 -0.8137
  257TIP3    H224967   2.441   5.519  19.706  1.0406  0.7752 -0.4600
  258TIP3   OH224968   2.489   1.778  18.069  0.1374  0.0078 -0.3037
  258TIP3    H124969   2.439   1.699  18.045  0.5246  0.0562 -1.3232
  258TIP3    H224970   2.537   1.753  18.148 -2.4143  0.3438  1.4857
  259TIP3   OH224971   5.081   2.703  18.925 -0.1482 -0.0082  0.2321
  259TIP3    H124972   5.000   2.668  18.964 -0.9334 -0.1543 -1.4504
  259TIP3    H224973   5.145   2.699  18.996 -1.4064 -0.6172  1.3862
  260TIP3   OH224974   1.830   3.243  20.581 -0.4933  0.0448 -0.2582
  260TIP3    H124975   1.918   3.213  20.604  0.1547  1.5223 -0.7000
  260TIP3    H224976   1.787   3.165  20.545  0.4243 -0.8414  0.5017
  261TIP3   OH224977   3.812   6.449  20.147  0.3118  0.3484  0.7346
  261TIP3    H124978   3.898   6.480  20.176 -0.0672  2.5291 -0.2950
  261TIP3    H224979   3.820   6.442  20.052 -0.0249 -1.6146  0.8049
  262TIP3   OH224980   3.047   5.114  17.877 -0.2195 -0.0008  0.0976
  262TIP3    H124981   3.095   5.036  17.849  0.2145  0.4342 -0.3789
  262TIP3    H224982   2.981   5.128  17.809  0.4884  0.7464 -0.4432
  263TIP3   OH224983   3.018   2.368  17.954 -0.0348  0.0707  0.4382
  263TIP3    H124984   3.111   2.382  17.970  0.3327  1.3037 -2.3237
  263TIP3    H224985   3.011   2.276  17.927  0.7412  0.5091 -1.3552
  264TIP3   OH224986   2.709   3.217  19.301  0.5292 -0.7826  0.8779
  264TIP3    H124987   2.746   3.214  19.213 -1.0908 -0.4429  0.1394
  264TIP3    H224988   2.689   3.310  19.315 -1.8225 -1.1442  0.4016
  265TIP3   OH224989   0.822   2.062  19.366 -0.0978  0.7659  0.5610
  265TIP3    H124990   0.854   2.148  19.393 -0.7802  0.9657  0.7519
  265TIP3    H224991   0.732   2.078  19.336  0.6658  0.6165 -2.0537
  266TIP3   OH224992   3.119   6.446  17.939 -0.1581 -0.1172 -0.1951
  266TIP3    H124993   3.108   6.353  17.920  0.5789 -0.4819  1.0745
  266TIP3    H224994   3.140   6.486  17.854 -0.4191 -1.1049 -0.7370
  267TIP3   OH224995   4.806   1.380  20.208  0.4404 -0.0389 -0.1833
  267TIP3    H124996   4.755   1.442  20.156  0.8136 -1.0115 -1.7681
  267TIP3    H224997   4.860   1.333  20.145  0.3496 -1.8188  0.9651
  268TIP3   OH224998   4.022   4.518  20.717  0.3642  0.1973 -0.2852
  268TIP3    H124999   3.943   4.505  20.663 -0.9638  0.7513  1.4523
  268TIP3    H225000   4.069   4.590  20.674 -0.4998  0.4264 -0.8725
  269TIP3   OH225001   5.372   0.809  19.869  0.3969 -0.1578 -0.0382
  269TIP3    H125002   5.397   0.740  19.930 -0.6892  0.0578  0.6688
  269TIP3    H225003   5.372   0.889  19.922  1.0248  0.3094 -0.7060
  270TIP3   OH225004   6.080   0.662  19.859 -0.2738 -0.4023  0.2022
  270TIP3    H125005   6.054   0.614  19.781 -0.9158  0.8250 -0.3793
  270TIP3    H225006   6.175   0.671  19.851 -0.4368  0.6387 -1.0383
  271TIP3   OH225007   4.154   4.694  20.552  0.1590 -0.2752 -0.3889
  271TIP3    H125008   4.162   4.702  20.457 -1.8250  1.9801 -0.4641
  271TIP3    H225009   4.234   4.733  20.587  0.0328  0.6686 -1.1364
  272TIP3   OH225010   2.952   4.504  19.723  0.2026 -0.2071  0.1806
  272TIP3    H125011   2.977   4.443  19.792 -1.3089 -1.0193  0.0569
  272TIP3    H225012   2.963   4.455  19.642  0.2316  0.1370 -0.0268
  273TIP3   OH225013   5.545   3.682  19.123  0.0131 -0.2479 -0.0011
  273TIP3    H125014   5.518   3.749  19.187 -2.1693 -0.2349 -0.8361
  273TIP3    H225015   5.523   3.720  19.038 -2.3168 -2.3581 -0.4677
  274TIP3   OH225016   3.795   1.682  20.733 -0.6186 -0.3929  0.0684
  274TIP3    H125017   3.757   1.605  20.691 -1.4039 -0.2313  0.4555
  274TIP3    H225018   3.887   1.660  20.746 -0.5677 -0.7979 -0.9006
  275TIP3   OH225019   2.808   4.189  19.513  0.5612  0.2489 -0.2855
  275TIP3    H125020   2.856   4.269  19.530  2.0311 -0.6808  0.0850
  275TIP3    H225021   2.807   4.182  19.417  1.1228  0.2949 -0.2952
  276TIP3   OH225022   3.126   4.459  19.246 -0.0389  0.4326 -0.4488
  276TIP3    H125023   3.170   4.403  19.182 -0.4616  0.1115 -0.4597
  276TIP3    H225024   3.035   4.465  19.215  0.1937  1.8852 -0.9751
  277TIP3   OH225025   5.011   3.114  17.766  0.1603 -0.1071 -0.2355
  277TIP3    H125026   5.045   3.121  17.677  0.6756 -1.0915 -0.1326
  277TIP3    H225027   4.919   3.137  17.758  0.4991  1.1934 -0.7693
  278TIP3   OH225028   5.318   4.954  19.201 -0.1627 -0.0808 -0.6389
  278TIP3    H125029   5.306   4.895  19.275 -0.6566  2.7994  1.7456
  278TIP3    H225030   5.229   4.979  19.176  0.0422  1.3339 -0.0788
  279TIP3   OH225031   2.082   6.343  19.204  0.1834 -0.1225 -0.1970
  279TIP3    H125032   1.993   6.373  19.221  0.0992 -0.2964 -0.3343
  279TIP3    H225033   2.131   6.367  19.283  0.0458  0.0958 -0.1780
  280TIP3   OH225034   3.498   5.812  20.243  0.0450  0.0933 -0.2377
  280TIP3    H125035   3.567   5.869  20.277 -0.9268  1.0286  0.2292
  280TIP3    H225036   3.428   5.819  20.308 -1.2771  0.7451 -1.6732
  281TIP3   OH225037   3.712   1.127  20.767  0.0574 -0.3118  0.4177
  281TIP3    H125038   3.697   1.221  20.780 -2.3325 -0.7678  1.6168
  281TIP3    H225039   3.734   1.119  20.675 -0.6476  1.3507  0.0590
  282TIP3   OH225040   1.400   6.088  20.031  0.6680 -0.6661  0.2800
  282TIP3    H125041   1.391   6.024  20.102 -0.5240 -0.8257  0.0100
  282TIP3    H225042   1.490   6.119  20.038  0.7833 -1.1981  1.4230
  283TIP3   OH225043   2.798   3.707  20.217  0.2392  0.3966  0.0854
  283TIP3    H125044   2.775   3.781  20.162 -0.0596  1.3738  1.4765
  283TIP3    H225045   2.780   3.630  20.163 -0.2899  1.3014 -1.0640
  284TIP3   OH225046   4.329   2.708  11.188  0.0504  0.4502  0.0264
  284TIP3    H125047   4.269   2.718  11.114 -1.0109 -1.3018  0.5981
  284TIP3    H225048   4.288   2.756  11.259 -0.3980 -0.2938  0.2698
  285TIP3   OH225049   0.511   5.405  12.248  0.0360 -0.0839  0.1599
  285TIP3    H125050   0.556   5.456  12.316  1.8198 -2.0237  0.5339
  285TIP3    H225051   0.484   5.325  12.293 -1.0653 -0.2900 -0.8296
  286TIP3   OH225052   1.735   2.070  12.278 -0.1513 -0.0971 -0.9103
  286TIP3    H125053   1.824   2.046  12.251  0.4050  1.2102 -0.3445
  286TIP3    H225054   1.748   2.139  12.344 -1.5946  0.6389 -1.3536
  287TIP3   OH225055   0.558   1.799   9.798 -0.0577 -0.2972 -0.2161
  287TIP3    H125056   0.472   1.794   9.757  0.8230 -0.3561 -2.1528
  287TIP3    H225057   0.565   1.718   9.849 -1.3453 -0.0225  0.4547
  288TIP3   OH225058   6.250   6.393  12.779  0.8305 -0.7718  0.4478
  288TIP3    H125059   6.328   6.405  12.834  2.5686  0.7783 -2.1631
  288TIP3    H225060   6.250   6.300  12.759  2.7413 -0.6310 -0.4220
  289TIP3   OH225061   0.605   6.375  11.889  0.3355 -0.2181  0.3121
  289TIP3    H125062   0.695   6.354  11.864  0.0258 -0.6836 -0.4775
  289TIP3    H225063   0.577   6.442  11.826 -0.3729 -1.2173 -0.4784
  290TIP3   OH225064   4.926   5.756  11.389 -0.8727  0.5918  0.1576
  290TIP3    H125065   4.954   5.664  11.389  0.4834  0.9764  0.2475
  290TIP3    H225066   4.854   5.759  11.452 -0.1663 -0.2034  1.0431
  291TIP3   OH225067   6.154   4.555  10.298 -0.3598 -0.3757  0.4667
  291TIP3    H125068   6.222   4.584  10.359  0.5112  1.2778 -1.2077
  291TIP3    H225069   6.076   4.544  10.353  0.5541  0.3485  1.9827
  292TIP3   OH225070   5.328   5.947  12.249 -0.8417  0.2284  0.3729
  292TIP3    H125071   5.348   5.858  12.277 -0.0142  0.3072  0.0560
  292TIP3    H225072   5.316   5.996  12.330 -2.0497 -0.3167  0.5520
  293TIP3   OH225073   3.385   5.594   9.887  0.3171 -0.1086  0.3691
  293TIP3    H125074   3.382   5.615   9.980  3.5745  0.6535  0.4156
  293TIP3    H225075   3.328   5.659   9.846 -0.1790  0.3395  1.7161
  294TIP3   OH225076   2.480   3.491   9.223 -0.1153  0.1811  0.0737
  294TIP3    H125077   2.522   3.515   9.306  0.5467 -0.9444  0.0862
  294TIP3    H225078   2.505   3.400   9.210  0.0072  0.4265 -1.5013
  295TIP3   OH225079   0.042   1.287  12.560 -0.1979  0.2827  0.6767
  295TIP3    H125080   0.035   1.249  12.472 -1.6548 -1.2873  1.4139
  295TIP3    H225081   0.131   1.265  12.588 -0.7681 -2.2249  0.8324
  296TIP3   OH225082   2.006   1.803  11.865  0.6956 -1.2953 -1.1206
  296TIP3    H125083   2.003   1.780  11.958  0.1637  3.0442  0.1510
  296TIP3    H225084   1.917   1.787  11.832 -0.5785  1.5461  0.5543
  297TIP3   OH225085   4.147   4.579  11.066 -0.2336  0.4691 -0.3782
  297TIP3    H125086   4.091   4.570  11.144  0.5425  0.6510  0.2094
  297TIP3    H225087   4.086   4.600  10.996 -0.8770  1.0248  0.3271
  298TIP3   OH225088   5.791   6.681   9.739 -0.2861  0.0491 -0.0138
  298TIP3    H125089   5.792   6.590   9.768 -1.3983 -0.1179 -0.4407
  298TIP3    H225090   5.882   6.701   9.720  0.0060 -0.8997  0.3297
  299TIP3   OH225091   3.067   6.077  10.249  0.7128  0.5880  0.4345
  299TIP3    H125092   2.987   6.047  10.207  1.0439 -0.2667  0.3926
  299TIP3    H225093   3.056   6.172  10.258 -0.5269  0.4149  0.9195
  300TIP3   OH225094   1.601   5.614  10.867  0.1490 -0.3127  0.2361
  300TIP3    H125095   1.598   5.519  10.858  0.0173 -0.2557 -0.3979
  300TIP3    H225096   1.693   5.636  10.854  0.1560 -0.3375  0.2432
  301TIP3   OH225097   6.506   5.218  11.823  0.7136  0.4094  0.2757
  301TIP3    H125098   6.600   5.226  11.837  0.8253 -0.3310 -0.0090
  301TIP3    H225099   6.497   5.200  11.729  0.4495 -1.6968  0.6553
  302TIP3   OH225100   4.487   5.213  10.824 -0.5197 -0.3142  0.2730
  302TIP3    H125101   4.518   5.238  10.737  0.9135 -0.6541  0.6589
  302TIP3    H225102   4.555   5.245  10.883 -1.8542  0.6187  1.3669
  303TIP3   OH225103   3.544   1.501  12.288  0.2025  0.1002  1.0731
  303TIP3    H125104   3.607   1.540  12.349 -0.4064 -0.0905  1.8488
  303TIP3    H225105   3.531   1.412  12.321 -0.4587  0.1339  0.9116
  304TIP3   OH225106   5.606   1.691  10.633  0.2859  0.2687  0.1419
  304TIP3    H125107   5.681   1.725  10.682 -0.2174 -1.4186  2.2095
  304TIP3    H225108   5.645   1.640  10.562  1.0576  0.8398  0.1401
  305TIP3   OH225109   0.377   1.555  11.253  0.3380 -0.3304 -0.0024
  305TIP3    H125110   0.363   1.650  11.261 -0.2475 -0.3280 -0.9280
  305TIP3    H225111   0.454   1.547  11.197 -0.1460 -0.4027 -0.6654
  306TIP3   OH225112   4.726   4.270  11.587 -0.5692 -0.5232 -0.1598
  306TIP3    H125113   4.752   4.191  11.538  1.2446 -0.9056  1.3046
  306TIP3    H225114   4.780   4.340  11.549 -0.0333 -0.5825  0.4879
  307TIP3   OH225115   6.631   0.174  10.450  0.1542 -0.5341 -0.3399
  307TIP3    H125116   6.682   0.199  10.373 -0.5968  0.1655 -0.6254
  307TIP3    H225117   6.692   0.124  10.504  0.8511 -0.5565 -1.1269
  308TIP3   OH225118   0.155   0.975  10.164  0.0267  0.0325  0.3654
  308TIP3    H125119   0.176   0.976  10.071  0.8969 -1.3393  0.5195
  308TIP3    H225120   0.228   1.021  10.206 -1.2714  2.3525  0.2667
  309TIP3   OH225121   4.727   0.802  10.485 -0.4490 -0.5128 -0.0502
  309TIP3    H125122   4.649   0.855  10.503 -0.2118 -0.0108 -0.4934
  309TIP3    H225123   4.799   0.852  10.524 -0.1693 -0.2895 -0.8426
  310TIP3   OH225124   3.198   1.790  10.543 -0.1357 -0.0781  0.1091
  310TIP3    H125125   3.168   1.728  10.610  1.2484  0.0004  0.8329
  310TIP3    H225126   3.283   1.820  10.575  0.7352 -0.3113 -1.8626
  311TIP3   OH225127   0.987   5.650  11.173 -0.3345 -0.7350 -0.5996
  311TIP3    H125128   0.945   5.711  11.113 -0.4207 -0.7920 -0.5965
  311TIP3    H225129   1.078   5.647  11.144  0.0780  0.7200  0.4448
  312TIP3   OH225130   6.306   3.044   9.692 -0.4941  0.1447 -0.0487
  312TIP3    H125131   6.232   2.986   9.710 -0.0225  0.3094  2.8574
  312TIP3    H225132   6.267   3.131   9.684 -0.7647  0.0397  0.1068
  313TIP3   OH225133   4.113   6.414  11.479  0.2958 -0.2801  0.3587
  313TIP3    H125134   4.121   6.328  11.519  1.2611 -0.0693  0.6350
  313TIP3    H225135   4.164   6.472  11.535  0.8656  0.1970 -0.6358
  314TIP3   OH225136   0.546   2.815  11.120  0.2442  0.1299  0.1280
  314TIP3    H125137   0.604   2.826  11.195  0.9317  2.0101 -0.6276
  314TIP3    H225138   0.588   2.863  11.049 -0.3284 -1.6841 -1.5314
  315TIP3   OH225139   6.659   0.894  10.486 -0.0137 -0.0246 -0.5621
  315TIP3    H125140   6.735   0.854  10.529 -1.1650 -0.0695  1.5523
  315TIP3    H225141   6.649   0.979  10.530 -0.7540  0.2831 -1.3125
  316TIP3   OH225142   2.095   4.887  12.920 -0.0545 -0.0042  0.2341
  316TIP3    H125143   2.149   4.965  12.914 -0.2151 -0.0103 -2.7186
  316TIP3    H225144   2.152   4.815  12.894 -0.5535 -0.5075  0.5008
  317TIP3   OH225145   2.499   2.774  11.969  0.4979  0.2946  0.1535
  317TIP3    H125146   2.492   2.816  11.884 -1.1691 -0.7400 -0.2775
  317TIP3    H225147   2.461   2.836  12.031  0.7689  0.6242 -0.0127
  318TIP3   OH225148   1.846   2.252  10.435 -0.7305  0.3559  0.4433
  318TIP3    H125149   1.785   2.208  10.375  0.5737  0.2857 -0.8902
  318TIP3    H225150   1.827   2.345  10.425  0.3738  0.4547 -1.1827
  319TIP3   OH225151   5.013   4.044  11.922  0.4357  0.2858  0.1487
  319TIP3    H125152   5.003   4.101  11.846  0.5695  1.4870  1.0111
  319TIP3    H225153   5.093   3.994  11.905  1.6707  2.0819  0.4536
  320TIP3   OH225154   0.116   0.709  10.125 -0.5402 -0.5170 -0.3832
  320TIP3    H125155   0.134   0.799  10.150  2.8747 -1.4451  1.1936
  320TIP3    H225156   0.038   0.685  10.176  0.5238  0.5774  1.8942
  321TIP3   OH225157   3.323   4.221  10.903  0.0687 -0.2152  0.1877
  321TIP3    H125158   3.401   4.251  10.856  1.1078  0.6269  2.3126
  321TIP3    H225159   3.282   4.158  10.843  1.3294  0.7142 -1.7687
  322TIP3   OH225160   0.740   2.582  12.023 -0.1668 -0.0735  0.0031
  322TIP3    H125161   0.831   2.607  12.010  0.4076 -0.9849  1.8224
  322TIP3    H225162   0.736   2.490  11.995  0.4876 -1.2471  3.2130
  323TIP3   OH225163   1.774   1.223  20.045  0.1739  0.3847 -0.1385
  323TIP3    H125164   1.745   1.248  19.957 -1.2391  1.3603  0.5594
  323TIP3    H225165   1.693   1.213  20.094  0.9149 -0.8959  0.8818
  324TIP3   OH225166   3.848   3.893  19.518  0.1566 -0.1252  0.3459
  324TIP3    H125167   3.835   3.799  19.528 -0.6667 -0.2067 -1.2079
  324TIP3    H225168   3.906   3.902  19.442 -0.6835  0.6265 -0.2385
  325TIP3   OH225169   3.294   5.096  18.735  0.5633 -0.4783 -0.4364
  325TIP3    H125170   3.302   5.050  18.818 -0.1588 -3.2285 -1.7768
  325TIP3    H225171   3.305   5.028  18.668 -1.6472  1.0575 -2.5589
  326TIP3   OH225172   3.675   0.331  20.626 -0.3038  0.3808  0.3488
  326TIP3    H125173   3.584   0.317  20.651 -0.1649 -1.4114 -0.0219
  326TIP3    H225174   3.722   0.256  20.661  0.6532  0.1411 -1.3058
  327TIP3   OH225175   3.093   5.832  17.389 -0.5627  0.4291 -0.2446
  327TIP3    H125176   3.132   5.918  17.377  1.6687 -0.3846  0.6366
  327TIP3    H225177   3.002   5.850  17.413 -0.3466  2.4890 -0.7618
  328TIP3   OH225178   1.660   2.361  18.218  0.4234  0.2241  0.5668
  328TIP3    H125179   1.640   2.428  18.283 -0.0189  1.6446 -0.9553
  328TIP3    H225180   1.601   2.381  18.145  0.9231 -1.2961 -0.2893
  329TIP3   OH225181   0.337   3.882  19.717 -0.6801  0.4637 -0.2527
  329TIP3    H125182   0.362   3.953  19.777 -0.0574  0.5793 -0.6361
  329TIP3    H225183   0.264   3.839  19.761  0.9883 -0.6915  1.5879
  330TIP3   OH225184   2.122   2.810  20.299  0.0701  0.7295 -0.0751
  330TIP3    H125185   2.191   2.756  20.260 -0.5045  0.7800 -1.2197
  330TIP3    H225186   2.135   2.801  20.393  1.3204  0.3375 -0.2608
  331TIP3   OH225187   2.072   0.471  20.225 -0.0535  0.2227 -0.7950
  331TIP3    H125188   2.055   0.382  20.192  0.2164  0.6535 -2.1440
  331TIP3    H225189   2.059   0.527  20.149  2.4266  1.0755 -0.6578
  332TIP3   OH225190   6.481   0.309  18.070 -0.0832 -0.0174 -0.3085
  332TIP3    H125191   6.496   0.222  18.033  0.1576  0.6894 -1.9584
  332TIP3    H225192   6.388   0.310  18.092 -0.0065 -0.8146  0.0723
  333TIP3   OH225193   3.321   6.072  19.619  0.7476  0.5626  0.0120
  333TIP3    H125194   3.414   6.085  19.603  0.8143  0.9333  0.6529
  333TIP3    H225195   3.313   5.980  19.644  0.8474  0.3664 -0.6674
  334TIP3   OH225196   0.337   1.405  20.152  0.6705  0.0342  0.4472
  334TIP3    H125197   0.376   1.406  20.065  0.4362 -0.9115  0.3188
  334TIP3    H225198   0.299   1.317  20.160 -0.1225  0.4318  1.1443
  335TIP3   OH225199   5.737   5.571  17.761  0.3374  0.1283  0.1105
  335TIP3    H125200   5.767   5.651  17.804  1.6423 -0.0411 -0.4477
  335TIP3    H225201   5.720   5.597  17.670  3.5332 -0.7511 -0.8535
  336TIP3   OH225202   6.478   4.099  20.548  0.2247 -0.5176  0.2588
  336TIP3    H125203   6.561   4.055  20.527  1.3817  1.8074 -0.2765
  336TIP3    H225204   6.504   4.181  20.589 -1.7828  0.9938 -1.3372
  337TIP3   OH225205   4.263   5.123  20.920 -0.6140  0.3420 -0.2729
  337TIP3    H125206   4.245   5.035  20.887 -1.6930  1.2469 -2.2826
  337TIP3    H225207   4.342   5.150  20.873  0.2529  0.1568  1.0161
  338TIP3   OH225208   3.632   3.045  18.456 -0.1203 -0.4047  0.2649
  338TIP3    H125209   3.712   3.096  18.451 -0.8221  0.6372 -0.7417
  338TIP3    H225210   3.566   3.098  18.412 -0.6366 -2.6308 -1.9113
  339TIP3   OH225211   4.897   6.371  18.094  0.2800 -0.1770  0.3170
  339TIP3    H125212   4.813   6.338  18.127  0.3402 -0.5354  0.1216
  339TIP3    H225213   4.909   6.327  18.010  0.1312  0.7287 -0.1869
  340TIP3   OH225214   1.520   6.222  19.550 -0.2115  0.5365  0.0087
  340TIP3    H125215   1.557   6.136  19.528 -1.5340  0.1922 -1.0059
  340TIP3    H225216   1.471   6.207  19.631  0.5242  0.6126  0.4698
  341TIP3   OH225217   0.348   5.870  20.553  0.7908 -0.4009  1.1642
  341TIP3    H125218   0.277   5.846  20.612 -1.1244 -1.8049 -1.5166
  341TIP3    H225219   0.372   5.788  20.510  0.4354  0.8934 -1.6941
  342TIP3   OH225220   4.536   2.881  17.934  0.7010  0.2111 -0.9174
  342TIP3    H125221   4.523   2.969  17.899 -1.0283  0.7553  0.9176
  342TIP3    H225222   4.477   2.826  17.882  1.1918  0.2507 -1.5334
  343TIP3   OH225223   0.136   1.079  17.270 -0.4891 -0.5318 -0.5386
  343TIP3    H125224   0.220   1.124  17.258 -0.8308  0.2236 -0.1704
  343TIP3    H225225   0.076   1.148  17.300 -0.3108 -1.6894  3.0012
  344TIP3   OH225226   0.405   4.719  20.508  0.0680 -0.0480  0.5446
  344TIP3    H125227   0.435   4.784  20.572 -0.9193  0.9574  0.0158
  344TIP3    H225228   0.316   4.746  20.486  0.4493 -0.2384 -1.4092
  345TIP3   OH225229   3.556   4.326  20.445 -0.2571 -0.4003 -0.1605
  345TIP3    H125230   3.475   4.308  20.396 -0.9064 -3.5301  1.8047
  345TIP3    H225231   3.526   4.370  20.524  0.0868 -0.6747  0.1224
  346TIP3   OH225232   1.809   0.042  19.244  0.4559  0.6177 -0.4119
  346TIP3    H125233   1.755   0.035  19.166 -0.9386 -1.7661  0.6536
  346TIP3    H225234   1.758   0.098  19.303  0.0741  0.0046 -0.1494
  347TIP3   OH225235   1.462   4.727  17.890  0.9631  0.1620  0.3373
  347TIP3    H125236   1.549   4.696  17.912  1.0532 -0.9814 -1.4665
  347TIP3    H225237   1.444   4.692  17.803 -0.8310  1.3494  0.1566
  348TIP3   OH225238   2.565   4.284  17.691  0.0432  0.9152 -0.0695
  348TIP3    H125239   2.501   4.274  17.620  0.6383  0.8768 -0.6152
  348TIP3    H225240   2.631   4.344  17.656  1.7453 -1.1129 -0.5978
  349TIP3   OH225241   0.284   5.092  19.734  0.1204  0.4941 -0.1845
  349TIP3    H125242   0.203   5.138  19.756  0.5839  1.1921  0.0833
  349TIP3    H225243   0.334   5.154  19.681 -0.0802 -0.4124 -1.5135
  350TIP3   OH225244   0.394   4.415  17.353 -0.5185 -0.1993  0.4667
  350TIP3    H125245   0.448   4.385  17.426 -2.1308  1.9879  2.7301
  350TIP3    H225246   0.430   4.501  17.332  0.3241 -1.0438 -1.8794
  351TIP3   OH225247   4.094   3.055  18.462 -0.0963 -0.0177  0.0482
  351TIP3    H125248   4.024   3.051  18.527 -0.7563  0.0259 -0.6451
  351TIP3    H225249   4.174   3.044  18.513 -0.6425 -0.8471  0.7670
  352TIP3   OH225250   0.298   5.230  18.077 -0.3411  0.0547  0.9461
  352TIP3    H125251   0.259   5.211  18.163 -0.1245 -0.1639  0.9970
  352TIP3    H225252   0.388   5.199  18.084 -1.0741 -2.6768 -0.2677
  353TIP3   OH225253   3.592   3.824  17.818 -0.1996  0.1373  0.3155
  353TIP3    H125254   3.523   3.890  17.809  1.0247  1.4815  0.4496
  353TIP3    H225255   3.600   3.785  17.731  0.5452  1.7136 -0.3473
  354TIP3   OH225256   5.139   2.149  17.422  0.4281  0.0395 -0.3331
  354TIP3    H125257   5.088   2.068  17.414 -0.5379  0.5466  0.4595
  354TIP3    H225258   5.074   2.217  17.438  1.0610  1.2882 -2.6337
  355TIP3   OH225259   0.271   5.623  19.308 -0.3587 -0.4698  0.1613
  355TIP3    H125260   0.193   5.597  19.356  0.3619 -0.8030  1.1781
  355TIP3    H225261   0.344   5.608  19.369  0.3212  1.8047  0.0284
  356TIP3   OH225262   1.509   4.586  18.891  0.2885 -0.1568  0.7377
  356TIP3    H125263   1.598   4.597  18.924  0.3475 -0.8108  0.8088
  356TIP3    H225264   1.457   4.564  18.968  0.1474 -0.2292  0.6219
  357TIP3   OH225265   1.202   1.370  20.776 -0.6026  0.6806  0.7269
  357TIP3    H125266   1.113   1.359  20.810 -0.9614  1.5312  0.0729
  357TIP3    H225267   1.246   1.424  20.841 -0.7892  0.8953  0.6756
  358TIP3   OH225268   1.888   5.792  18.708 -0.3496  0.2494 -0.3937
  358TIP3    H125269   1.841   5.867  18.746  0.5725  0.5123  0.2623
  358TIP3    H225270   1.874   5.721  18.770  0.5399  0.4731  0.0728
  359TIP3   OH225271   6.440   1.533  20.559 -0.9848  0.4508 -0.2174
  359TIP3    H125272   6.513   1.538  20.620 -0.7644 -0.0482 -0.4379
  359TIP3    H225273   6.467   1.588  20.485 -0.6902  0.0216 -0.4373
  360TIP3   OH225274   0.566   3.557  19.674 -0.0811  0.2475 -0.2068
  360TIP3    H125275   0.554   3.479  19.728  1.2006  2.0095  2.9091
  360TIP3    H225276   0.661   3.560  19.657 -0.0901  1.1754 -0.1662
  361TIP3   OH225277   3.984   6.655  20.677  0.2703  0.5323  0.1945
  361TIP3    H125278   3.997   6.563  20.698 -1.3864  0.0917 -0.5865
  361TIP3    H225279   3.998   6.660  20.583  1.4563  1.3169  0.3895
  362TIP3   OH225280   5.429   1.883  20.602 -0.0283 -0.4273  0.8039
  362TIP3    H125281   5.446   1.839  20.685  0.5029  2.2961  2.2470
  362TIP3    H225282   5.457   1.974  20.616  1.3273 -0.1129 -2.7759
  363TIP3   OH225283   4.303   3.059  17.965  0.1812 -0.5556 -0.4658
  363TIP3    H125284   4.363   3.103  17.905 -0.9760 -0.9589 -2.0003
  363TIP3    H225285   4.302   2.968  17.935  0.6132 -1.0897  1.0564
  364TIP3   OH225286   0.864   6.285  18.353  0.8463  0.2190 -0.0063
  364TIP3    H125287   0.838   6.224  18.422 -1.6714  0.0785 -0.9578
  364TIP3    H225288   0.848   6.237  18.272  3.9553  0.2979 -0.7783
  365TIP3   OH225289   1.305   0.871  20.764  0.1033 -0.0227  0.0169
  365TIP3    H125290   1.381   0.829  20.804 -0.3341 -0.5294  0.3313
  365TIP3    H225291   1.321   0.965  20.775  0.9672 -0.1045 -0.4554
  366TIP3   OH225292   2.127   0.140  20.397 -0.3488  0.0302 -0.2082
  366TIP3    H125293   2.081   0.190  20.465  1.4937 -1.8769  2.6371
  366TIP3    H225294   2.196   0.199  20.368 -0.7700  0.6525  0.0195
  367TIP3   OH225295   4.221   1.097  19.761  0.1721  0.1273 -0.1150
  367TIP3    H125296   4.246   1.186  19.738  0.7232 -0.0543 -0.2417
  367TIP3    H225297   4.280   1.041  19.710  0.0241 -0.3035  0.1734
  368TIP3   OH225298   1.105   6.077  20.880 -0.1547  0.4058  0.1476
  368TIP3    H125299   1.187   6.125  20.876 -0.6714  1.3474  0.5288
  368TIP3    H225300   1.037   6.144  20.872 -0.8948 -0.3289  0.0712
  369TIP3   OH225301   2.728   4.379  19.918  1.0336 -0.1063 -0.1199
  369TIP3    H125302   2.789   4.332  19.860  0.6213  1.2854 -1.7462
  369TIP3    H225303   2.713   4.318  19.990  2.9981 -1.1794 -0.5277
  370TIP3   OH225304   3.304   6.495  19.399  0.0842  0.2409 -0.1442
  370TIP3    H125305   3.303   6.401  19.417  0.4147  0.5182  1.4476
  370TIP3    H225306   3.387   6.509  19.354 -1.1297 -0.5973 -2.8794
  371TIP3   OH225307   4.054   4.531  20.008  0.2097 -0.4028 -0.4647
  371TIP3    H125308   4.136   4.573  19.981 -0.8789  1.2547 -1.3549
  371TIP3    H225309   4.080   4.473  20.080  1.8949  1.5710  0.6504
  372TIP3   OH225310   5.167   5.055  18.292 -0.5374 -0.1300 -0.3026
  372TIP3    H125311   5.073   5.050  18.277 -0.6419  2.0003 -0.5616
  372TIP3    H225312   5.201   5.101  18.216  0.8032 -1.1957 -0.3999
  373TIP3   OH225313   1.435   0.426  18.618 -0.0151 -0.6898  0.5757
  373TIP3    H125314   1.529   0.425  18.597 -0.2473 -0.9133 -0.4745
  373TIP3    H225315   1.395   0.477  18.548 -0.4833  0.9156  1.9469
  374TIP3   OH225316   2.267   2.670  17.421  0.2703 -0.0526 -0.0626
  374TIP3    H125317   2.238   2.598  17.366 -0.7499  0.5385 -0.3443
  374TIP3    H225318   2.250   2.640  17.510 -1.4843  0.3298 -0.2193
  375TIP3   OH225319   2.080   4.243  20.744  0.4615  0.0192  0.1104
  375TIP3    H125320   2.030   4.295  20.681 -1.1143  0.1363  1.3998
  375TIP3    H225321   2.145   4.304  20.779 -1.2070  1.1232  1.4341
  376TIP3   OH225322   2.663   2.406  19.412  0.3477  0.0242  0.0305
  376TIP3    H125323   2.752   2.442  19.419  0.3644  0.3420 -1.4780
  376TIP3    H225324   2.626   2.451  19.336  0.1770 -2.7691 -1.6506
  377TIP3   OH225325   4.662   3.666  18.481  0.3771 -0.6591 -1.1551
  377TIP3    H125326   4.676   3.735  18.417  0.7490  0.2607 -0.1012
  377TIP3    H225327   4.653   3.711  18.564 -0.3272 -1.8167 -0.5701
  378TIP3   OH225328   0.348   0.887  20.517 -0.7153  0.1909 -0.0881
  378TIP3    H125329   0.273   0.895  20.458 -1.0360  0.6685  0.3780
  378TIP3    H225330   0.310   0.862  20.601 -0.4851  1.6012  0.4569
  379TIP3   OH225331   1.360   4.467  19.093 -0.1449 -0.1751 -0.1502
  379TIP3    H125332   1.323   4.498  19.176 -1.9911 -1.2440 -0.5145
  379TIP3    H225333   1.381   4.375  19.109  1.8130  0.2191 -0.1786
  380TIP3   OH225334   5.287   0.156  18.776 -0.1007  0.1618 -0.5502
  380TIP3    H125335   5.332   0.177  18.694  2.2027  0.2654  0.6873
  380TIP3    H225336   5.204   0.205  18.770  0.2325  0.5754 -2.5708
  381TIP3   OH225337   6.616   5.146  18.504 -0.1145  0.5858 -0.0287
  381TIP3    H125338   6.625   5.054  18.530 -1.1497  1.1111  2.4424
  381TIP3    H225339   6.635   5.146  18.410 -1.6397 -2.4175 -0.4545
  382TIP3   OH225340   5.024   3.231  20.449 -0.2460 -0.1383 -0.3456
  382TIP3    H125341   4.987   3.316  20.424 -0.1813  0.0508  0.1855
  382TIP3    H225342   5.115   3.235  20.420  0.5409  1.0295  1.9542
  383TIP3   OH225343   2.091   3.693  16.965  0.0399 -0.2322  0.8003
  383TIP3    H125344   2.086   3.638  17.044  3.4325 -2.8345 -0.5212
  383TIP3    H225345   2.043   3.643  16.899  0.3189  0.0675  0.3707
  384TIP3   OH225346   4.046   5.773  19.454  0.0866  0.6351 -0.3906
  384TIP3    H125347   4.060   5.723  19.373  0.9303 -0.5832  0.4648
  384TIP3    H225348   4.063   5.864  19.430  1.3280  0.1777 -1.3730
  385TIP3   OH225349   0.989   6.430  20.417  0.2205 -0.4694  0.2880
  385TIP3    H125350   0.901   6.467  20.424  0.4798  0.1129  0.5448
  385TIP3    H225351   0.977   6.349  20.368 -0.5329 -0.6567  0.7574
  386TIP3   OH225352   6.623   2.429  18.465 -0.7833  0.4483  0.1740
  386TIP3    H125353   6.592   2.342  18.441  0.8269  0.1164 -0.8056
  386TIP3    H225354   6.715   2.417  18.486  0.3040  2.3573 -2.8824
  387TIP3   OH225355   4.495   3.389  18.772 -0.2725 -0.4334 -0.4197
  387TIP3    H125356   4.507   3.482  18.752  3.2710 -0.6276  0.0480
  387TIP3    H225357   4.433   3.387  18.844  0.4566  1.7154  0.3375
  388TIP3   OH225358   1.902   6.242  18.088 -0.9801  0.4020  0.2745
  388TIP3    H125359   1.818   6.209  18.117 -0.6247  0.3638  1.2917
  388TIP3    H225360   1.913   6.325  18.134  0.1155 -0.2167  1.1871
  389TIP3   OH225361   1.792   1.063  19.543  0.3445 -0.2087  0.6106
  389TIP3    H125362   1.876   1.108  19.534 -0.0129  0.4998  0.7296
  389TIP3    H225363   1.737   1.102  19.475  0.3197 -1.1733  0.0583
  390TIP3   OH225364   6.549   6.058  18.458  0.1564  0.1957 -0.1159
  390TIP3    H125365   6.569   6.122  18.526 -0.2819 -0.7879  0.9659
  390TIP3    H225366   6.463   6.023  18.482 -0.1464  0.0326 -1.3405
  391TIP3   OH225367   3.418   1.507  19.609  0.5362  0.1685 -0.5979
  391TIP3    H125368   3.452   1.546  19.690 -0.7337  0.4648 -0.1838
  391TIP3    H225369   3.421   1.413  19.624 -0.6872  0.2403  0.2480
  392TIP3   OH225370   4.651   2.588  17.390 -0.5723 -0.0437 -0.2088
  392TIP3    H125371   4.733   2.584  17.341  0.5094  1.0249  1.4289
  392TIP3    H225372   4.651   2.509  17.444  0.8851  1.3174  1.9491
  393TIP3   OH225373   4.948   3.614  17.510 -0.2456  0.5311 -0.0957
  393TIP3    H125374   4.979   3.578  17.593 -0.5465  1.9211  0.6399
  393TIP3    H225375   5.014   3.679  17.486  0.0939 -0.1968 -1.2138
  394TIP3   OH225376   5.892   2.192  19.048  0.1753 -0.0034  0.1977
  394TIP3    H125377   5.976   2.170  19.088 -0.2361  0.6041  1.4414
  394TIP3    H225378   5.879   2.285  19.068  0.5108  0.6861 -2.4194
  395TIP3   OH225379   6.453   2.605  18.274  0.5144  0.1292 -0.3818
  395TIP3    H125380   6.373   2.641  18.312  0.6344  0.8727 -0.8007
  395TIP3    H225381   6.479   2.535  18.333 -1.1432 -0.9810 -0.9223
  396TIP3   OH225382   2.264   6.571  17.873  0.0633  0.0335 -0.6689
  396TIP3    H125383   2.280   6.484  17.837 -1.1925  0.3171 -1.9910
  396TIP3    H225384   2.211   6.555  17.951  1.3622 -0.4700  0.1506
  397TIP3   OH225385   5.701   6.087  19.108 -0.0134 -0.0504  0.2964
  397TIP3    H125386   5.738   6.080  19.020 -0.0713 -0.0181  0.2683
  397TIP3    H225387   5.722   6.004  19.150  1.5835  0.6131  0.8688
  398TIP3   OH225388   3.148   1.156  19.417 -0.2669  0.8715  0.6116
  398TIP3    H125389   3.105   1.123  19.496 -0.2454 -4.0031 -1.0216
  398TIP3    H225390   3.077   1.189  19.362 -0.8242  0.5771  1.1439
  399TIP3   OH225391   3.518   2.519  19.996  0.3548 -0.9813 -0.3520
  399TIP3    H125392   3.503   2.444  19.939 -2.2811 -1.5614  0.9571
  399TIP3    H225393   3.560   2.483  20.074 -1.0620 -1.1769  0.3474
  400TIP3   OH225394   6.631   3.575  17.429  0.6418  0.1266  0.4453
  400TIP3    H125395   6.543   3.600  17.401  0.3214 -0.3473  1.0099
  400TIP3    H225396   6.618   3.494  17.479  1.4191 -0.0412  0.3809
  401TIP3   OH225397   2.806   5.738  18.901  0.2490  0.2709 -0.2440
  401TIP3    H125398   2.809   5.661  18.957 -1.2552  1.3912  1.5262
  401TIP3    H225399   2.768   5.707  18.819 -0.3345 -0.8809  0.4420
  402TIP3   OH225400   4.702   0.807  20.705  0.2348  0.2926 -0.1097
  402TIP3    H125401   4.658   0.854  20.776  0.6230  2.0477 -0.9872
  402TIP3    H225402   4.781   0.772  20.745 -0.5819 -0.5760  0.8150
  403TIP3   OH225403   2.660   0.782  18.151 -0.6775 -0.3137  0.3976
  403TIP3    H125404   2.612   0.822  18.223 -1.2029  2.5012 -1.3629
  403TIP3    H225405   2.744   0.829  18.148  0.0123 -1.5054  0.1464
  404TIP3   OH225406   2.742   1.130  18.047  0.4094  0.6795 -0.0372
  404TIP3    H125407   2.718   1.100  18.134  0.5895  0.8204  0.0608
  404TIP3    H225408   2.664   1.113  17.994  0.3497  0.4612  0.1176
  405TIP3   OH225409   2.202   5.159  18.108  0.0003 -0.3708  0.3852
  405TIP3    H125410   2.201   5.249  18.140 -0.3934 -0.4626  0.6440
  405TIP3    H225411   2.293   5.132  18.115  0.3206  0.3634 -0.7107
  406TIP3   OH225412   3.851   4.664  17.761 -0.6509  0.0506  0.4933
  406TIP3    H125413   3.932   4.619  17.739  0.8380  2.9254 -0.3851
  406TIP3    H225414   3.865   4.695  17.851 -1.0447 -0.0152  0.5791
  407TIP3   OH225415   0.514   0.708  19.448  0.0001  0.6123  0.1556
  407TIP3    H125416   0.558   0.624  19.457  1.4335  0.8565 -3.2242
  407TIP3    H225417   0.421   0.686  19.439  0.3191 -0.5895 -0.2924
  408TIP3   OH225418   4.563   4.105  19.838 -0.1137  0.2687  0.3037
  408TIP3    H125419   4.630   4.150  19.889 -1.2123  1.4218  0.8040
  408TIP3    H225420   4.502   4.071  19.904 -0.5422  0.1179 -0.1651
  409TIP3   OH225421   3.306   2.683  17.857 -0.0246 -0.2116  0.0967
  409TIP3    H125422   3.216   2.680  17.825 -0.0594  1.1787 -0.0240
  409TIP3    H225423   3.360   2.677  17.777 -0.0623  0.7548 -0.0142
  410TIP3   OH225424   3.764   2.057  19.030  0.1892  0.5728  0.1821
  410TIP3    H125425   3.815   2.135  19.007  0.8795 -0.4744 -2.1824
  410TIP3    H225426   3.736   2.021  18.946 -1.0388 -1.1445  1.2544
  411TIP3   OH225427   3.521   2.307  18.263 -0.0614  0.2628  0.0259
  411TIP3    H125428   3.523   2.360  18.183 -0.7310  0.1751 -0.0592
  411TIP3    H225429   3.582   2.235  18.247  0.2919  0.6003 -0.1495
  412TIP3   OH225430   4.415   2.372  17.505  0.2884 -0.3955 -0.4778
  412TIP3    H125431   4.392   2.305  17.440 -2.0388 -0.6537  0.5058
  412TIP3    H225432   4.510   2.365  17.514  0.2140 -3.0382 -0.9929
  413TIP3   OH225433   6.445   3.789  20.583 -0.5555  0.3834 -0.2403
  413TIP3    H125434   6.505   3.765  20.654 -0.2560  2.0540  0.1004
  413TIP3    H225435   6.498   3.785  20.504 -0.5247 -0.0673 -0.2018
  414TIP3   OH225436   1.140   1.317  19.417  0.3660  0.0134 -0.1389
  414TIP3    H125437   1.164   1.249  19.480  0.2158 -1.3628 -1.4942
  414TIP3    H225438   1.070   1.366  19.459  1.6146  0.4337  1.5579
  415TIP3   OH225439   0.385   0.844  20.889 -0.1157 -0.0286  0.2350
  415TIP3    H125440   0.318   0.811  20.830 -1.9057  1.2658  1.4131
  415TIP3    H225441   0.356   0.933  20.911 -0.3508 -0.8536  4.0494
  416TIP3   OH225442   2.912   3.824  19.823 -0.1275 -0.3238  0.1618
  416TIP3    H125443   2.927   3.915  19.801 -0.6471  0.3847  2.4302
  416TIP3    H225444   2.976   3.805  19.892 -0.0170 -1.6783 -0.2848
  417TIP3   OH225445   3.978   0.526  18.667 -0.5758  0.2433 -0.3160
  417TIP3    H125446   3.934   0.462  18.611  2.1288 -1.5143 -0.6268
  417TIP3    H225447   3.923   0.531  18.745 -1.4834 -1.6485 -0.7559
  418TIP3   OH225448   2.410   3.714  19.588  0.1818 -0.1686 -0.2662
  418TIP3    H125449   2.435   3.795  19.632 -1.7516  0.6601 -0.5914
  418TIP3    H225450   2.328   3.688  19.629 -0.1713 -0.9530 -1.4079
  419TIP3   OH225451   3.139   4.716  19.766 -0.0812 -0.0144 -0.2676
  419TIP3    H125452   3.215   4.769  19.744 -0.7244  0.4663 -1.4339
  419TIP3    H225453   3.174   4.630  19.785  0.7805  0.2735 -0.5205
  420TIP3   OH225454   0.328   1.610  20.752 -0.1919  0.3324  0.0999
  420TIP3    H125455   0.289   1.611  20.665  0.4176  0.5864 -0.1714
  420TIP3    H225456   0.315   1.700  20.785  2.1156  1.0952 -0.8817
  421TIP3   OH225457   6.412   1.181  19.481 -0.4660 -0.1402 -0.2241
  421TIP3    H125458   6.342   1.190  19.546 -0.5469 -1.5637 -0.0795
  421TIP3    H225459   6.367   1.185  19.397 -0.2666  2.5702 -0.2862
  422TIP3   OH225460   5.412   5.986  18.201  0.3054 -0.0019 -0.1083
  422TIP3    H125461   5.440   6.046  18.270  1.7843  0.3800 -0.9918
  422TIP3    H225462   5.320   5.968  18.220  0.5942  0.3313  1.7699
  423TIP3   OH225463   5.963   4.389  18.295 -0.1557 -0.7992 -0.1687
  423TIP3    H125464   5.871   4.370  18.279 -0.4484  0.4058 -0.0391
  423TIP3    H225465   5.964   4.429  18.383  0.2296  0.7699 -0.8390
  424TIP3   OH225466   4.711   4.024  20.356 -0.6238  0.3911  0.4732
  424TIP3    H125467   4.623   4.001  20.325 -0.7430 -1.5604  2.0185
  424TIP3    H225468   4.730   3.959  20.424  1.5211  1.5369  1.0697
  425TIP3   OH225469   3.977   2.752  18.563  0.3780 -0.1409 -0.5244
  425TIP3    H125470   4.038   2.788  18.627  0.5213 -1.7823  0.3033
  425TIP3    H225471   3.893   2.748  18.609  0.0556  0.3643 -1.0509
  426TIP3   OH225472   0.701   4.792  19.817 -0.4481 -0.1466 -0.2022
  426TIP3    H125473   0.610   4.812  19.792 -0.7044 -0.9569  0.0631
  426TIP3    H225474   0.717   4.846  19.894 -0.6563  0.1089 -0.3355
  427TIP3   OH225475   1.615   4.201  19.557  0.2011 -0.1824 -0.2137
  427TIP3    H125476   1.563   4.279  19.541  0.6837 -0.2219 -2.2034
  427TIP3    H225477   1.554   4.138  19.594 -0.2833  0.9808  1.0491
  428TIP3   OH225478   3.891   4.992  20.010 -0.4975  0.2735  0.6029
  428TIP3    H125479   3.959   4.953  19.955 -0.4844  0.2498  0.6359
  428TIP3    H225480   3.879   4.929  20.081 -2.2649 -0.8966 -0.6581
  429TIP3   OH225481   1.795   0.822  19.659  0.6123  0.2723 -0.1370
  429TIP3    H125482   1.804   0.917  19.652 -1.1446  0.5876  1.1993
  429TIP3    H225483   1.701   0.806  19.661  0.8686 -1.4845 -0.0833
  430TIP3   OH225484   5.238   4.771  19.415 -0.0640 -0.0281  0.3502
  430TIP3    H125485   5.243   4.677  19.430 -0.8086 -0.2524 -0.6641
  430TIP3    H225486   5.188   4.805  19.489  0.0241 -0.4628  0.6108
  431TIP3   OH225487   5.542   5.384  18.849 -0.0937 -0.3014 -0.3730
  431TIP3    H125488   5.496   5.317  18.800 -0.8561 -0.9469  1.1536
  431TIP3    H225489   5.508   5.377  18.938 -2.6285  4.1912 -0.6578
  432TIP3   OH225490   6.433   1.480  18.684 -0.5936 -0.0775 -0.1042
  432TIP3    H125491   6.363   1.457  18.745 -0.3045  1.0920  0.6859
  432TIP3    H225492   6.394   1.544  18.626 -0.6122 -0.5508 -0.6225
  433TIP3   OH225493   0.966   1.066  20.063  0.1721  0.7779 -0.0011
  433TIP3    H125494   1.015   1.121  20.002 -0.2147  0.6248 -0.4558
  433TIP3    H225495   0.963   0.980  20.022 -1.9581  1.1915 -0.8382
  434TIP3   OH225496   1.406   3.332  18.857  0.1853 -0.0921 -0.5793
  434TIP3    H125497   1.388   3.259  18.916 -0.5381  0.0670 -0.6062
  434TIP3    H225498   1.500   3.350  18.870  1.2978 -3.2336 -3.0013
  435TIP3   OH225499   5.016   2.982  19.000 -0.2009  0.2958 -1.0195
  435TIP3    H125500   4.936   2.934  19.022  0.6500 -0.7223 -0.0214
  435TIP3    H225501   5.066   2.921  18.946  1.0388 -0.1083  0.5210
  436TIP3   OH225502   2.678   4.369  20.639  0.1387  0.1624  0.8619
  436TIP3    H125503   2.724   4.286  20.626  0.9551  0.5625  1.1812
  436TIP3    H225504   2.728   4.433  20.589 -1.8541  0.0689 -1.4364
  437TIP3   OH225505   4.593   0.475  17.948 -0.7042 -0.2082  0.1556
  437TIP3    H125506   4.524   0.539  17.932  0.5049  1.4225  1.1725
  437TIP3    H225507   4.581   0.449  18.040  0.9696  1.3260  0.8458
  438TIP3   OH225508   5.405   2.665  20.624  0.1086 -0.0492  0.0906
  438TIP3    H125509   5.371   2.753  20.607  0.1721 -0.3530 -1.7863
  438TIP3    H225510   5.497   2.670  20.597  0.2530 -0.5702  0.4711
  439TIP3   OH225511   1.773   3.784  20.546 -0.2397  0.5577 -0.4194
  439TIP3    H125512   1.732   3.816  20.626  0.7984 -0.7972  0.7094
  439TIP3    H225513   1.711   3.719  20.511  0.6529 -1.1814  1.0551
  440TIP3   OH225514   1.658   5.290  19.078  0.1713  0.4658  0.0790
  440TIP3    H125515   1.596   5.238  19.027  0.5512  0.2946 -0.2107
  440TIP3    H225516   1.668   5.371  19.028  2.5816 -0.7431 -1.5740
  441TIP3   OH225517   0.160   4.856  18.959  0.1735 -0.3907 -0.3630
  441TIP3    H125518   0.190   4.947  18.949 -1.8859  0.3867 -0.0368
  441TIP3    H225519   0.184   4.833  19.049 -0.1807  0.1989 -0.1129
  442TIP3   OH225520   4.511   2.281  20.630 -0.0687 -0.1929  0.4329
  442TIP3    H125521   4.603   2.252  20.633 -0.1824 -0.4819  1.5403
  442TIP3    H225522   4.465   2.210  20.586  0.3516  0.3299 -0.9161
  443TIP3   OH225523   1.056   5.197  19.741  0.4907 -0.2282 -0.0417
  443TIP3    H125524   1.064   5.160  19.829  3.3061  1.3330  0.4779
  443TIP3    H225525   1.085   5.128  19.682  1.3098 -0.3867  0.5294
  444TIP3   OH225526   5.005   4.056  20.684  0.6229  0.1196 -0.2953
  444TIP3    H125527   5.094   4.030  20.708  0.2152 -1.9058 -0.7728
  444TIP3    H225528   5.016   4.106  20.603  1.2576 -1.1673 -1.0349
  445TIP3   OH225529   6.394   4.379  20.346 -0.2260  0.1193  0.4293
  445TIP3    H125530   6.380   4.398  20.439 -0.2574  2.0847  0.0740
  445TIP3    H225531   6.488   4.393  20.332 -0.3190  0.4141  0.0683
  446TIP3   OH225532   3.295   6.659  20.490 -0.4986 -0.1570 -0.4512
  446TIP3    H125533   3.300   6.679  20.397  0.1245 -1.2806 -0.6836
  446TIP3    H225534   3.378   6.691  20.525 -1.3545  1.6548  0.0400
  447TIP3   OH225535   3.515   5.467  19.240  0.3965 -0.0869  0.0807
  447TIP3    H125536   3.589   5.424  19.282  4.5419  4.2260 -1.7237
  447TIP3    H225537   3.523   5.443  19.148 -1.6582 -0.8524  0.0525
  448TIP3   OH225538   4.372   4.167  20.465  0.0031  0.4655  0.3332
  448TIP3    H125539   4.428   4.097  20.499  0.1697  0.9734  1.1435
  448TIP3    H225540   4.283   4.138  20.486  0.1447  1.2137  2.1433
  449TIP3   OH225541   4.430   5.922  17.680 -0.2777 -0.3489  0.1491
  449TIP3    H125542   4.445   5.829  17.695  0.5194 -0.3593 -0.6060
  449TIP3    H225543   4.335   5.933  17.688 -0.1572 -0.7322  2.8064
  450TIP3   OH225544   2.553   5.249  19.958 -0.0005 -0.1606  0.3325
  450TIP3    H125545   2.573   5.200  19.878  0.1432  0.0511  0.2404
  450TIP3    H225546   2.457   5.248  19.962  0.0158 -1.7561  1.1403
  451TIP3   OH225547   3.355   4.846  19.633 -0.5193  0.3719 -0.2533
  451TIP3    H125548   3.448   4.863  19.644 -0.3506 -0.7314  0.1665
  451TIP3    H225549   3.312   4.928  19.656  0.2372  0.2867  1.5864
  452TIP3   OH225550   2.397   1.598  20.322 -0.2540  0.2279 -0.6130
  452TIP3    H125551   2.353   1.523  20.282 -0.5669  0.1536 -0.1385
  452TIP3    H225552   2.431   1.649  20.248 -1.1622  0.3037 -0.9826
  453TIP3   OH225553   2.245   4.155  20.533  0.6683 -0.1335  0.1992
  453TIP3    H125554   2.195   4.157  20.614  0.2817  0.1074 -0.0402
  453TIP3    H225555   2.210   4.080  20.485 -0.4405  0.8432 -0.5675
  454TIP3   OH225556   0.540   0.320  18.634  0.1285  0.1542 -0.2294
  454TIP3    H125557   0.528   0.399  18.580  0.6387  0.0014 -0.5758
  454TIP3    H225558   0.568   0.353  18.719 -0.6509  0.3977 -0.0583
  455TIP3   OH225559   2.513   3.660  19.956  0.3862  0.6098  0.1654
  455TIP3    H125560   2.426   3.698  19.941  0.6373  1.1129 -0.0571
  455TIP3    H225561   2.496   3.573  19.991 -0.2085  0.8070  0.3765
  456TIP3   OH225562   3.886   4.259  18.355 -0.0187 -0.5645  0.4230
  456TIP3    H125563   3.910   4.318  18.427 -0.7572 -0.4250  0.5600
  456TIP3    H225564   3.883   4.315  18.278  0.9483 -0.7463  0.2380
  457TIP3   OH225565   0.099   4.307  18.208  0.0083  0.5047 -0.1507
  457TIP3    H125566   0.031   4.372  18.230  0.2677  0.7709 -0.1259
  457TIP3    H225567   0.082   4.284  18.117 -0.0632  0.6386 -0.1719
  458TIP3   OH225568   3.148   2.406  18.607  0.1511  0.0525  0.0737
  458TIP3    H125569   3.078   2.432  18.546  0.1314  0.0952  0.1143
  458TIP3    H225570   3.123   2.447  18.690 -0.3582 -0.8357  0.3720
  459TIP3   OH225571   5.082   6.328  20.691  0.5871  0.4572  0.0621
  459TIP3    H125572   4.990   6.312  20.669  0.7400 -1.4786  0.6731
  459TIP3    H225573   5.127   6.247  20.667  2.1636  1.3886 -0.2706
  460TIP3   OH225574   2.264   3.749  20.001 -0.1607  0.2892  0.0937
  460TIP3    H125575   2.227   3.713  19.920 -0.8306 -0.5552  0.7659
  460TIP3    H225576   2.194   3.802  20.038 -0.0968  0.0960  0.4889
  461TIP3   OH225577   5.030   1.084  19.857  0.1804 -0.3985 -0.0310
  461TIP3    H125578   5.062   1.015  19.915  0.3025  1.3306  2.1070
  461TIP3    H225579   4.937   1.064  19.846  0.2058 -0.8922  0.5899
  462TIP3   OH225580   4.080   0.219  18.169  0.3641 -0.1429 -0.0626
  462TIP3    H125581   4.088   0.145  18.230  0.9202 -0.5687 -0.6536
  462TIP3    H225582   4.169   0.236  18.139  0.1379  0.2872 -0.5006
  463TIP3   OH225583   0.007   0.825  19.590 -0.4607  0.2272  0.1953
  463TIP3    H125584  -0.047   0.898  19.619  0.0437  0.6850  0.0170
  463TIP3    H225585  -0.039   0.789  19.514 -0.7930  0.2561  0.3813
  464TIP3   OH225586   2.401   5.897  18.412  0.6296 -0.8793 -0.0514
  464TIP3    H125587   2.392   5.925  18.321  1.3339 -0.8055 -0.1015
  464TIP3    H225588   2.361   5.810  18.415  1.7557 -1.4335 -0.7212
  465TIP3   OH225589   2.048   3.172  19.280  0.2504  0.2187 -0.5836
  465TIP3    H125590   2.119   3.199  19.338 -0.2079 -0.9551  0.5521
  465TIP3    H225591   2.037   3.078  19.296 -1.5689  0.3723 -0.7195
  466TIP3   OH225592   4.826   3.798  18.898  0.3673 -0.3439  0.4215
  466TIP3    H125593   4.842   3.703  18.894 -0.6262 -0.5718  1.3176
  466TIP3    H225594   4.886   3.835  18.834  1.2518 -1.5235  0.5274
  467TIP3   OH225595   6.138   3.066  17.950  1.1856  0.1307 -0.0600
  467TIP3    H125596   6.139   3.101  18.039 -1.0658  0.8164 -0.2469
  467TIP3    H225597   6.228   3.075  17.920  1.2168  3.7122  0.6888
  468TIP3   OH225598   0.908   0.789  20.227  0.0207 -0.2317  0.4424
  468TIP3    H125599   0.884   0.817  20.139  0.1410 -1.3022  0.0514
  468TIP3    H225600   0.953   0.705  20.215 -0.0566 -0.4524  1.5258
  469TIP3   OH225601   0.740   4.260  17.474 -0.2551 -0.4992 -0.0017
  469TIP3    H125602   0.733   4.350  17.506 -0.4750 -0.5658  0.1377
  469TIP3    H225603   0.708   4.264  17.384 -3.7613 -1.0725  1.0572
  470TIP3   OH225604   5.264   2.228  19.404  0.2048  0.6602 -0.1585
  470TIP3    H125605   5.321   2.260  19.474  1.1717 -0.6158 -0.3315
  470TIP3    H225606   5.251   2.136  19.424 -0.3259  0.5133 -1.1186
  471TIP3   OH225607   2.507   2.886  19.440  0.7611 -0.1961 -0.4550
  471TIP3    H125608   2.562   2.812  19.465 -1.4535 -1.1380  2.2597
  471TIP3    H225609   2.549   2.962  19.479  1.5046 -0.4538 -0.7304
  472TIP3   OH225610   2.528   1.776  17.664  0.2411  0.8567 -0.0968
  472TIP3    H125611   2.589   1.815  17.726  0.4000 -0.0242  0.3205
  472TIP3    H225612   2.584   1.736  17.597  0.2186 -0.9687  0.8938
  473TIP3   OH225613   6.083   5.964  16.971 -0.3388  0.0534 -0.1666
  473TIP3    H125614   6.115   5.976  17.060  0.6038 -0.3387 -0.4417
  473TIP3    H225615   6.105   6.046  16.926  0.8134 -0.4315 -0.5047
  474TIP3   OH225616   2.774   0.012  18.886 -0.7039 -0.3686 -0.5604
  474TIP3    H125617   2.812   0.080  18.943 -0.8278 -0.0055 -0.9064
  474TIP3    H225618   2.837  -0.060  18.889 -0.9629 -0.5735  0.4687
  475TIP3   OH225619   6.236   5.845  19.573 -0.3289 -0.4604 -0.3607
  475TIP3    H125620   6.156   5.828  19.623 -1.7113  2.5592 -1.2873
  475TIP3    H225621   6.303   5.864  19.639 -1.5324  1.2030  0.4335
  476TIP3   OH225622   3.406   5.169  19.571  0.3140  0.5977  0.1997
  476TIP3    H125623   3.484   5.116  19.556 -0.6963 -0.9964  0.2674
  476TIP3    H225624   3.432   5.231  19.639  1.7033  0.5420 -0.2594
  477TIP3   OH225625   4.588   2.365  20.090 -0.5584  0.0391  0.0738
  477TIP3    H125626   4.630   2.386  20.174 -0.1251  1.7651 -0.5298
  477TIP3    H225627   4.543   2.445  20.065 -0.3201 -0.2955 -1.5505
  478TIP3   OH225628   0.313   1.668  18.518  0.4861  0.6153 -0.1448
  478TIP3    H125629   0.276   1.580  18.511  2.0702 -0.1076  0.1461
  478TIP3    H225630   0.321   1.684  18.612  1.2649  0.5756 -0.1915
  479TIP3   OH225631   4.062   6.022  17.059 -0.1660 -0.2997  0.4645
  479TIP3    H125632   3.992   6.038  16.996 -0.3574 -0.1152  0.7215
  479TIP3    H225633   4.141   6.055  17.015 -0.5941  1.7157  1.1066
  480TIP3   OH225634   0.548   4.398  19.898  0.1440  0.4124 -0.5752
  480TIP3    H125635   0.496   4.478  19.908  0.4745  0.9342 -2.5855
  480TIP3    H225636   0.529   4.368  19.809  1.7802 -0.4749 -0.6566
  481TIP3   OH225637   6.507   3.829  19.436 -0.1699  0.0178  0.0780
  481TIP3    H125638   6.528   3.795  19.348 -1.3980  1.2585 -0.7374
  481TIP3    H225639   6.438   3.771  19.468  0.1514 -0.3265  0.1513
  482TIP3   OH225640   0.351   5.137  17.308 -0.1861  0.1907 -0.1598
  482TIP3    H125641   0.311   5.054  17.334  1.0781  0.2561  2.3658
  482TIP3    H225642   0.288   5.177  17.248 -1.9937 -1.4610  0.5311
  483TIP3   OH225643   3.805   4.132  19.174  0.1414 -0.0378 -0.1937
  483TIP3    H125644   3.808   4.054  19.231  0.0615 -0.5166 -0.8312
  483TIP3    H225645   3.880   4.121  19.116 -0.9100 -0.5786 -1.4883
  484TIP3   OH225646   0.817   4.280  19.756 -0.0114  0.4442 -0.1138
  484TIP3    H125647   0.783   4.359  19.714 -2.0218 -0.0116  0.5443
  484TIP3    H225648   0.812   4.213  19.688 -1.4446  0.1497  0.2562
  485TIP3   OH225649   1.998   4.919  19.324  0.2049  0.1402 -0.5215
  485TIP3    H125650   1.950   4.906  19.242  0.3012  0.0855 -0.5713
  485TIP3    H225651   1.988   5.012  19.344 -0.4030  0.0105 -0.2248
  486TIP3   OH225652   2.381   1.988  19.503 -0.1365 -0.4523 -0.4446
  486TIP3    H125653   2.438   1.999  19.579 -0.6843  1.4413 -0.2573
  486TIP3    H225654   2.413   2.051  19.438  0.5509 -2.2932 -1.9714
  487TIP3   OH225655   0.791   1.678  19.619 -0.1873 -1.1861  0.7153
  487TIP3    H125656   0.849   1.623  19.567 -1.1914 -2.6811  1.1176
  487TIP3    H225657   0.711   1.685  19.568  0.2232  0.7312  0.2366
  488TIP3   OH225658   1.394   2.204  18.193 -0.1656  0.1523  0.0904
  488TIP3    H125659   1.405   2.254  18.112  1.5688 -1.2817 -0.6367
  488TIP3    H225660   1.475   2.218  18.242 -1.5232  1.6783  2.0626
  489TIP3   OH225661   4.502   0.245  18.607 -0.1959 -0.8711 -0.5924
  489TIP3    H125662   4.538   0.170  18.560 -0.0304 -1.4919  0.4790
  489TIP3    H225663   4.514   0.319  18.548  1.0273 -1.4169 -1.0667
  490TIP3   OH225664   0.018   0.970  18.400  0.0740 -0.1288  0.3815
  490TIP3    H125665   0.056   0.940  18.483 -0.0778 -0.8482  0.1938
  490TIP3    H225666   0.083   1.032  18.365  0.4131 -0.2707  0.7482
  491TIP3   OH225667   6.383   3.811  20.056 -0.3544 -0.2746 -0.0182
  491TIP3    H125668   6.445   3.768  20.115 -1.2001  0.9028  1.8173
  491TIP3    H225669   6.436   3.867  20.001  0.4045 -0.9917 -0.0348
  492TIP3   OH225670   6.390   6.581  17.837  0.8809  0.2927 -0.7074
  492TIP3    H125671   6.321   6.543  17.782  0.2435 -0.9621  0.8898
  492TIP3    H225672   6.346   6.653  17.883 -0.1815 -2.0115  2.1640
  493TIP3   OH225673   2.633   6.319  16.953  0.0312 -0.0550 -0.3606
  493TIP3    H125674   2.581   6.381  17.005  0.1571 -0.8388  0.7340
  493TIP3    H225675   2.575   6.245  16.937 -0.1606  0.3679 -1.7775
  494TIP3   OH225676   3.248   1.882  18.734  0.1675  0.5013 -0.2760
  494TIP3    H125677   3.164   1.855  18.697  0.9942 -1.6926 -0.7262
  494TIP3    H225678   3.312   1.863  18.665  1.0506  2.4336 -0.0715
  495TIP3   OH225679   0.564   6.608  20.031  0.4750  0.5351 -0.1676
  495TIP3    H125680   0.556   6.526  20.079  3.1077  0.3661  0.0830
  495TIP3    H225681   0.559   6.676  20.098 -2.9855  0.7760 -0.4901
  496TIP3   OH225682   5.071   4.840  18.012 -0.1913  0.7049 -0.2425
  496TIP3    H125683   5.162   4.836  17.982 -0.0187  0.7953  0.2719
  496TIP3    H225684   5.073   4.808  18.102 -0.9826 -1.3286 -0.8997
  497TIP3   OH225685   4.263   3.448  19.744 -0.0470  0.6114 -0.4690
  497TIP3    H125686   4.279   3.393  19.667 -1.5477 -1.1732  0.4171
  497TIP3    H225687   4.193   3.403  19.792 -1.4257  3.3406  0.3061
  498TIP3   OH225688   4.789   1.727  20.663 -0.0201  0.6961 -0.2032
  498TIP3    H125689   4.832   1.659  20.612 -0.7727 -0.0025  0.0599
  498TIP3    H225690   4.698   1.725  20.632 -1.2517 -1.6793  2.9753
  499TIP3   OH225691   3.843   4.408  19.193 -0.0216 -0.1685 -0.1856
  499TIP3    H125692   3.938   4.407  19.211  0.0332  0.3098 -0.4411
  499TIP3    H225693   3.812   4.323  19.225  0.1330  0.4720  1.8619
  500TIP3   OH225694   1.863   2.360  17.913  0.6795 -1.1486 -0.1292
  500TIP3    H125695   1.865   2.313  17.830  0.1507 -1.1073 -0.1681
  500TIP3    H225696   1.830   2.447  17.892 -0.6678 -1.5314  0.2984
  501TIP3   OH225697   0.886   0.155  20.104  0.1508  0.0973  0.2290
  501TIP3    H125698   0.845   0.196  20.180  1.0487 -0.9296  1.3090
  501TIP3    H225699   0.894   0.226  20.039 -1.4024  0.7859  0.7515
  502TIP3   OH225700   1.025   0.840  18.120 -0.2504 -0.6376  0.1345
  502TIP3    H125701   1.060   0.770  18.175 -1.0090 -1.4191 -0.3627
  502TIP3    H225702   1.064   0.826  18.034  0.4728  0.2380  0.2957
  503TIP3   OH225703   1.671   1.858  19.543  0.0075 -0.1831  0.0037
  503TIP3    H125704   1.707   1.809  19.617 -1.0891 -0.2513  0.5198
  503TIP3    H225705   1.676   1.949  19.570 -0.9702 -0.2449  0.4600
  504TIP3   OH225706   4.079   1.660  18.608 -0.7743 -0.1341  0.0602
  504TIP3    H125707   4.084   1.733  18.670 -1.0218  0.1985 -0.3036
  504TIP3    H225708   4.115   1.585  18.656 -0.1213  0.3184  0.3001
  505TIP3   OH225709   4.454   4.688  17.986 -0.2499  0.3938 -0.1163
  505TIP3    H125710   4.476   4.706  18.077 -1.2270  1.9942 -0.1585
  505TIP3    H225711   4.440   4.593  17.983  1.6531  0.0248  0.9427
  506TIP3   OH225712   1.487   3.274  19.545  0.1653  0.4612  0.0044
  506TIP3    H125713   1.416   3.303  19.601 -1.2956  0.7694 -1.8869
  506TIP3    H225714   1.564   3.322  19.576 -0.3917  0.0346  2.1569
  507TIP3   OH225715   0.404   2.243  19.101  0.4408 -0.0947  0.1101
  507TIP3    H125716   0.430   2.335  19.112  0.1015  0.2214 -1.3988
  507TIP3    H225717   0.351   2.244  19.021 -0.9477 -1.3508  0.9849
  508TIP3   OH225718   4.132   6.660  18.906  0.6494 -0.3489 -0.2698
  508TIP3    H125719   4.181   6.704  18.837  1.2085  1.1247  1.0263
  508TIP3    H225720   4.065   6.723  18.933  0.1059 -1.1012  0.1988
  509TIP3   OH225721   3.317   5.347  20.354  0.1016  0.5853  0.1482
  509TIP3    H125722   3.314   5.321  20.262 -0.2156 -1.4320  0.6921
  509TIP3    H225723   3.401   5.314  20.386 -0.6262 -0.4408  1.0524
  510TIP3   OH225724   0.609   4.976  17.918 -0.3866  0.2965 -0.2587
  510TIP3    H125725   0.566   4.894  17.944  0.3958  0.1710  0.7171
  510TIP3    H225726   0.702   4.952  17.911 -0.2635  0.9157 -0.7810
  511TIP3   OH225727   5.191   3.351  18.486  0.2246  0.3341  0.5565
  511TIP3    H125728   5.258   3.319  18.426  0.1787 -0.7400  1.0692
  511TIP3    H225729   5.118   3.374  18.429  1.3389  2.4879 -0.1226
  512TIP3   OH225730   2.311   3.827  19.096  0.6307 -0.1220 -0.4135
  512TIP3    H125731   2.287   3.765  19.164 -2.0332  1.1474 -0.0753
  512TIP3    H225732   2.390   3.869  19.129  0.9635 -1.4419  0.5731
  513TIP3   OH225733   0.511   6.663  19.418 -0.6073  0.3960 -0.2810
  513TIP3    H125734   0.428   6.643  19.376 -1.7776  0.7883  1.7355
  513TIP3    H225735   0.535   6.582  19.463 -1.2857  1.0374  1.3076
  514TIP3   OH225736   0.615   3.855  19.951  0.3568 -0.6179  0.0382
  514TIP3    H125737   0.644   3.766  19.969 -1.1177 -0.7826  1.8272
  514TIP3    H225738   0.693   3.909  19.964  0.8194 -1.4521  0.8072
  515TIP3   OH225739   4.234   6.062  19.726 -0.2035 -0.0599 -0.2155
  515TIP3    H125740   4.206   6.104  19.808  1.0014  1.2519 -0.4532
  515TIP3    H225741   4.215   5.969  19.740 -0.9428  0.2639  1.1597
  516TIP3   OH225742   1.243   2.418  19.779 -0.1614  0.1480 -0.6855
  516TIP3    H125743   1.299   2.389  19.707  1.2656 -0.6847  0.6714
  516TIP3    H225744   1.293   2.488  19.821  0.7562 -1.7321  1.5715
  517TIP3   OH225745   3.511   3.062  18.883 -0.3743  0.1486 -0.5420
  517TIP3    H125746   3.551   3.149  18.883 -2.7003  1.2821 -0.1059
  517TIP3    H225747   3.478   3.051  18.794 -0.6152 -0.0136 -0.4339
  518TIP3   OH225748   5.344   6.663  18.214 -0.1169 -0.1862 -0.3190
  518TIP3    H125749   5.376   6.596  18.155  0.3405  0.3476 -0.6789
  518TIP3    H225750   5.271   6.621  18.260 -0.2594 -0.7118 -1.0101
  519TIP3   OH225751   3.667   0.579  18.587 -0.3071  0.3898  0.0362
  519TIP3    H125752   3.572   0.574  18.582 -0.2731 -1.4171  0.6673
  519TIP3    H225753   3.689   0.554  18.676  0.7598  0.8434 -0.0790
  520TIP3   OH225754   4.618   2.123  19.901 -0.0795  0.7843  0.5601
  520TIP3    H125755   4.595   2.181  19.973 -0.0475  0.4615  0.8361
  520TIP3    H225756   4.641   2.182  19.829  1.1013  1.1419  1.1879
  521TIP3   OH225757   5.624   3.414  19.675 -0.3311  0.3319 -0.1336
  521TIP3    H125758   5.624   3.384  19.584 -0.7252 -1.4830  0.4226
  521TIP3    H225759   5.716   3.429  19.696 -0.2606  1.0195 -0.8917
  522TIP3   OH225760   4.933   3.453  18.075 -0.1322 -0.1750  0.1852
  522TIP3    H125761   4.908   3.543  18.053  1.5983  0.2558 -0.1835
  522TIP3    H225762   5.027   3.458  18.094 -0.1174 -1.8139  0.7093
  523TIP3   OH225763   6.419   3.986  17.919  0.0021  0.8831 -0.3458
  523TIP3    H125764   6.464   4.005  18.002  0.9311  0.5790 -0.7705
  523TIP3    H225765   6.475   4.023  17.852 -0.5670  0.8094 -0.8674
  524TIP3   OH225766   1.760   2.405  19.993  0.1428  0.2995  0.1728
  524TIP3    H125767   1.687   2.406  20.055 -0.0463  1.1073 -0.0597
  524TIP3    H225768   1.802   2.490  20.003  0.9450 -0.0831  0.1651
  525TIP3   OH225769   6.164   2.181  19.135 -0.3902  0.1044 -0.3166
  525TIP3    H125770   6.221   2.125  19.082 -0.2343  0.4523 -0.5170
  525TIP3    H225771   6.223   2.225  19.196 -0.3710  0.8124 -0.8257
  526TIP3   OH225772   1.950   6.074  19.107  0.3297 -0.1918  0.0292
  526TIP3    H125773   2.015   6.143  19.122  1.3525 -1.1542  0.1891
  526TIP3    H225774   1.880   6.093  19.170 -0.3061  1.7416 -1.2029
  527TIP3   OH225775   4.541   1.798  20.559  0.0924 -0.4956 -0.0163
  527TIP3    H125776   4.549   1.830  20.469  0.1321  0.5866  0.3647
  527TIP3    H225777   4.455   1.827  20.588 -0.2349 -1.4935  0.0576
  528TIP3   OH225778   6.137   5.652  20.659 -0.0641  0.2072 -0.1802
  528TIP3    H125779   6.122   5.743  20.632  0.3769 -0.5598 -3.4709
  528TIP3    H225780   6.051   5.611  20.654  0.1578 -0.1529 -1.5802
  529TIP3   OH225781   3.870   5.015  17.080 -0.0383 -0.5804 -0.1455
  529TIP3    H125782   3.897   5.062  17.159 -1.4063  1.2282 -0.6851
  529TIP3    H225783   3.841   5.084  17.020  0.4706 -1.9387 -2.0536
  530TIP3   OH225784   0.099   2.270  18.234 -0.2067  0.2927  0.5140
  530TIP3    H125785   0.133   2.337  18.293 -1.2802  0.8053  0.5827
  530TIP3    H225786   0.039   2.317  18.176 -0.1105 -0.4166 -0.1860
  531TIP3   OH225787   3.374   1.944  19.822 -0.1327  0.3297 -0.2508
  531TIP3    H125788   3.459   1.918  19.859 -1.0977 -1.5995  0.7775
  531TIP3    H225789   3.333   1.861  19.797 -1.6215  1.2433 -0.9672
  532TIP3   OH225790   1.017   5.984  20.135 -0.0151  0.0951 -0.4673
  532TIP3    H125791   1.060   5.901  20.154 -0.1489  0.2876  0.7624
  532TIP3    H225792   1.065   6.020  20.060  1.5147 -0.0246  0.4127
  533TIP3   OH225793   4.303   5.517  19.420  0.2528 -0.0948 -0.8498
  533TIP3    H125794   4.326   5.459  19.493  0.6199 -0.0153 -0.9018
  533TIP3    H225795   4.216   5.550  19.443 -0.2201 -1.1035 -1.0888
  534TIP3   OH225796   1.015   3.984  17.059 -0.4263  0.3556 -0.1682
  534TIP3    H125797   0.922   3.962  17.055 -0.2625 -0.3644 -0.1666
  534TIP3    H225798   1.045   3.947  17.141 -0.1638  0.7032 -0.1047
  535TIP3   OH225799   3.050   2.096  19.939 -0.2701 -0.6714 -0.0071
  535TIP3    H125800   3.059   2.190  19.931 -0.6847 -0.4296  1.9069
  535TIP3    H225801   3.131   2.067  19.981  0.4758 -1.3990 -1.8437
  536TIP3   OH225802   3.459   4.882  20.724 -0.4709 -0.0297  0.0994
  536TIP3    H125803   3.529   4.874  20.788 -0.2532  1.1065  0.0221
  536TIP3    H225804   3.437   4.975  20.723  0.1006  0.1507 -2.0482
  537TIP3   OH225805   4.158   0.521  18.195  0.3530  0.4532  0.5335
  537TIP3    H125806   4.226   0.454  18.202 -1.3355 -1.2496  1.6133
  537TIP3    H225807   4.134   0.521  18.102  0.9801  0.2145  0.3676
  538TIP3   OH225808   3.692   0.693  17.883 -0.2105 -0.3494 -0.8354
  538TIP3    H125809   3.766   0.745  17.913  2.0256 -2.7725 -1.7874
  538TIP3    H225810   3.679   0.718  17.792 -2.3678  1.8782 -0.0494
  539TIP3   OH225811   4.855   4.474  18.899 -0.7209 -0.0300  0.5135
  539TIP3    H125812   4.881   4.434  18.981 -0.8159 -2.2964 -0.4813
  539TIP3    H225813   4.761   4.487  18.906 -0.7663 -0.4546  0.6705
  540TIP3   OH225814   6.246   4.257  17.294  0.2501 -0.8627 -0.0209
  540TIP3    H125815   6.254   4.303  17.210  0.6352 -2.5208 -0.9360
  540TIP3    H225816   6.152   4.252  17.310  0.1963  0.0286 -0.0170
  541TIP3   OH225817   4.153   1.975  19.594  0.0043 -0.2612 -0.0977
  541TIP3    H125818   4.175   1.884  19.576 -1.0019 -0.8199  1.3555
  541TIP3    H225819   4.200   1.995  19.675 -1.5289 -0.2075  0.8115
  542TIP3   OH225820   1.137   2.372  19.139  0.0244 -0.0929  0.4952
  542TIP3    H125821   1.108   2.323  19.216 -0.0984 -0.4526  0.2206
  542TIP3    H225822   1.082   2.341  19.068  0.7100 -0.3871  0.0802
  543TIP3   OH225823   4.215   2.783  17.556 -0.0743 -0.0766 -0.0644
  543TIP3    H125824   4.310   2.785  17.544 -0.0571  0.6072  0.1664
  543TIP3    H225825   4.180   2.824  17.476 -0.0996  1.2043  0.5814
  544TIP3   OH225826   1.360   1.102  20.502  0.1848  0.0847 -0.1771
  544TIP3    H125827   1.298   1.116  20.430  1.0259  2.7839 -0.5013
  544TIP3    H225828   1.369   1.189  20.542  1.7410 -0.8064  1.5301
  545TIP3   OH225829   0.561   0.322  18.296 -0.0484  0.0045  0.3518
  545TIP3    H125830   0.495   0.286  18.236 -0.4492 -1.2489  1.5151
  545TIP3    H225831   0.527   0.408  18.320 -0.8582 -0.3044  0.3220
  546TIP3   OH225832   5.011   1.617  20.516  0.5469  0.2932  0.6209
  546TIP3    H125833   5.004   1.550  20.448  0.9369  1.4861 -0.6325
  546TIP3    H225834   5.040   1.696  20.470  0.6265  1.1985  2.1409
  547TIP3   OH225835   5.326   4.321  17.871 -0.0883  0.7345 -0.0443
  547TIP3    H125836   5.334   4.395  17.932 -1.2647 -0.2077  1.3140
  547TIP3    H225837   5.413   4.315  17.830  0.9072  1.1268  1.8803
  548TIP3   OH225838   1.485   2.993  18.306 -0.5186  0.4077  0.3265
  548TIP3    H125839   1.458   2.920  18.251 -1.5630 -0.2456  1.6548
  548TIP3    H225840   1.421   3.062  18.287 -0.9095  0.1645  0.7463
  549TIP3   OH225841   5.582   0.576  18.215  0.4605  0.3512  0.0154
  549TIP3    H125842   5.583   0.611  18.305  1.7127 -1.1137  0.6084
  549TIP3    H225843   5.571   0.654  18.160 -0.1015  1.3101  1.4141
  550TIP3   OH225844   0.197   5.582  19.689 -0.4093 -0.5065 -0.2728
  550TIP3    H125845   0.167   5.659  19.738 -0.9838  0.8362 -2.6063
  550TIP3    H225846   0.120   5.526  19.684 -0.4482 -0.4833  0.0506
  551TIP3   OH225847   4.910   6.442  19.383  0.5575  0.2730 -0.4235
  551TIP3    H125848   4.905   6.371  19.447 -0.3411  0.3577 -0.3891
  551TIP3    H225849   4.844   6.505  19.412  0.1089  0.2906 -1.4563
  552TIP3   OH225850   2.526   4.511  19.789 -0.2982  0.6678 -0.0462
  552TIP3    H125851   2.563   4.441  19.842 -1.3051  0.7732  0.8088
  552TIP3    H225852   2.598   4.573  19.779 -0.6062  1.6777  2.9799
  553TIP3   OH225853   3.850   4.554  18.340 -0.3973 -0.2168  0.1041
  553TIP3    H125854   3.827   4.543  18.248 -0.6608  0.8126  0.0358
  553TIP3    H225855   3.828   4.645  18.360  4.3013  1.2479 -0.1744
  554TIP3   OH225856   5.835   4.156  20.420 -0.2865 -0.3963 -0.3276
  554TIP3    H125857   5.899   4.135  20.352  1.3637 -0.6392  1.2118
  554TIP3    H225858   5.753   4.171  20.373  0.9232  0.0647 -2.4021
  555TIP3   OH225859   5.339   1.977  18.116 -0.2806  0.0335  1.2672
  555TIP3    H125860   5.424   1.983  18.158  0.7418 -1.4071 -0.4407
  555TIP3    H225861   5.310   2.068  18.107  1.3449  0.5875  1.3787
  556TIP3   OH225862   0.677   4.199  20.502 -0.7491  0.4764 -0.3019
  556TIP3    H125863   0.604   4.261  20.505 -1.1984 -0.0664  0.1499
  556TIP3    H225864   0.668   4.156  20.417 -1.2173  0.1086 -0.0728
  557TIP3   OH225865   4.583   5.646  20.501  0.0904  0.7317 -0.0901
  557TIP3    H125866   4.553   5.604  20.421  0.0616  0.2979  0.1407
  557TIP3    H225867   4.678   5.651  20.492  0.0417  1.1313 -0.3625
  558TIP3   OH225868   5.810   2.749  18.226  0.3866 -0.3455 -0.0469
  558TIP3    H125869   5.849   2.742  18.313 -0.5488  0.3305  0.4325
  558TIP3    H225870   5.812   2.843  18.206  0.7710 -0.5154 -0.8421
  559TIP3   OH225871   2.353   3.049  20.014  0.5446  0.1214 -0.3226
  559TIP3    H125872   2.267   3.085  19.994  1.1988  0.5073 -2.7610
  559TIP3    H225873   2.343   2.955  20.002  0.0903 -0.0134  1.0068
  560TIP3   OH225874   0.019   4.980  19.246  0.0980 -0.5230  0.1195
  560TIP3    H125875  -0.003   4.893  19.278  1.1245 -0.2504  1.6887
  560TIP3    H225876   0.108   4.972  19.212 -0.7252 -0.6428 -2.1784
  561TIP3   OH225877   6.644   1.866  19.935  0.1197  0.1130 -0.4630
  561TIP3    H125878   6.721   1.810  19.942 -0.3997 -0.5454  0.2296
  561TIP3    H225879   6.659   1.919  19.857  2.5330  1.9781  1.1453
  562TIP3   OH225880   5.581   1.058  17.826 -0.6017 -0.5401 -0.3553
  562TIP3    H125881   5.580   1.032  17.918 -1.4234  0.8398  0.0496
  562TIP3    H225882   5.508   1.011  17.786  0.2008 -1.7112 -0.4931
  563TIP3   OH225883   4.816   2.844  19.148  0.0303 -0.1031  0.1332
  563TIP3    H125884   4.738   2.851  19.203 -0.6261 -2.6611 -0.3202
  563TIP3    H225885   4.857   2.762  19.176  2.0831  0.7127 -0.2921
  564TIP3   OH225886   0.805   2.661  17.891  0.1080 -0.2172  0.3196
  564TIP3    H125887   0.723   2.693  17.928 -1.3118 -0.4585 -2.3511
  564TIP3    H225888   0.800   2.566  17.900 -0.3396 -0.2912 -0.6042
  565TIP3   OH225889   1.043   3.473  18.861 -0.4165 -0.1477 -0.1329
  565TIP3    H125890   1.132   3.477  18.829 -0.3345 -0.9259 -0.0365
  565TIP3    H225891   0.994   3.426  18.793 -1.0072  1.2741 -0.7111
  566TIP3   OH225892   5.021   4.359  18.377  0.3113 -0.1500  0.6314
  566TIP3    H125893   4.930   4.355  18.349  0.1121  2.1077  0.7665
  566TIP3    H225894   5.018   4.396  18.466  1.3663  0.9896  0.2347
  567TIP3   OH225895   3.150   2.126  18.992 -0.5152 -0.2162  0.5384
  567TIP3    H125896   3.100   2.113  18.912 -0.6301  2.0901  0.1676
  567TIP3    H225897   3.085   2.116  19.062 -0.3003 -2.8436  0.4877
  568TIP3   OH225898   0.595   3.626  17.388 -0.9514 -0.0241 -0.0359
  568TIP3    H125899   0.598   3.693  17.319 -1.3895 -1.2950 -1.3480
  568TIP3    H225900   0.668   3.647  17.445 -1.4526  1.9431 -0.0438
  569TIP3   OH225901   1.350   2.406  20.388  0.1837 -0.5317  0.0816
  569TIP3    H125902   1.296   2.484  20.402  1.1280  0.7586 -2.7173
  569TIP3    H225903   1.439   2.436  20.407  0.5572 -0.9085 -1.0049
  570TIP3   OH225904   2.180   3.553  18.365 -0.3311 -0.3224  0.3056
  570TIP3    H125905   2.089   3.560  18.393 -0.4247 -2.3610  0.6703
  570TIP3    H225906   2.205   3.642  18.341 -1.9774  0.5310  1.5527
  571TIP3   OH225907   2.125   3.173  18.937 -0.1350 -0.3392 -0.0793
  571TIP3    H125908   2.151   3.221  19.016 -2.4367 -1.3214  1.4223
  571TIP3    H225909   2.072   3.235  18.888  0.2755 -0.0920 -0.2055
  572TIP3   OH225910   1.312   4.550  16.908 -0.2143  0.4615  0.4507
  572TIP3    H125911   1.272   4.483  16.851 -3.6097  0.5795  2.4346
  572TIP3    H225912   1.352   4.500  16.979 -0.2966  0.4362  0.4800
  573TIP3   OH225913   5.989   4.136  18.578 -0.1750 -0.4514 -0.1346
  573TIP3    H125914   6.063   4.101  18.529 -0.6250 -0.2836 -0.9624
  573TIP3    H225915   6.016   4.133  18.669 -0.1054 -2.7660 -0.1770
  574TIP3   OH225916   5.519   3.781  17.107 -0.0406  0.0229  0.3109
  574TIP3    H125917   5.479   3.781  17.021 -2.1883  0.6104  1.2320
  574TIP3    H225918   5.445   3.786  17.168  1.4383  1.6297  2.1349
  575TIP3   OH225919   0.011   2.764  17.727  0.6368  0.3404  0.8114
  575TIP3    H125920   0.097   2.744  17.688  0.1195 -1.3530  0.4260
  575TIP3    H225921  -0.028   2.678  17.743 -0.7389  1.0746  1.5685
  576TIP3   OH225922   0.802   1.333  18.796  0.5172  0.3348  0.3380
  576TIP3    H125923   0.707   1.327  18.808  0.5756  1.6899  1.8069
  576TIP3    H225924   0.832   1.242  18.790 -0.9753 -0.1097 -1.3136
  577TIP3   OH225925   5.203   2.051  17.786 -0.0128 -0.1720 -0.4267
  577TIP3    H125926   5.229   1.960  17.796 -0.6604 -0.2307  1.0655
  577TIP3    H225927   5.246   2.097  17.858 -0.8088  0.4333 -0.3162
  578TIP3   OH225928   6.126   1.109  19.277 -0.0037  0.7030 -0.1912
  578TIP3    H125929   6.196   1.062  19.233  0.6847  1.5267 -0.0052
  578TIP3    H225930   6.050   1.051  19.269  0.3399  0.4056 -1.5905
  579TIP3   OH225931   0.352   5.143  19.293  0.2496  0.1556 -0.0826
  579TIP3    H125932   0.300   5.204  19.240  0.2330 -0.1344 -0.4065
  579TIP3    H225933   0.426   5.195  19.324  0.2702  0.3247 -0.4090
  580TIP3   OH225934   0.345   3.168  17.486  0.6977  0.0764  0.2334
  580TIP3    H125935   0.303   3.244  17.526  1.1831 -0.2075  1.3193
  580TIP3    H225936   0.304   3.093  17.529  0.3725 -0.2795 -0.6786
  581TIP3   OH225937   0.098   5.436  20.706  0.6036 -0.0740  0.2462
  581TIP3    H125938   0.148   5.509  20.741 -0.8319  0.0538  2.1861
  581TIP3    H225939   0.056   5.471  20.627 -0.1596  1.2782  1.2057
  582TIP3   OH225940   0.024   4.100  19.747 -0.4723 -0.3291  0.3280
  582TIP3    H125941   0.038   4.008  19.723  0.2704 -0.4802  1.3065
  582TIP3    H225942   0.044   4.148  19.666 -0.4463 -0.9908 -0.0720
  583TIP3   OH225943   3.850   0.315  20.105  0.1194 -0.5309 -0.2197
  583TIP3    H125944   3.814   0.403  20.115  0.8869  0.1468 -2.7861
  583TIP3    H225945   3.934   0.318  20.152  0.4291  0.3073 -0.8106
  584TIP3   OH225946   2.164   2.882  19.258  0.6542 -0.5460  0.2081
  584TIP3    H125947   2.084   2.837  19.228  1.4746 -0.7912 -1.7457
  584TIP3    H225948   2.187   2.837  19.339 -1.3027 -0.3181  0.9451
  585TIP3   OH225949   3.622   4.922  17.823  0.1587 -0.1870 -0.2551
  585TIP3    H125950   3.661   5.009  17.828 -0.4121  0.0579 -0.0566
  585TIP3    H225951   3.621   4.891  17.914 -2.0870  0.6966  0.0986
  586TIP3   OH225952   6.547   0.294  18.380  0.6535  0.2900 -0.9970
  586TIP3    H125953   6.629   0.244  18.384  1.1494  0.8649 -2.9719
  586TIP3    H225954   6.489   0.242  18.325 -0.1093  0.2065 -0.1467
  587TIP3   OH225955   5.631   1.911  18.181 -0.3234 -1.0507 -0.0964
  587TIP3    H125956   5.666   1.842  18.238  2.4780 -0.1913 -0.6222
  587TIP3    H225957   5.609   1.865  18.100 -2.6372 -1.9813  0.9866
  588TIP3   OH225958   3.222   1.196  20.406  0.0604  0.0731  0.2218
  588TIP3    H125959   3.135   1.167  20.378  0.3628 -0.0999 -0.5623
  588TIP3    H225960   3.248   1.260  20.340  0.7535 -0.2701  0.1607
  589TIP3   OH225961   0.826   6.558  20.036 -0.1560  0.0987  0.3637
  589TIP3    H125962   0.848   6.629  20.097 -0.6382 -0.5897  1.3669
  589TIP3    H225963   0.733   6.570  20.018 -0.6056 -1.0502  1.6524
  590TIP3   OH225964   2.904   5.591  18.118  0.1552  0.2016  0.0884
  590TIP3    H125965   2.866   5.506  18.141  0.3814 -0.2440 -1.1248
  590TIP3    H225966   2.998   5.580  18.129  0.0488  1.1916  2.7124
  591TIP3   OH225967   6.515   0.072  18.722  0.1458  0.1393  0.1089
  591TIP3    H125968   6.533   0.013  18.795  1.6482 -0.6202 -0.8312
  591TIP3    H225969   6.440   0.124  18.752  1.0221  0.2309  2.3885
  592TIP3   OH225970   4.022   0.019  19.698 -0.1534  0.1861 -0.0551
  592TIP3    H125971   3.944   0.020  19.754  0.2020 -0.0508  0.4507
  592TIP3    H225972   3.991   0.052  19.614 -0.6011  0.9929  0.4024
  593TIP3   OH225973   1.528   5.623  18.529 -0.2732 -0.6615 -0.3476
  593TIP3    H125974   1.491   5.536  18.546  1.8147 -1.3966  0.8333
  593TIP3    H225975   1.529   5.665  18.615 -0.2971  0.1329 -0.7285
  594TIP3   OH225976   5.179   5.322  20.619  0.0651  0.1752  0.1077
  594TIP3    H125977   5.205   5.375  20.544 -0.4833  2.8755  1.6887
  594TIP3    H225978   5.261   5.302  20.664  0.2939 -0.4554 -0.5879
  595TIP3   OH225979   0.869   2.759  20.418  0.6632 -0.2522 -0.3778
  595TIP3    H125980   0.778   2.787  20.429  0.7400 -0.2277  0.2251
  595TIP3    H225981   0.863   2.669  20.386  0.4273 -0.0353 -0.9587
  596TIP3   OH225982   0.180   4.663  20.696  0.4587 -0.9098 -0.2467
  596TIP3    H125983   0.197   4.652  20.789 -0.5668 -2.0226 -0.1624
  596TIP3    H225984   0.152   4.754  20.686 -0.0858 -0.9713  0.6482
  597TIP3   OH225985   5.233   6.595  18.796 -0.1949 -0.2861 -0.5354
  597TIP3    H125986   5.157   6.602  18.738  0.4454 -0.4753 -1.4088
  597TIP3    H225987   5.282   6.676  18.780  0.0376 -0.3846 -0.3203
  598TIP3   OH225988   1.693   3.761  19.260 -0.3781  0.4800  0.2357
  598TIP3    H125989   1.666   3.823  19.192 -1.2935  1.0561  1.1081
  598TIP3    H225990   1.630   3.690  19.255 -0.8724  0.8615  0.9400
  599TIP3   OH225991   4.773   5.867  20.310  0.1348 -0.2635  0.7284
  599TIP3    H125992   4.806   5.786  20.270 -0.2619 -0.0845  0.0272
  599TIP3    H225993   4.766   5.928  20.238 -0.9069 -0.0311  1.0122
  600TIP3   OH225994   0.167   4.163  18.775 -0.5022  0.1172 -0.0131
  600TIP3    H125995   0.080   4.198  18.793 -0.3806 -0.3491  1.6058
  600TIP3    H225996   0.153   4.069  18.760 -0.1786 -0.1826  1.4017
  601TIP3   OH225997   0.845   2.383  17.936 -0.1443 -0.3926  0.2107
  601TIP3    H125998   0.884   2.297  17.950 -2.5575 -1.5751  0.2514
  601TIP3    H225999   0.774   2.367  17.874 -3.2415  0.6528  3.1399
  602TIP3   OH226000   5.939   1.502  18.440 -0.5879 -0.5246  0.3669
  602TIP3    H126001   5.992   1.428  18.411  0.6043  0.9074 -1.2830
  602TIP3    H226002   5.875   1.463  18.500  0.2286 -2.8141 -0.1425
  603TIP3   OH226003   3.057   4.301  18.730 -0.5788  0.6078 -0.1176
  603TIP3    H126004   3.152   4.310  18.738 -0.5208 -0.4820  0.5493
  603TIP3    H226005   3.030   4.259  18.812 -1.5576  0.2860 -0.5963
  604TIP3   OH226006   0.901   0.619  17.880  0.4056  0.0038  0.0708
  604TIP3    H126007   0.938   0.544  17.832  1.0887  0.0811  0.4629
  604TIP3    H226008   0.967   0.687  17.872  0.1345  0.3052  0.3876
  605TIP3   OH226009   1.033   0.862  20.437 -0.3746  0.4793 -0.3518
  605TIP3    H126010   0.976   0.827  20.369  0.3758 -0.6744 -0.4119
  605TIP3    H226011   1.122   0.851  20.403 -0.0535  1.0719  0.2719
  606TIP3   OH226012   4.648   1.780  19.487 -0.3556 -0.4738 -0.2430
  606TIP3    H126013   4.625   1.695  19.448 -0.0432 -1.1754  1.0439
  606TIP3    H226014   4.567   1.811  19.526 -0.3684 -0.3748 -0.3465
  607TIP3   OH226015   6.428   4.785  18.078 -0.5460 -0.0815  0.1340
  607TIP3    H126016   6.341   4.745  18.081 -0.3229 -0.5410  0.7174
  607TIP3    H226017   6.427   4.851  18.147 -1.3725  1.9439 -1.7004
  608TIP3   OH226018   1.631   3.999  20.328  0.6786 -0.4648 -0.4034
  608TIP3    H126019   1.607   3.916  20.288 -0.3672  0.0298 -0.8215
  608TIP3    H226020   1.603   4.066  20.265  1.1142  0.2279  0.1180
  609TIP3   OH226021   1.252   3.253  18.533  0.1290  0.2945  0.3416
  609TIP3    H126022   1.177   3.207  18.495 -0.2513 -0.1565  1.6002
  609TIP3    H226023   1.276   3.202  18.610  0.9363  1.1278  0.6674
  610TIP3   OH226024   5.507   3.311  18.514  0.1585  0.3684  0.1123
  610TIP3    H126025   5.480   3.310  18.606  0.4878  2.0499  0.2578
  610TIP3    H226026   5.601   3.291  18.516  0.3157  1.0966  0.2162
  611TIP3   OH226027   0.060   1.742  17.527 -0.6060 -0.0198  0.0060
  611TIP3    H126028   0.091   1.755  17.437 -0.2959  0.3705  0.1614
  611TIP3    H226029   0.109   1.667  17.559 -1.7000 -1.0092 -0.5895
  612TIP3   OH226030   6.502   3.929  17.280  0.3512  0.5273  0.2959
  612TIP3    H126031   6.460   3.971  17.205 -1.8197 -0.4670  0.8651
  612TIP3    H226032   6.552   3.856  17.242 -0.0408  0.5438 -0.2732
  613TIP3   OH226033   3.262   0.297  17.433 -0.1702  0.4835  0.2237
  613TIP3    H126034   3.343   0.266  17.474  0.2120 -0.3802 -1.1396
  613TIP3    H226035   3.281   0.298  17.339 -0.7392  3.2420  0.0405
  614TIP3   OH226036   6.379   4.737  19.372  0.1087 -0.3816 -0.1487
  614TIP3    H126037   6.475   4.733  19.379  0.4095  3.3676  0.0675
  614TIP3    H226038   6.348   4.711  19.459  0.9764 -0.8125  0.0471
  615TIP3   OH226039   6.319   6.628  18.202 -0.1659 -0.5594  0.2505
  615TIP3    H126040   6.304   6.656  18.292 -2.5583  1.7765 -0.7340
  615TIP3    H226041   6.272   6.545  18.195 -1.3312  0.0317  0.7841
  616TIP3   OH226042   3.779   4.585  18.044 -0.5005 -0.3291 -0.9921
  616TIP3    H126043   3.863   4.552  18.011 -0.2305 -1.7094  0.8758
  616TIP3    H226044   3.714   4.529  18.002 -0.1856 -1.8447  0.4288
  617TIP3   OH226045   1.139   6.657  18.516 -0.0239  0.4933  0.1428
  617TIP3    H126046   1.193   6.663  18.437 -0.4025  1.5851 -0.0395
  617TIP3    H226047   1.069   6.596  18.492 -0.0092  0.6401 -0.2864
  618TIP3   OH226048   2.775   6.310  20.856  0.2557  0.3209  0.2523
  618TIP3    H126049   2.784   6.227  20.809  0.4269  1.5498 -2.0451
  618TIP3    H226050   2.681   6.325  20.860  0.2355  0.1519  0.4417
  619TIP3   OH226051   3.165   3.559  19.246  0.3216 -0.0598 -0.0220
  619TIP3    H126052   3.109   3.609  19.304  2.7101 -0.3028  2.7782
  619TIP3    H226053   3.221   3.624  19.204 -0.8439  0.0415 -1.4989
  620TIP3   OH226054   4.093   5.709  17.975  0.1634 -0.1443 -0.0443
  620TIP3    H126055   4.173   5.708  18.029  0.3285 -0.6529 -0.2930
  620TIP3    H226056   4.111   5.645  17.906 -0.3253 -0.0014 -0.3004
  621TIP3   OH226057   2.743   4.985  18.718  0.1450 -0.2271 -0.1357
  621TIP3    H126058   2.815   4.948  18.768  0.2945 -1.7174 -1.3856
  621TIP3    H226059   2.769   4.974  18.627 -0.0330  2.5947 -0.6142
  622TIP3   OH226060   4.474   3.653  18.891 -0.2477  0.0254 -0.0749
  622TIP3    H126061   4.542   3.702  18.845  0.2091  0.6926  1.2447
  622TIP3    H226062   4.520   3.612  18.964 -1.3503  1.1358  1.3095
  623TIP3   OH226063   1.726   5.562  17.568 -0.1700 -0.1272  0.4114
  623TIP3    H126064   1.725   5.642  17.620 -2.4868 -0.7682  1.4764
  623TIP3    H226065   1.685   5.588  17.485 -0.3229 -0.0698  0.5049
  624TIP3   OH226066   5.856   0.712  17.316 -0.1655  0.2922 -0.0478
  624TIP3    H126067   5.875   0.646  17.249  1.5906 -0.3587  1.0301
  624TIP3    H226068   5.903   0.790  17.287 -0.0998  0.2699 -0.0009
  625TIP3   OH226069   3.453   4.449  18.887  0.4140 -0.0530 -0.6070
  625TIP3    H126070   3.449   4.364  18.842 -1.0963  0.6387 -1.8714
  625TIP3    H226071   3.545   4.459  18.912  0.7303 -1.7837 -0.9621
  626TIP3   OH226072   6.257   0.700  17.820 -0.0509 -0.5935  0.2007
  626TIP3    H126073   6.247   0.794  17.836 -0.7930 -0.2068 -2.1070
  626TIP3    H226074   6.175   0.661  17.850  0.9742 -0.8342  2.8966
  627TIP3   OH226075   2.251   4.684  20.283 -0.1616  0.1988  0.0910
  627TIP3    H126076   2.338   4.713  20.312 -0.6674 -0.1250  2.0447
  627TIP3    H226077   2.267   4.603  20.236  0.8602  1.5672 -2.1114
  628TIP3   OH226078   0.247   4.518  19.180 -0.4646  0.0156 -0.1100
  628TIP3    H126079   0.337   4.503  19.208 -0.9536 -0.8502  1.1010
  628TIP3    H226080   0.240   4.475  19.095  0.0167 -0.7512  0.2277
  629TIP3   OH226081   0.897   5.676  21.035 -0.8194  0.4598 -0.2235
  629TIP3    H126082   0.949   5.722  20.970 -0.6839 -0.7212 -0.9744
  629TIP3    H226083   0.853   5.746  21.084  0.0841  1.4068 -0.7215
  630TIP3   OH226084   1.653   3.867  17.599  0.1339 -0.4136 -1.0887
  630TIP3    H126085   1.558   3.854  17.593 -0.2169  1.4630 -0.2599
  630TIP3    H226086   1.665   3.921  17.677  1.7219  0.8473 -2.1558
  631TIP3   OH226087   3.522   3.181  20.228 -0.1507 -0.0298 -0.2560
  631TIP3    H126088   3.454   3.224  20.176 -0.6573 -1.7173 -1.0364
  631TIP3    H226089   3.590   3.248  20.237 -1.9844  1.8190  0.7970
  632TIP3   OH226090   3.018   4.470  20.081 -0.3800  0.4167 -0.0218
  632TIP3    H126091   3.047   4.559  20.102 -0.3102  0.1457  1.0468
  632TIP3    H226092   3.008   4.427  20.166  1.1985 -1.1204 -0.5696
  633TIP3   OH226093   2.338   6.356  17.681  0.4363  0.2384 -0.0159
  633TIP3    H126094   2.317   6.367  17.588 -1.6038  0.8029  0.4799
  633TIP3    H226095   2.340   6.261  17.693 -0.9579  0.1458 -0.3189
  634TIP3   OH226096   5.996   1.228  19.781  0.3823 -0.2178 -0.3046
  634TIP3    H126097   5.935   1.155  19.768 -0.2930  0.4793 -1.1619
  634TIP3    H226098   5.993   1.245  19.875  0.0482 -0.8703 -0.1895
  635TIP3   OH226099   5.586   4.139  17.862  0.7228  0.0400  0.5523
  635TIP3    H126100   5.667   4.093  17.884  0.2471 -0.1506  1.9724
  635TIP3    H226101   5.615   4.228  17.841  1.6215 -0.7549 -2.0327
  636TIP3   OH226102   2.481   0.237  19.313 -0.2355 -0.6882 -0.8558
  636TIP3    H126103   2.448   0.262  19.399  0.3631  2.3295 -1.4016
  636TIP3    H226104   2.573   0.260  19.315 -0.1802 -0.7088 -2.2642
  637TIP3   OH226105   6.083   5.057  19.504  0.0331 -0.5262  0.0772
  637TIP3    H126106   6.106   5.038  19.414 -0.4605 -1.8740  0.2148
  637TIP3    H226107   6.121   5.143  19.521  0.4374 -0.4151 -1.2918
  638TIP3   OH226108   1.987   2.171  18.425  0.2101  0.4047 -0.2358
  638TIP3    H126109   1.922   2.158  18.494 -0.9166  0.4882 -1.2490
  638TIP3    H226110   1.972   2.260  18.394  1.6309  0.8640  0.3183
  639TIP3   OH226111   5.331   5.584  19.857 -0.3819  0.3844 -0.3638
  639TIP3    H126112   5.345   5.619  19.769 -1.6912 -2.7394 -1.9929
  639TIP3    H226113   5.405   5.526  19.872 -1.4727 -1.1579 -0.6481
  640TIP3   OH226114   4.591   5.117  19.399 -0.4634  0.3329  0.3261
  640TIP3    H126115   4.644   5.162  19.464 -1.2232 -0.1554  1.2964
  640TIP3    H226116   4.501   5.125  19.430 -0.6325 -1.9211  0.6172
  641TIP3   OH226117   0.200   0.289  18.626 -0.3554 -0.3639 -0.0169
  641TIP3    H126118   0.245   0.205  18.617  1.0341  0.2358  0.9764
  641TIP3    H226119   0.216   0.334  18.543  2.0768  0.3595  0.7764
  642TIP3   OH226120   0.136   3.089  19.571 -0.0901  0.1788 -0.4413
  642TIP3    H126121   0.065   3.139  19.532 -0.3721  1.2595  1.3229
  642TIP3    H226122   0.153   3.132  19.655  0.4647 -1.9640  0.6411
  643TIP3   OH226123   1.171   2.382  17.977 -0.0785 -0.0300  0.2516
  643TIP3    H126124   1.168   2.408  18.069  0.1618  0.2589  0.1765
  643TIP3    H226125   1.092   2.330  17.965 -2.0313  2.8538 -0.2899
  644TIP3   OH226126   4.109   2.517  17.603  0.4640  0.0584  0.0514
  644TIP3    H126127   4.167   2.442  17.611 -0.9339 -1.0921 -0.2437
  644TIP3    H226128   4.163   2.585  17.563  1.8356 -0.6725  0.6082
  645TIP3   OH226129   3.670   5.095  18.266 -0.0209  0.5934  0.1591
  645TIP3    H126130   3.634   5.033  18.330  1.1763  1.0254  1.3093
  645TIP3    H226131   3.743   5.048  18.226  1.0585  1.3243  1.2259
  646TIP3   OH226132   6.342   1.910  18.003  0.1780 -0.1792  0.3564
  646TIP3    H126133   6.259   1.921  17.956  0.6008 -0.7937 -0.5752
  646TIP3    H226134   6.389   1.992  17.988 -0.7164  0.6418  1.8733
  647TIP3   OH226135   6.581   6.529  18.914  0.3974  0.1335  0.3063
  647TIP3    H126136   6.609   6.514  18.824 -1.5100 -1.1376 -0.1226
  647TIP3    H226137   6.661   6.518  18.966  1.4391  0.4694 -1.1779
  648TIP3   OH226138   2.382   2.913  21.047  0.4230  0.1012  0.4683
  648TIP3    H126139   2.321   2.965  20.994  0.2271 -1.6190 -1.1069
  648TIP3    H226140   2.326   2.868  21.110  0.5528  1.4611  1.5967
  649TIP3   OH226141   0.509   3.044  18.296 -0.0717 -0.4017  0.1067
  649TIP3    H126142   0.562   2.965  18.305 -0.1623 -0.4133  0.5245
  649TIP3    H226143   0.461   3.031  18.214 -0.8901 -1.2655  0.7061
  650TIP3   OH226144   3.341   5.012  18.450  0.2265  0.3740 -0.2027
  650TIP3    H126145   3.288   5.011  18.371 -1.7958 -0.3100  1.0644
  650TIP3    H226146   3.406   4.942  18.437 -0.7691 -0.4611 -0.8221
  651TIP3   OH226147   5.750   5.484  20.107  0.2259  0.3592 -0.1873
  651TIP3    H126148   5.818   5.432  20.150 -0.3434 -0.4046 -0.1847
  651TIP3    H226149   5.797   5.536  20.041  0.6898 -1.0746 -1.0328
  652TIP3   OH226150   2.092   2.519  19.088 -0.0367 -0.2623  0.1322
  652TIP3    H126151   2.092   2.437  19.037 -0.5956  0.1810 -0.5868
  652TIP3    H226152   2.048   2.582  19.033 -1.5448 -0.0001  1.5649
  653TIP3   OH226153   4.870   3.340  19.093 -0.2670  0.3517  0.4476
  653TIP3    H126154   4.915   3.409  19.142 -0.3821  1.0670 -0.4479
  653TIP3    H226155   4.934   3.310  19.029  0.0522 -0.9232  1.3132
  654TIP3   OH226156   5.093   0.748  20.601  0.7147 -0.4438  0.5287
  654TIP3    H126157   5.182   0.781  20.616  0.7245 -0.3801  0.3341
  654TIP3    H226158   5.057   0.735  20.689  1.3932 -1.7682  0.6478
  655TIP3   OH226159   0.362   2.305  18.051  0.0455 -0.3254 -0.1031
  655TIP3    H126160   0.334   2.215  18.033  1.1329 -0.9629  1.2407
  655TIP3    H226161   0.394   2.303  18.141 -1.9637  1.9295  0.7823
  656TIP3   OH226162   1.109   2.160  19.881  0.2414 -0.7419  0.2647
  656TIP3    H126163   1.165   2.231  19.851  0.4035 -0.3203  1.5111
  656TIP3    H226164   1.074   2.121  19.800  0.5394  0.4228 -0.4453
  657TIP3   OH226165   2.121   4.267  17.111 -0.2034  0.1800 -0.2261
  657TIP3    H126166   2.082   4.225  17.188  0.1213  0.8867  0.3380
  657TIP3    H226167   2.165   4.196  17.065  1.5433  0.0795  1.4532
  658TIP3   OH226168   6.483   5.049  20.760  0.4498 -0.1244  0.6811
  658TIP3    H126169   6.392   5.069  20.738  0.1986 -0.6211  1.2582
  658TIP3    H226170   6.525   5.134  20.767  0.3323  0.0845 -0.8156
  659TIP3   OH226171   0.006   3.618  18.822  0.3992  0.0671 -0.5976
  659TIP3    H126172  -0.063   3.577  18.770  2.2474 -2.4297 -1.2651
  659TIP3    H226173  -0.007   3.584  18.911  1.2040 -1.0966 -0.8995
  660TIP3   OH226174   2.763   3.617  18.318 -0.0151 -0.3134  0.0396
  660TIP3    H126175   2.819   3.692  18.337 -1.1846  1.0944 -1.7764
  660TIP3    H226176   2.775   3.600  18.225  0.6498 -2.8042  0.5179
  661TIP3   OH226177   2.429   0.873  20.297 -0.4536 -0.0444 -0.0344
  661TIP3    H126178   2.344   0.832  20.280  0.1864 -1.3199 -0.2389
  661TIP3    H226179   2.474   0.869  20.213  0.7340 -1.6211  0.6394
  662TIP3   OH226180   2.747   2.456  20.013 -0.2551 -0.0963  0.2942
  662TIP3    H126181   2.799   2.456  19.933  0.1289  0.8903  0.5303
  662TIP3    H226182   2.812   2.460  20.083 -0.6016 -0.6178  0.6595
  663TIP3   OH226183   1.370   1.037  17.410 -0.0557 -0.3561  0.1445
  663TIP3    H126184   1.394   1.127  17.435  0.2649 -0.0328 -1.2329
  663TIP3    H226185   1.449   0.986  17.428  0.9536  0.2725 -2.1305
  664TIP3   OH226186   3.548   0.733  18.950  0.6486  0.0479  0.3434
  664TIP3    H126187   3.487   0.760  19.019 -0.6164  0.4554 -0.8915
  664TIP3    H226188   3.593   0.813  18.925 -0.4099  0.3432 -0.7217
  665TIP3   OH226189   2.405   5.878  18.987  0.3389 -0.0948 -0.2083
  665TIP3    H126190   2.319   5.879  19.029 -0.1652 -0.9166 -1.1848
  665TIP3    H226191   2.442   5.964  19.007  0.5648 -0.7697  2.7565
  666TIP3   OH226192   0.367   2.381  19.458 -0.5258  0.2384 -0.5888
  666TIP3    H126193   0.409   2.423  19.383 -0.4318 -0.0808 -0.7166
  666TIP3    H226194   0.343   2.294  19.427  1.4718 -0.7446  0.3572
  667TIP3   OH226195   6.408   5.535  20.786 -0.6211  0.1724  0.1807
  667TIP3    H126196   6.417   5.531  20.691 -0.7739  2.5465  0.0105
  667TIP3    H226197   6.319   5.566  20.800 -0.0281  1.5777  1.0219
  668TIP3   OH226198   3.765   1.990  18.473  0.3378 -0.3917  0.0825
  668TIP3    H126199   3.688   2.040  18.501  0.3027  0.0951 -0.8290
  668TIP3    H226200   3.829   2.003  18.543  0.2500  0.7730 -0.0225
  669TIP3   OH226201   2.715   2.667  20.545  0.3950 -0.0210 -0.0301
  669TIP3    H126202   2.810   2.673  20.557  0.4765  1.2217 -1.1036
  669TIP3    H226203   2.680   2.747  20.584  0.0027  0.5068 -1.3989
  670TIP3   OH226204   6.183   6.419  17.661 -0.3223 -0.3834 -0.3582
  670TIP3    H126205   6.195   6.371  17.579 -1.1185 -1.6016  0.2010
  670TIP3    H226206   6.131   6.495  17.636 -0.9363 -0.9673 -0.9316
  671TIP3   OH226207   1.836   4.993  20.382 -0.6930 -0.0236  0.7401
  671TIP3    H126208   1.842   4.903  20.352 -3.2069 -0.5267  1.4905
  671TIP3    H226209   1.854   4.989  20.476 -1.5089  0.1003  0.9157
  672TIP3   OH226210   0.636   3.911  19.686  0.8780 -0.0090 -0.0662
  672TIP3    H126211   0.567   3.858  19.646  1.3547 -0.6942 -0.0029
  672TIP3    H226212   0.614   3.913  19.779 -0.2907  1.6757 -0.3421
  673TIP3   OH226213   3.591   1.588  19.401  0.8523  0.1696 -0.0596
  673TIP3    H126214   3.522   1.587  19.467  1.1772  1.3231  0.3106
  673TIP3    H226215   3.585   1.674  19.359 -0.4723 -1.1273 -2.7737
  674TIP3   OH226216   4.383   2.204  20.265 -0.2922  0.0261  0.0181
  674TIP3    H126217   4.355   2.293  20.286  1.6919  0.7364 -0.1592
  674TIP3    H226218   4.446   2.215  20.194  2.2602 -1.1682  1.9402
  675TIP3   OH226219   4.661   3.943  19.628 -0.4540  0.6777  0.1245
  675TIP3    H126220   4.636   4.012  19.690  0.9251  0.6641  0.7247
  675TIP3    H226221   4.579   3.920  19.584 -1.6534  0.1251  2.4851
  676TIP3   OH226222   2.083   6.129  18.814  0.3544  0.5565  0.0018
  676TIP3    H126223   2.159   6.131  18.756  1.0286  0.7203  0.8649
  676TIP3    H226224   2.099   6.053  18.871 -0.7415 -0.1517 -0.6001
  677TIP3   OH226225   2.946   1.862  19.057 -0.2559  0.3291 -0.4824
  677TIP3    H126226   2.960   1.936  19.116 -1.0231  0.0952 -0.0007
  677TIP3    H226227   3.025   1.809  19.067  0.0614  0.7997 -0.4287
  678TIP3   OH226228   1.646   1.162  19.780  0.4208  0.3386  0.1681
  678TIP3    H126229   1.710   1.140  19.712  0.0694 -0.1328 -0.0220
  678TIP3    H226230   1.582   1.091  19.775 -0.1793  0.8662  0.2737
  679TIP3   OH226231   1.496   3.291  18.434  0.1200  0.3497 -0.4584
  679TIP3    H126232   1.507   3.208  18.389  0.9129 -0.4008  1.0615
  679TIP3    H226233   1.405   3.291  18.463  0.7733 -1.2427  1.8326
  680TIP3   OH226234   1.096   6.682  20.004  0.1138  0.5265  0.2926
  680TIP3    H126235   1.055   6.719  20.082  0.3980  1.6926 -0.0911
  680TIP3    H226236   1.146   6.607  20.037  0.1771  0.9623  1.2216
  681TIP3   OH226237   0.197   0.848  19.344  0.4542 -0.2510 -0.2692
  681TIP3    H126238   0.235   0.775  19.394 -0.0227 -0.5788 -0.3754
  681TIP3    H226239   0.109   0.817  19.321  0.9973 -0.5233 -2.1476
  682TIP3   OH226240   6.681   4.539  19.182  0.4109 -0.2497  0.3180
  682TIP3    H126241   6.773   4.553  19.161  0.1807 -0.7362 -1.1400
  682TIP3    H226242   6.660   4.609  19.245  1.4020  0.7823 -0.4491
  683TIP3   OH226243   3.644   2.758  19.038  0.1663  0.4236 -0.3281
  683TIP3    H126244   3.727   2.790  19.005  0.6694  0.6527  1.0818
  683TIP3    H226245   3.648   2.663  19.028  1.2680  0.2826  1.1142
  684TIP3   OH226246   0.899   3.169  17.431 -0.5379 -0.4150  0.4988
  684TIP3    H126247   0.826   3.209  17.384  0.5771 -0.6574 -1.5431
  684TIP3    H226248   0.925   3.095  17.377  1.5427 -0.0192  0.8707
  685TIP3   OH226249   5.786   2.606  17.299  0.0192 -0.5024  0.1085
  685TIP3    H126250   5.870   2.624  17.257  0.1870  4.0683  1.8035
  685TIP3    H226251   5.721   2.627  17.232  0.1022 -3.0202 -0.8623
  686TIP3   OH226252   1.655   5.984  19.497 -0.1129  0.1815 -0.0545
  686TIP3    H126253   1.651   5.909  19.556  2.6305 -1.3207 -1.6062
  686TIP3    H226254   1.709   6.048  19.543  0.4344 -0.2174 -0.1350
  687TIP3   OH226255   4.021   5.299  18.798 -0.1150 -0.1852 -0.0670
  687TIP3    H126256   4.086   5.337  18.739 -0.0135 -2.1734 -1.3552
  687TIP3    H226257   4.024   5.205  18.779 -2.4454 -0.4999  0.7776
  688TIP3   OH226258   0.384   3.479  17.795 -0.0122 -0.2168 -0.1079
  688TIP3    H126259   0.342   3.565  17.797  1.9937  0.8142  0.3959
  688TIP3    H226260   0.332   3.429  17.732 -0.0849  2.0094 -2.0066
  689TIP3   OH226261   4.131   6.249  19.554  0.0422 -0.4413  0.1677
  689TIP3    H126262   4.169   6.180  19.609 -1.4426  0.0967  2.0125
  689TIP3    H226263   4.206   6.295  19.517  1.0869 -1.7016  0.6151
  690TIP3   OH226264   6.571   3.687  19.155 -0.2383  0.0745 -0.0017
  690TIP3    H126265   6.533   3.636  19.083  0.4930  0.0375 -0.3686
  690TIP3    H226266   6.652   3.641  19.177 -0.2065  0.3694  0.5122
  691TIP3   OH226267   2.220   0.338  19.711  0.4793  0.0671  0.4446
  691TIP3    H126268   2.275   0.390  19.653 -0.3475  0.9968  0.4693
  691TIP3    H226269   2.175   0.276  19.653 -0.6048  1.2209  0.0234
  692TIP3   OH226270   4.912   0.091  18.143  0.3272  0.1688 -0.2476
  692TIP3    H126271   4.885   0.172  18.099 -0.0233 -0.9880 -2.3397
  692TIP3    H226272   4.996   0.069  18.104  1.3097  0.4235  1.6286
  693TIP3   OH226273   6.627   4.465  20.288  0.3926 -0.8904 -0.0729
  693TIP3    H126274   6.697   4.453  20.224 -0.5572 -0.1881 -1.2841
  693TIP3    H226275   6.667   4.519  20.357  0.9876 -0.2797 -0.8753
  694TIP3   OH226276   1.912   2.632  20.252  0.1002 -0.1668 -0.0691
  694TIP3    H126277   1.966   2.708  20.275  2.1401 -0.9522 -1.8751
  694TIP3    H226278   1.823   2.658  20.275  1.0430  1.7137  1.8489
  695TIP3   OH226279   3.349   3.305  19.103  0.3303  0.0956 -0.0038
  695TIP3    H126280   3.391   3.349  19.178  0.5884  2.3107 -1.3340
  695TIP3    H226281   3.415   3.243  19.072  1.4981  1.3830 -0.2323
  696TIP3   OH226282   5.743   1.180  18.786 -0.1771  0.0309  0.1442
  696TIP3    H126283   5.697   1.200  18.868 -1.7360 -2.2978 -0.0443
  696TIP3    H226284   5.774   1.090  18.799  1.5872  0.4546 -0.9790
  697TIP3   OH226285   1.689   0.377  19.379  0.1228 -0.1708 -0.3667
  697TIP3    H126286   1.728   0.444  19.434  0.0536 -0.3723 -0.0704
  697TIP3    H226287   1.741   0.378  19.299 -0.6817  1.1302 -0.8927
  698TIP3   OH226288   1.733   4.720  19.252 -0.7123 -0.1849  0.0953
  698TIP3    H126289   1.702   4.665  19.323  1.9013 -0.7096  0.9311
  698TIP3    H226290   1.681   4.801  19.259 -1.2400 -0.6533  1.9026
  699TIP3   OH226291   1.013   2.990  20.339  0.2559 -0.8287  0.2881
  699TIP3    H126292   1.058   2.973  20.256  0.6739  0.3279  0.2576
  699TIP3    H226293   0.947   2.921  20.345 -0.7607 -0.1225 -1.7200
  700TIP3   OH226294   4.916   4.084  19.797  0.3485  0.3245 -0.1386
  700TIP3    H126295   4.888   4.164  19.841 -0.1969  0.5167 -0.8185
  700TIP3    H226296   4.896   4.014  19.859 -1.6129  0.4598 -0.5572
  701TIP3   OH226297   3.493   2.650  18.544  0.1915  0.5224  0.2349
  701TIP3    H126298   3.426   2.683  18.484  1.5008  1.4751 -0.7516
  701TIP3    H226299   3.476   2.695  18.627 -1.8020 -1.0066  0.7187
  702TIP3   OH226300   6.591   2.168  19.658 -0.0887  0.9145  1.2061
  702TIP3    H126301   6.509   2.212  19.639  0.8161  2.3053  0.3218
  702TIP3    H226302   6.568   2.076  19.668 -1.7924  1.3324  1.3896
  703TIP3   OH226303   4.604   6.324  20.146  0.1819  0.1935 -0.2497
  703TIP3    H126304   4.629   6.302  20.056  0.4771 -0.8893  0.0756
  703TIP3    H226305   4.619   6.243  20.195 -0.8046  0.5002  0.6055
  704TIP3   OH226306   3.791   1.181  19.115 -0.6999 -0.2968  0.0025
  704TIP3    H126307   3.734   1.204  19.041  0.9898  2.9900 -0.4917
  704TIP3    H226308   3.752   1.226  19.190  0.4166  0.8349 -0.0636
  705TIP3   OH226309   5.214   1.580  20.749 -0.1576 -0.0827 -0.3086
  705TIP3    H126310   5.190   1.634  20.673 -0.4503 -0.7732 -0.7145
  705TIP3    H226311   5.144   1.597  20.812 -1.1364 -1.1749 -1.0400
  706TIP3   OH226312   0.971   0.016  18.926  0.3331 -0.1445 -0.4101
  706TIP3    H126313   0.878  -0.002  18.914 -0.2936  1.6650  1.2437
  706TIP3    H226314   0.985   0.100  18.883  0.9417  0.1291  0.3010
  707TIP3   OH226315   3.969   1.176  19.899 -0.2244  0.9074  0.9975
  707TIP3    H126316   3.894   1.201  19.845  0.3647  0.9181  0.1614
  707TIP3    H226317   4.033   1.142  19.836 -0.7588 -2.2740  1.9657
  708TIP3   OH226318   6.265   6.058  20.853 -0.3423  0.1031 -0.3736
  708TIP3    H126319   6.225   6.134  20.895 -0.6066 -1.2309  1.9921
  708TIP3    H226320   6.192   6.010  20.814 -0.5662 -0.3162  0.5326
  709TIP3   OH226321   3.692   1.310  19.339  0.1379 -0.1409 -0.3978
  709TIP3    H126322   3.661   1.398  19.360  1.9540  0.4572 -0.0678
  709TIP3    H226323   3.620   1.252  19.363 -0.6572  1.1582  0.4304
  710TIP3   OH226324   0.997   1.846  20.313  0.0287 -0.5483 -0.3208
  710TIP3    H126325   0.912   1.809  20.289 -0.0686  0.1193 -1.0368
  710TIP3    H226326   1.061   1.794  20.265 -0.0259 -0.5884 -0.3501
  711TIP3   OH226327   0.624   4.293  19.352 -0.4321 -0.0848 -1.0209
  711TIP3    H126328   0.582   4.359  19.407  0.1139 -0.0895 -0.5866
  711TIP3    H226329   0.656   4.227  19.414 -2.4191 -1.6336 -1.5551
  712TIP3   OH226330   1.300   5.882  19.870 -0.3344  0.2192 -0.6988
  712TIP3    H126331   1.270   5.896  19.780  0.0794  0.2405 -0.8361
  712TIP3    H226332   1.323   5.970  19.901 -0.4335  0.2064 -0.5880
  713TIP3   OH226333   4.435   3.654  20.183 -0.2794 -0.0241 -0.4314
  713TIP3    H126334   4.408   3.665  20.092 -1.7001 -0.8093 -0.1345
  713TIP3    H226335   4.359   3.614  20.226  0.6190 -0.3167  0.9448
  714TIP3   OH226336   5.580   1.654  18.436  0.2754 -0.3414 -0.3378
  714TIP3    H126337   5.628   1.571  18.433  0.2407 -0.4232  1.0843
  714TIP3    H226338   5.495   1.633  18.397  0.1747 -1.0351  0.2413
  715TIP3   OH226339   1.264   4.439  19.361  0.4035  0.0190  0.2610
  715TIP3    H126340   1.179   4.482  19.359  0.5089  0.2365  0.3623
  715TIP3    H226341   1.251   4.359  19.411  0.0887 -0.3163 -0.3483
  716TIP3   OH226342   4.897   4.773  17.514  1.0803  0.7962  0.4531
  716TIP3    H126343   4.928   4.724  17.437 -1.9092 -0.4217 -0.1055
  716TIP3    H226344   4.899   4.864  17.486 -1.6108  0.2816 -1.8676
  717TIP3   OH226345   6.568   5.065  19.867 -0.2913 -0.2518  0.1635
  717TIP3    H126346   6.500   5.065  19.934 -0.6490 -1.4094 -0.1633
  717TIP3    H226347   6.520   5.065  19.784 -0.0399 -2.9649 -0.0981
  718TIP3   OH226348   3.113   4.484  20.399 -0.3431  0.0199  0.5106
  718TIP3    H126349   3.050   4.412  20.401 -1.5546  1.0101 -0.2327
  718TIP3    H226350   3.069   4.554  20.448  1.3660 -0.1341  2.3800
  719TIP3   OH226351   5.146   2.033  20.165 -0.2763  0.2880  0.4859
  719TIP3    H126352   5.146   1.946  20.125 -1.1510  0.0781  0.9289
  719TIP3    H226353   5.196   2.087  20.103  0.0470 -0.4630  0.0745
  720TIP3   OH226354   0.523   1.047  20.206 -0.0696 -0.0347  0.5120
  720TIP3    H126355   0.547   1.139  20.215 -0.2219 -0.0432  1.0364
  720TIP3    H226356   0.588   1.000  20.258  0.0868 -0.2353  0.1379
  721TIP3   OH226357   1.070   0.683  19.750 -0.5612 -0.0755  0.2092
  721TIP3    H126358   1.145   0.699  19.807 -1.5226  0.4424  1.3935
  721TIP3    H226359   1.064   0.588  19.743  0.5366 -0.1188 -0.3950
  722TIP3   OH226360   0.277   2.740  18.515  0.3025  0.3149 -0.3261
  722TIP3    H126361   0.187   2.748  18.484  0.9774  2.4512 -1.9353
  722TIP3    H226362   0.304   2.829  18.536  1.2935 -0.5377  2.6144
  723TIP3   OH226363   3.122   1.540  16.952  0.0156  0.6156 -0.2228
  723TIP3    H126364   3.093   1.630  16.941 -0.1404  0.7036  0.7531
  723TIP3    H226365   3.154   1.514  16.866 -1.8761  0.8972 -1.0809
  724TIP3   OH226366   6.232   3.023  20.193 -0.5239 -0.1912 -0.5455
  724TIP3    H126367   6.162   2.958  20.195  0.4995 -1.3270  1.5235
  724TIP3    H226368   6.192   3.101  20.233 -0.9811 -0.4125 -0.5606
  725TIP3   OH226369   5.133   2.620  20.704  0.0825  0.6814  0.3324
  725TIP3    H126370   5.228   2.632  20.701  0.4685 -1.9383 -2.0434
  725TIP3    H226371   5.102   2.654  20.620 -1.4772  3.3545  1.8424
  726TIP3   OH226372   1.509   0.822  18.911 -0.1820  0.0495  0.9487
  726TIP3    H126373   1.453   0.763  18.960 -0.2086  0.0777  0.9529
  726TIP3    H226374   1.531   0.892  18.973 -1.0691  0.6444  0.6122
  727TIP3   OH226375   1.667   3.366  18.126 -0.2939 -0.4158  0.2592
  727TIP3    H126376   1.651   3.276  18.097  0.1144 -0.4564  0.1441
  727TIP3    H226377   1.760   3.380  18.108  0.0678 -0.5620  1.8829
  728TIP3   OH226378   3.732   3.305  19.210 -0.3373 -0.1795 -0.2168
  728TIP3    H126379   3.781   3.378  19.247 -1.8483  0.6766  0.1889
  728TIP3    H226380   3.744   3.312  19.116 -1.1650  1.1495 -0.2477
  729TIP3   OH226381   0.724   4.397  17.766 -0.0516  0.6430  0.0642
  729TIP3    H126382   0.791   4.349  17.717 -0.8969  0.1769 -0.6517
  729TIP3    H226383   0.751   4.388  17.857  0.3837 -0.3048 -0.1437
  730TIP3   OH226384   5.681   5.000  17.235  0.4221 -0.1342 -0.0554
  730TIP3    H126385   5.642   5.088  17.235 -0.0018 -0.3239 -0.4895
  730TIP3    H226386   5.751   5.005  17.169 -0.1652 -0.3707 -0.7032
  731TIP3   OH226387   4.964   6.222  19.996 -0.2887 -0.4482  0.3075
  731TIP3    H126388   5.003   6.217  20.083 -0.5226 -1.3790  0.3646
  731TIP3    H226389   4.979   6.312  19.969 -0.7782  0.0424  1.5763
  732TIP3   OH226390   0.043   2.630  19.607 -0.9314 -0.1838  0.0336
  732TIP3    H126391  -0.026   2.567  19.586 -0.8104 -0.0259 -0.8933
  732TIP3    H226392   0.011   2.675  19.686 -1.8894 -0.1163 -0.3751
  733TIP3   OH226393   4.064   0.677  17.694 -0.3240 -0.4301  0.4902
  733TIP3    H126394   4.011   0.745  17.651 -0.1278 -0.3763  0.3334
  733TIP3    H226395   4.152   0.713  17.697 -0.2777 -0.5563  0.6769
  734TIP3   OH226396   1.854   3.158  18.352 -0.3476  0.2011 -0.2919
  734TIP3    H126397   1.935   3.194  18.388 -0.4591  0.7358 -0.5680
  734TIP3    H226398   1.854   3.186  18.260 -1.2180  0.8882 -0.1030
  735TIP3   OH226399   3.835   2.729  19.431 -0.4694  0.1388 -0.0078
  735TIP3    H126400   3.925   2.753  19.406 -0.0267 -0.8796  0.5667
  735TIP3    H226401   3.844   2.647  19.479 -1.9548 -1.4965 -2.3125
  736TIP3   OH226402   5.174   0.040  19.042 -0.4275  0.3058  0.2053
  736TIP3    H126403   5.202  -0.043  19.003 -2.5257 -1.0419  1.3677
  736TIP3    H226404   5.133   0.088  18.969 -1.8395 -0.9991  0.0706
  737TIP3   OH226405   5.798   0.175  19.928 -0.5665  0.2310 -1.1808
  737TIP3    H126406   5.722   0.167  19.870  0.7926 -1.2642 -2.9142
  737TIP3    H226407   5.792   0.098  19.985  0.0557 -0.3947 -1.9233
  738TIP3   OH226408   1.439   1.379  19.389  0.7063 -0.2354  0.3714
  738TIP3    H126409   1.348   1.351  19.386  0.9300 -1.4151  2.5701
  738TIP3    H226410   1.442   1.443  19.460  1.4068  0.6556 -0.4332
  739TIP3   OH226411   5.362   5.423  18.377  0.5218 -0.3537  0.0486
  739TIP3    H126412   5.279   5.457  18.344  1.2917  0.4599 -1.1325
  739TIP3    H226413   5.373   5.466  18.462  1.3230  2.2985 -1.2590
  740TIP3   OH226414   6.567   5.316  20.785 -0.5159 -0.1056 -0.5120
  740TIP3    H126415   6.653   5.356  20.783  0.3037 -1.7717 -1.2288
  740TIP3    H226416   6.510   5.381  20.824  1.4006  0.3852  1.6481
  741TIP3   OH226417   2.582   4.398  18.629  0.6239  0.1162  0.2273
  741TIP3    H126418   2.666   4.357  18.609  0.6883 -0.1821  1.0773
  741TIP3    H226419   2.519   4.326  18.626  0.4389  0.2876 -0.1125
  742TIP3   OH226420   4.606   1.759  19.131 -0.3756 -0.1262 -0.2161
  742TIP3    H126421   4.552   1.753  19.209 -2.0369  0.2005 -1.2847
  742TIP3    H226422   4.554   1.719  19.062  1.0556 -0.4387 -1.1713
  743TIP3   OH226423   2.631   3.015  20.978  0.0198 -0.2689 -0.4322
  743TIP3    H126424   2.684   2.995  21.056 -1.1118 -0.2017  0.3819
  743TIP3    H226425   2.549   2.968  20.992  0.3074 -1.3903 -2.2808
  744TIP3   OH226426   1.132   2.226  18.897 -0.2033  0.1422  0.4045
  744TIP3    H126427   1.184   2.189  18.968  0.1067 -0.4508 -0.1199
  744TIP3    H226428   1.183   2.302  18.868 -0.8958  1.0880  1.5552
  745TIP3   OH226429   6.302   6.559  18.956  0.5889 -1.3873 -0.4957
  745TIP3    H126430   6.285   6.644  18.995 -1.9917 -1.7909 -0.5743
  745TIP3    H226431   6.397   6.553  18.952  0.8484  1.1888  0.1236
  746TIP3   OH226432   5.136   0.796  18.944  0.0541  0.1434 -0.3309
  746TIP3    H126433   5.165   0.865  19.003 -0.5853  0.3968 -0.3010
  746TIP3    H226434   5.205   0.730  18.948  1.9491  1.8339 -2.2319
  747TIP3   OH226435   5.071   5.657  19.848 -0.2410  0.1217 -0.0260
  747TIP3    H126436   5.064   5.751  19.862 -1.2391 -0.1000  1.0319
  747TIP3    H226437   5.165   5.639  19.855 -0.2205  0.7567  1.7389
  748TIP3   OH226438   3.603   3.681  20.255 -0.4831  0.0187  0.2262
  748TIP3    H126439   3.646   3.603  20.219 -1.6520 -0.1307 -0.8980
  748TIP3    H226440   3.526   3.647  20.300  0.1720  0.3523  1.6602
  749TIP3   OH226441   2.534   4.284  20.397  0.3845  0.2555  0.4142
  749TIP3    H126442   2.555   4.221  20.466  0.5906 -1.7165 -1.3323
  749TIP3    H226443   2.447   4.256  20.365  0.8947  0.2152 -1.0231
  750TIP3   OH226444   3.813   2.454  18.902  0.0347 -0.2143  0.2242
  750TIP3    H126445   3.866   2.377  18.922  0.0943 -0.0971  0.5351
  750TIP3    H226446   3.766   2.431  18.822  0.6437 -0.2706 -0.1247
  751TIP3   OH226447   4.291   2.611  20.931 -0.0050  0.8198 -0.0945
  751TIP3    H126448   4.292   2.707  20.924 -2.2013  1.0437  1.6603
  751TIP3    H226449   4.358   2.582  20.869  1.9744  3.5459  0.5678
  752TIP3   OH226450   4.849   2.857  20.484  0.2545  0.3782  0.2725
  752TIP3    H126451   4.839   2.786  20.548 -1.2975 -1.0700 -1.4602
  752TIP3    H226452   4.934   2.842  20.443 -0.6685 -1.4483 -1.0987
  753TIP3   OH226453   3.580   4.814  18.739 -0.2034  0.6264  0.0417
  753TIP3    H126454   3.570   4.806  18.644 -0.5151  0.5490  0.0814
  753TIP3    H226455   3.501   4.773  18.775 -0.2857  1.0222  0.3211
  754TIP3   OH226456   3.428   6.392  18.701  0.3220 -0.2843 -0.5035
  754TIP3    H126457   3.434   6.318  18.641 -3.7624 -0.8833 -0.4385
  754TIP3    H226458   3.407   6.467  18.644 -0.3578 -0.1993 -0.1535
  755TIP3   OH226459   4.293   1.928  20.700  0.0300 -0.6466  0.0430
  755TIP3    H126460   4.307   2.010  20.652  0.0218 -1.2204 -0.9639
  755TIP3    H226461   4.212   1.944  20.750 -0.6873 -0.4631 -1.1248
  756TIP3   OH226462   3.811   3.305  20.840  0.5870  0.2737  0.8976
  756TIP3    H126463   3.825   3.333  20.750  1.3324 -0.6754  0.7047
  756TIP3    H226464   3.821   3.385  20.892 -1.6965  1.2359  0.0230
  757TIP3   OH226465   5.482   3.647  20.308 -0.4530  0.5855 -0.7370
  757TIP3    H126466   5.422   3.592  20.257 -0.2265 -0.3680 -0.0108
  757TIP3    H226467   5.427   3.684  20.377 -0.1777 -0.5051  0.0910
  758TIP3   OH226468   6.248   2.416  19.366 -0.2801 -0.5750  0.2119
  758TIP3    H126469   6.258   2.434  19.273  3.0664  0.0836  0.5756
  758TIP3    H226470   6.232   2.502  19.405 -0.1703 -0.6275  0.3758
  759TIP3   OH226471   1.589   0.889  17.472 -0.1314  0.0474  0.5824
  759TIP3    H126472   1.563   0.850  17.556  0.4725  0.1203  0.8099
  759TIP3    H226473   1.682   0.865  17.463  0.3717  1.7429  0.9171
  760TIP3   OH226474   4.615   6.198  17.771  0.4016 -0.2575  0.1927
  760TIP3    H126475   4.573   6.167  17.690  2.1432  0.5806 -1.0880
  760TIP3    H226476   4.588   6.290  17.778  2.1505  0.3837 -0.8124
  761TIP3   OH226477   2.875   2.449  18.540  0.2641 -0.5079 -0.0362
  761TIP3    H126478   2.891   2.379  18.476 -1.3224 -0.8628 -0.0791
  761TIP3    H226479   2.855   2.525  18.487 -0.2689 -0.6013  0.0307
  762TIP3   OH226480   4.654   2.262  20.959  0.1823 -0.0246 -0.0034
  762TIP3    H126481   4.639   2.177  20.919 -1.5280  0.3920 -0.2972
  762TIP3    H226482   4.729   2.247  21.017 -0.0576 -1.7154 -0.0663
  763TIP3   OH226483   5.487   5.047  20.249 -0.2645  0.0060 -0.1080
  763TIP3    H126484   5.398   5.015  20.233 -0.9448  2.1764 -0.9318
  763TIP3    H226485   5.484   5.083  20.338  0.0559 -0.6571  0.1860
  764TIP3   OH226486   0.095   3.223  18.861 -0.3069 -0.6928 -0.3414
  764TIP3    H126487   0.103   3.163  18.936 -0.6163 -0.7355 -0.3437
  764TIP3    H226488   0.182   3.221  18.821 -0.3260 -1.1782 -0.3690
  765TIP3   OH226489   5.468   5.824  20.157  0.0724 -0.4192  0.0384
  765TIP3    H126490   5.419   5.799  20.236 -0.1821 -1.1580 -0.3403
  765TIP3    H226491   5.414   5.891  20.116 -1.0669 -1.7899 -0.7955
  766TIP3   OH226492   6.019   0.068  18.784  0.2395 -0.2070  0.2809
  766TIP3    H126493   6.017   0.127  18.708  1.2645 -0.2658  0.1948
  766TIP3    H226494   5.970   0.115  18.851  0.4022  0.4149 -0.0227
  767TIP3   OH226495   5.975   1.457  19.628 -0.4701  0.4359 -0.7972
  767TIP3    H126496   6.056   1.461  19.577 -0.6423  0.6948 -1.0490
  767TIP3    H226497   5.984   1.377  19.680  0.3073  0.8772 -0.2294
  768TIP3   OH226498   1.524   5.491  19.786 -0.2471  0.4736  0.3082
  768TIP3    H126499   1.593   5.556  19.803  0.0635 -0.0315  0.9703
  768TIP3    H226500   1.469   5.492  19.864 -0.4876  0.2331  0.1454
  769TIP3   OH226501   6.336   0.349  20.349  0.0857 -0.0655 -0.7098
  769TIP3    H126502   6.336   0.421  20.285 -0.5037 -0.4414 -1.1344
  769TIP3    H226503   6.382   0.278  20.304  0.1848 -0.1387 -0.4905
  770TIP3   OH226504   2.114   0.292  18.634 -0.4478 -0.3015 -0.2304
  770TIP3    H126505   2.019   0.284  18.639 -0.4898  0.6492  0.7584
  770TIP3    H226506   2.132   0.297  18.540 -1.6759  2.5454 -0.4160
  771TIP3   OH226507   4.414   3.841  19.456  0.0246 -0.0337 -0.0124
  771TIP3    H126508   4.372   3.756  19.473  1.2465 -0.9790 -1.5464
  771TIP3    H226509   4.350   3.888  19.403 -0.6605  0.0437  0.8444
  772TIP3   OH226510   3.651   3.128  20.497  0.2861  0.0533  0.3959
  772TIP3    H126511   3.596   3.111  20.421 -2.2736  0.1418  2.0939
  772TIP3    H226512   3.718   3.060  20.495  1.4843  1.1435 -2.8797
  773TIP3   OH226513   1.628   5.980  19.888  0.2955 -0.0351  0.9403
  773TIP3    H126514   1.595   6.066  19.860  1.6177  0.4951  0.9297
  773TIP3    H226515   1.698   6.000  19.950 -0.6435 -1.1633  2.4253
  774TIP3   OH226516   4.001   2.587  20.309  0.4633  0.0095  0.0342
  774TIP3    H126517   3.942   2.609  20.382  1.6098 -1.0371  1.3169
  774TIP3    H226518   3.959   2.626  20.232 -0.8896  0.9743  1.2110
  775TIP3   OH226519   4.906   0.266  20.082 -0.0442  0.2147  0.5334
  775TIP3    H126520   4.837   0.230  20.137 -0.8069  1.5411  0.5081
  775TIP3    H226521   4.881   0.241  19.993  0.4582 -0.7744  0.6594
  776TIP3   OH226522   1.574   5.331  18.484 -0.2182 -0.1275 -0.5981
  776TIP3    H126523   1.531   5.272  18.423 -1.7551  0.1993  0.1236
  776TIP3    H226524   1.529   5.318  18.567  2.2837 -1.0897  0.7405
  777TIP3   OH226525   5.232   4.730  18.979  0.0016  0.1031  0.7319
  777TIP3    H126526   5.173   4.656  18.961 -1.7039  1.5291  0.0915
  777TIP3    H226527   5.196   4.771  19.057 -0.5010  1.5702 -0.2254
  778TIP3   OH226528   2.213   5.894  19.281  0.1371 -0.1470 -0.9637
  778TIP3    H126529   2.157   5.929  19.212  0.3705 -0.9316 -1.5664
  778TIP3    H226530   2.153   5.881  19.355  0.0539  1.5055 -0.7042
  779TIP3   OH226531   3.187   5.042  19.733  0.2548 -0.9618  0.3937
  779TIP3    H126532   3.275   5.047  19.771  0.4811 -1.9760  0.0115
  779TIP3    H226533   3.187   5.109  19.665  1.2131 -1.8926 -0.5581
  780TIP3   OH226534   3.931   2.324  20.168 -0.1795 -0.2271 -0.2593
  780TIP3    H126535   3.981   2.397  20.205 -0.2210  0.4230 -1.4380
  780TIP3    H226536   3.992   2.250  20.168  0.0180 -0.0769  0.4787
  781TIP3   OH226537   6.038   3.761  19.380 -0.1784  0.2829 -0.0834
  781TIP3    H126538   6.064   3.824  19.313 -3.0657  2.1482  0.3683
  781TIP3    H226539   6.072   3.677  19.349  2.3841  1.7275 -1.5525
  782TIP3   OH226540   4.955   2.148  19.589 -0.2197 -0.0628 -0.3134
  782TIP3    H126541   4.959   2.067  19.539 -4.5161 -0.2436 -0.7612
  782TIP3    H226542   4.967   2.217  19.525  1.9696 -0.2436 -0.1706
  783TIP3   OH226543   4.127   5.259  19.280  0.2043 -0.0296 -0.8859
  783TIP3    H126544   4.132   5.203  19.203  2.0630 -0.1621 -0.6991
  783TIP3    H226545   4.183   5.334  19.260 -0.2515  0.5369 -0.1306
  784TIP3   OH226546   2.337   6.298  18.006  0.1571 -0.5426  0.3977
  784TIP3    H126547   2.290   6.370  18.048  1.8142 -0.3380  2.0073
  784TIP3    H226548   2.318   6.222  18.061  0.9815 -0.6397  0.5614
  785TIP3   OH226549   6.384   0.524  20.143  0.0032  0.2062  0.3622
  785TIP3    H126550   6.397   0.612  20.180 -0.4938 -0.2403  1.6483
  785TIP3    H226551   6.471   0.497  20.114  0.6978  0.0671  2.4180
  786TIP3   OH226552   2.462   3.004  17.048 -0.2276 -1.1532  0.3916
  786TIP3    H126553   2.480   3.033  16.959  1.5745 -1.6827  0.5383
  786TIP3    H226554   2.463   2.909  17.043 -1.4819 -1.1917  0.7397
  787TIP3   OH226555   0.683   2.564  20.005 -0.8062 -0.0955 -0.3741
  787TIP3    H126556   0.771   2.598  20.019 -0.1676 -1.8787  0.3581
  787TIP3    H226557   0.652   2.608  19.926  0.3541  1.2688 -0.1115
  788TIP3   OH226558   5.266   2.423  19.858  0.4249 -0.2931  0.2748
  788TIP3    H126559   5.249   2.333  19.830  0.8620 -0.1103 -0.6452
  788TIP3    H226560   5.204   2.439  19.928 -0.3659 -0.9718 -0.2552
  789TIP3   OH226561   6.117   6.664  17.863  0.3171  0.2170 -0.1547
  789TIP3    H126562   6.118   6.667  17.767  1.7120  0.3844 -0.1496
  789TIP3    H226563   6.094   6.573  17.884 -1.7579  0.5828 -0.6045
  790TIP3   OH226564   2.464   3.014  19.189 -0.7410  0.4593  0.0522
  790TIP3    H126565   2.441   2.959  19.114  0.0093  1.1430 -0.6980
  790TIP3    H226566   2.438   2.963  19.265  0.8312 -1.4110 -0.5742
  791TIP3   OH226567   0.229   1.278  20.482  0.0788  0.1903 -0.3080
  791TIP3    H126568   0.302   1.232  20.525 -0.4115  0.4755  0.8590
  791TIP3    H226569   0.231   1.246  20.392 -0.8210 -2.8877  0.6565
  792TIP3   OH226570   0.063   5.394  20.043  0.2582 -0.1111 -0.0379
  792TIP3    H126571   0.029   5.368  20.129 -1.1299  3.8051  0.8138
  792TIP3    H226572   0.142   5.443  20.063  1.6807 -1.7352 -1.3635
  793TIP3   OH226573   0.474   4.003  17.466 -0.3971 -0.4637  0.8021
  793TIP3    H126574   0.540   3.970  17.405 -1.8666 -0.1675 -1.0379
  793TIP3    H226575   0.521   4.011  17.549  1.4353 -1.8194 -0.0190
  794TIP3   OH226576   1.069   0.158  18.706 -0.0271  0.0907  0.0462
  794TIP3    H126577   1.105   0.121  18.625  1.4296  2.0835 -0.2732
  794TIP3    H226578   0.975   0.165  18.689  0.0313 -0.9620 -0.8589
  795TIP3   OH226579   5.969   4.270  19.294  0.3595  0.1558 -0.5002
  795TIP3    H126580   5.951   4.191  19.346 -0.6693 -0.5164 -1.8215
  795TIP3    H226581   5.885   4.316  19.291  0.6681  0.7151 -0.7376
  796TIP3   OH226582   4.915   0.063  20.660 -0.5467 -0.2676 -0.4606
  796TIP3    H126583   5.011   0.063  20.661 -0.5267 -0.7883 -1.2019
  796TIP3    H226584   4.890   0.122  20.730  0.3280  1.4612 -1.5357
  797TIP3   OH226585   5.574   3.921  19.439  0.4214  0.1545 -0.0465
  797TIP3    H126586   5.667   3.938  19.459  0.7018  0.9775 -1.8357
  797TIP3    H226587   5.531   3.922  19.524  2.1097 -0.6634  0.8774
  798TIP3   OH226588   1.289   3.550  18.757 -0.4529  0.9985  0.0015
  798TIP3    H126589   1.343   3.485  18.801 -0.6416  2.9150  3.3722
  798TIP3    H226590   1.341   3.577  18.681  0.5304 -1.4736 -0.2966
  799TIP3   OH226591   5.473   6.447  18.111  0.0564 -0.0745  0.2348
  799TIP3    H126592   5.528   6.401  18.175 -0.1357  0.2459  0.6417
  799TIP3    H226593   5.384   6.417  18.131 -0.1559  0.9435  0.9432
  800TIP3   OH226594   3.275   2.395  18.352 -0.0328 -0.3273 -0.2041
  800TIP3    H126595   3.263   2.345  18.434 -0.2346 -0.6447 -0.4235
  800TIP3    H226596   3.361   2.368  18.320  0.2118  0.0901  0.1043
  801TIP3   OH226597   0.114   2.854  19.787  0.4736 -0.9908  1.3006
  801TIP3    H126598   0.130   2.903  19.706  0.2192 -1.3883  1.0004
  801TIP3    H226599   0.019   2.845  19.791  0.2151  1.5875  3.2142
  802TIP3   OH226600   2.627   5.864  19.667 -0.5194 -0.3315  0.0000
  802TIP3    H126601   2.562   5.901  19.608 -1.6267 -2.3747 -0.1558
  802TIP3    H226602   2.687   5.817  19.609 -0.2928 -0.4542  0.3314
  803TIP3   OH226603   4.256   4.254  18.855  0.2335 -0.1885  0.1081
  803TIP3    H126604   4.303   4.185  18.903 -0.2580  0.5180  1.6363
  803TIP3    H226605   4.239   4.322  18.920 -1.5180  0.2746 -0.7768
  804TIP3   OH226606   6.613   6.454  18.242  0.0122  0.1279 -0.0707
  804TIP3    H126607   6.680   6.497  18.189  0.3662  0.1874  0.4149
  804TIP3    H226608   6.563   6.527  18.280  0.4670  0.1111  0.5691
  805TIP3   OH226609   5.650   3.692  18.198 -0.7073 -0.5301 -0.5498
  805TIP3    H126610   5.599   3.616  18.228  0.0222 -0.2610  1.5237
  805TIP3    H226611   5.715   3.654  18.138 -1.7410 -1.2157 -1.2706
  806TIP3   OH226612   0.981   2.286  19.428 -0.0913 -0.6177 -0.2438
  806TIP3    H126613   0.967   2.375  19.458  1.1438 -0.4744 -0.0369
  806TIP3    H226614   1.063   2.259  19.469 -0.7994 -2.1116  0.2818
  807TIP3   OH226615   5.754   3.583  19.496 -0.4442  0.5042 -0.1890
  807TIP3    H126616   5.803   3.627  19.566 -1.5594 -0.1366  1.0498
  807TIP3    H226617   5.662   3.589  19.524 -0.9453  0.5171 -1.7800
  808TIP3   OH226618   0.981   0.570  20.616 -0.3864 -0.0504 -0.1803
  808TIP3    H126619   0.973   0.656  20.657 -1.0533 -0.8267  1.4181
  808TIP3    H226620   1.046   0.582  20.547  1.1256  1.2416  1.3813
  809TIP3   OH226621   0.962   4.694  19.957 -0.6316 -0.1332 -0.4928
  809TIP3    H126622   0.909   4.614  19.966 -0.8753  0.0828 -0.0058
  809TIP3    H226623   0.905   4.764  19.987 -0.6691  0.3268 -1.6037
  810TIP3   OH226624   1.896   5.784  20.659  0.1175 -0.9670  0.3954
  810TIP3    H126625   1.851   5.866  20.681  1.0632 -0.4908  0.5898
  810TIP3    H226626   1.979   5.812  20.621  0.5052 -1.8441  0.5842
  811TIP3   OH226627   6.120   2.234  19.792 -0.3945 -0.0599  0.3309
  811TIP3    H126628   6.078   2.191  19.867 -1.1068  0.7899  0.4275
  811TIP3    H226629   6.048   2.269  19.740  0.1642  1.0850  0.2908
  812TIP3   OH226630   5.281   2.830  19.989 -0.1489 -0.1028  0.2726
  812TIP3    H126631   5.211   2.825  20.054  0.2543 -0.3270  0.6906
  812TIP3    H226632   5.278   2.746  19.945  0.6006 -0.5462  1.0615
  813TIP3   OH226633   5.078   0.332  20.364  0.5542  0.0821 -0.1897
  813TIP3    H126634   5.165   0.363  20.339 -0.7135  2.7121 -1.8342
  813TIP3    H226635   5.063   0.256  20.307  1.5662 -0.1059 -0.2350
  814TIP3   OH226636   5.025   1.320  20.013  0.1378  0.4196  0.2432
  814TIP3    H126637   5.015   1.232  19.976 -0.3265  1.1142 -1.4176
  814TIP3    H226638   5.119   1.338  20.008  0.0368  0.7118 -1.2542
  815TIP3   OH226639   0.066   6.133  18.310  0.3496  0.6694  0.0194
  815TIP3    H126640   0.068   6.164  18.220 -0.8566  0.5079 -0.0784
  815TIP3    H226641  -0.024   6.103  18.323  1.2292 -2.1228  0.3354
  816TIP3   OH226642   0.924   1.884  19.044  0.5624  0.7067 -0.0786
  816TIP3    H126643   0.867   1.877  18.968 -0.7909  2.0476  0.7620
  816TIP3    H226644   1.011   1.902  19.008  0.2461 -0.2122 -1.3387
  817TIP3   OH226645   0.915   1.493  19.443 -0.3392 -0.1189  0.1569
  817TIP3    H126646   0.869   1.409  19.429  0.1681 -0.6575  1.5893
  817TIP3    H226647   0.873   1.553  19.381 -1.6865 -1.0717  0.0855
  818TIP3   OH226648   0.243   6.704  18.858  0.1113 -0.4019 -0.5485
  818TIP3    H126649   0.197   6.672  18.781 -0.9362 -1.3990  0.4579
  818TIP3    H226650   0.328   6.660  18.856 -0.6584 -2.0069 -0.1131
  819TIP3   OH226651   4.377   4.005  18.547  0.1389 -0.0810  0.0081
  819TIP3    H126652   4.283   4.006  18.530  0.1605 -2.2040 -0.5725
  819TIP3    H226653   4.415   4.061  18.479 -0.6998  0.9517  0.3684
  820TIP3   OH226654   0.705   6.023  17.709 -0.2150 -0.2159  0.3708
  820TIP3    H126655   0.790   6.034  17.752 -0.8894 -1.1537  2.0525
  820TIP3    H226656   0.720   6.051  17.619  2.3225 -1.9261  0.1554
  821TIP3   OH226657   5.255   6.514  19.546  0.1174 -0.1374  0.2676
  821TIP3    H126658   5.298   6.429  19.552  1.3725  0.5425  1.4651
  821TIP3    H226659   5.188   6.502  19.479 -0.8927 -2.5489  1.5742
  822TIP3   OH226660   0.093   0.219  18.073  0.5393  0.3802  0.3944
  822TIP3    H126661   0.052   0.291  18.025  0.5436  2.0665  2.7169
  822TIP3    H226662   0.022   0.184  18.128  1.2525  0.7109  1.5572
  823TIP3   OH226663   4.876   5.369  17.508  0.1514  0.1575  0.6998
  823TIP3    H126664   4.809   5.303  17.488  0.1853  0.0984  0.7808
  823TIP3    H226665   4.838   5.420  17.579 -1.7968  3.0033 -2.0839
  824TIP3   OH226666   6.700   4.510  16.962 -0.0508 -0.1903  0.2718
  824TIP3    H126667   6.649   4.590  16.976  0.0544  0.4597 -2.4934
  824TIP3    H226668   6.779   4.522  17.015 -1.5049 -0.0113  2.5065
  825TIP3   OH226669   4.778   6.669  19.443 -0.1464 -0.6393  0.3211
  825TIP3    H126670   4.684   6.650  19.454 -0.4546  0.2693 -0.6471
  825TIP3    H226671   4.795   6.743  19.502 -0.0120 -0.8617  0.5634
  826TIP3   OH226672   2.478   6.296  20.666 -0.0953 -0.2648  0.5695
  826TIP3    H126673   2.408   6.281  20.730 -1.6715  0.0014 -1.0139
  826TIP3    H226674   2.475   6.220  20.609  1.5066 -0.6466  0.9593
  827TIP3   OH226675   1.966   6.081  18.457 -0.2880  0.5945  0.0943
  827TIP3    H126676   2.029   6.044  18.520 -0.0262  1.5191  0.3954
  827TIP3    H226677   1.927   6.155  18.503 -2.9296 -0.9799  0.5894
  828TIP3   OH226678   5.526   5.156  19.647 -0.5604  0.1415  0.1702
  828TIP3    H126679   5.589   5.221  19.677  0.7134 -0.9054 -0.1327
  828TIP3    H226680   5.577   5.076  19.636 -1.6955 -0.4404 -1.2621
  829TIP3   OH226681   0.778   2.512  18.482 -0.2720  0.2161 -0.2639
  829TIP3    H126682   0.772   2.570  18.406 -1.6871  0.0859 -0.2733
  829TIP3    H226683   0.687   2.496  18.507  0.1173 -1.4419  0.1703
  830TIP3   OH226684   4.836   4.981  20.760 -0.3632  0.0091  0.6045
  830TIP3    H126685   4.872   5.066  20.785  0.0516 -0.4249  1.5525
  830TIP3    H226686   4.748   4.980  20.798 -0.6044  0.2638  0.0509
  831TIP3   OH226687   2.071   2.368  20.527 -0.0141 -0.0406  0.1614
  831TIP3    H126688   2.098   2.279  20.552  0.7077  0.5010  1.3499
  831TIP3    H226689   2.112   2.425  20.591 -2.0667  1.0204  0.6323
  832TIP3   OH226690   3.908   5.000  18.165  0.2609  0.0987  0.0434
  832TIP3    H126691   3.920   4.939  18.237  0.9177  1.0377  0.7495
  832TIP3    H226692   3.898   4.944  18.088 -2.0845 -0.9871  1.0286
  833TIP3   OH226693   5.014   1.613  20.217  0.1559  0.7340  0.2087
  833TIP3    H126694   4.988   1.548  20.151 -2.9936 -0.6959  2.5988
  833TIP3    H226695   4.945   1.680  20.213  0.9089  1.5735  0.8570
  834TIP3   OH226696   4.639   5.393  17.904  0.1882 -0.4749  0.3604
  834TIP3    H126697   4.577   5.384  17.831  0.8726  0.5597 -0.3840
  834TIP3    H226698   4.724   5.370  17.865  0.5256 -0.1264  0.8849
  835TIP3   OH226699   1.046   0.555  20.184  0.3880  0.0862 -0.2387
  835TIP3    H126700   1.131   0.581  20.149 -0.3295  0.0496 -2.0747
  835TIP3    H226701   1.057   0.463  20.209  1.0086  0.2225  0.0065
  836TIP3   OH226702   5.951   5.239  19.248  0.2255  0.6759 -0.5706
  836TIP3    H126703   6.042   5.247  19.218  0.2267  0.5943 -0.5896
  836TIP3    H226704   5.954   5.268  19.339  0.4888 -0.4249 -0.2185
  837TIP3   OH226705   4.655   0.549  19.069 -0.5064  0.2924  0.6321
  837TIP3    H126706   4.612   0.625  19.032  1.4418  0.5421 -1.3202
  837TIP3    H226707   4.632   0.477  19.010 -0.7974 -0.2544  1.3890
  838TIP3   OH226708   3.310   2.705  17.372  0.4765 -0.2871 -0.0511
  838TIP3    H126709   3.342   2.711  17.282  1.2754 -0.3576  0.2251
  838TIP3    H226710   3.216   2.721  17.364  0.7226  0.9507 -0.7476
  839TIP3   OH226711   0.823   6.438  19.229 -0.0489  0.8179 -0.0855
  839TIP3    H126712   0.838   6.522  19.272 -0.6928  0.4436  0.8978
  839TIP3    H226713   0.871   6.375  19.283 -0.7542  0.3599  0.0101
  840TIP3   OH226714   0.973   4.173  19.435 -0.5040 -0.1036 -0.5981
  840TIP3    H126715   1.040   4.106  19.446  0.0972  0.5728  0.0300
  840TIP3    H226716   0.892   4.125  19.421 -0.4089 -1.0217  1.6026
  841TIP3   OH226717   4.432   3.314  17.222  0.8838 -0.3051 -0.6861
  841TIP3    H126718   4.484   3.381  17.177  1.9505 -1.0862 -0.6481
  841TIP3    H226719   4.433   3.342  17.314  0.8181 -0.0499 -0.7619
  842TIP3   OH226720   1.475   3.475  17.981  0.1597 -0.1207 -0.1082
  842TIP3    H126721   1.533   3.439  18.048 -1.1794  1.6460  2.1916
  842TIP3    H226722   1.532   3.525  17.923  1.4482 -2.2340 -0.7401
  843TIP3   OH226723   3.200   6.449  18.199 -0.0608  0.2988  0.0847
  843TIP3    H126724   3.285   6.433  18.159 -0.3535 -3.7326  0.6058
  843TIP3    H226725   3.139   6.450  18.125  0.2302  1.4872 -0.1544
  844TIP3   OH226726   5.981   1.790  18.133 -0.0723  0.6475 -0.1926
  844TIP3    H126727   5.909   1.736  18.100  0.1823  1.2133 -1.7321
  844TIP3    H226728   5.969   1.875  18.091  0.5837  1.2513  0.7967
  845TIP3   OH226729   3.769   0.720  18.197  0.0729 -0.1055 -0.1216
  845TIP3    H126730   3.859   0.739  18.223  0.4510  0.2450 -1.5698
  845TIP3    H226731   3.747   0.791  18.136 -1.1588 -0.2416  0.1425
  846TIP3   OH226732   6.173   2.636  18.135  0.2150  0.7689  0.1535
  846TIP3    H126733   6.113   2.685  18.079 -3.2900 -1.3284  1.7298
  846TIP3    H226734   6.163   2.675  18.222  1.1851  0.3318  0.4833
  847TIP3   OH226735   4.507   0.791  18.508 -0.2071  0.3269  0.1141
  847TIP3    H126736   4.431   0.838  18.475  0.1342  3.4869  3.2194
  847TIP3    H226737   4.562   0.775  18.431 -2.1622  1.5327 -1.6229
  848TIP3   OH226738   3.100   0.399  18.348 -0.5161  0.0223  0.6561
  848TIP3    H126739   3.182   0.447  18.332 -0.8401  0.0410 -1.0972
  848TIP3    H226740   3.118   0.348  18.427  0.5705  1.3745  1.3399
  849TIP3   OH226741   6.260   6.265  18.300 -0.1295  0.1057 -0.0716
  849TIP3    H126742   6.312   6.304  18.370 -0.9097  2.6436 -0.7811
  849TIP3    H226743   6.192   6.215  18.346  0.4525  0.2157  0.9374
  850TIP3   OH226744   4.892   4.764  20.615  0.2560 -0.6705  0.1992
  850TIP3    H126745   4.823   4.702  20.640  0.9277 -1.7432 -0.5275
  850TIP3    H226746   4.861   4.848  20.648 -0.1851 -1.5500  2.1634
  851TIP3   OH226747   6.475   1.274  18.491  0.0900  0.1920 -0.2231
  851TIP3    H126748   6.446   1.346  18.548  1.5650 -1.2547  2.5577
  851TIP3    H226749   6.564   1.300  18.464  0.6705 -0.5805  0.8825
  852TIP3   OH226750   5.563   0.357  19.478 -0.4162 -0.4093  1.1320
  852TIP3    H126751   5.554   0.286  19.542  3.6509 -2.8953 -0.6914
  852TIP3    H226752   5.491   0.343  19.417 -1.5461 -0.9197  2.5193
  853TIP3   OH226753   6.660   2.788  17.250  0.0787 -0.5429 -0.1753
  853TIP3    H126754   6.573   2.815  17.219  0.4930 -0.4587 -1.2791
  853TIP3    H226755   6.649   2.780  17.345 -1.3115 -1.1930 -0.3663
  854TIP3   OH226756   0.347   0.773  17.779  0.0090  0.0309  0.1576
  854TIP3    H126757   0.426   0.778  17.724 -0.1141  0.5950  0.0263
  854TIP3    H226758   0.285   0.722  17.727  0.3124 -0.4985  0.2998
  855TIP3   OH226759   1.363   6.174  19.767 -0.1251 -0.8637 -0.5074
  855TIP3    H126760   1.276   6.211  19.780  0.7790  2.0293 -1.7599
  855TIP3    H226761   1.394   6.154  19.855 -1.2034  0.2627  0.1735
  856TIP3   OH226762   2.561   6.576  19.770  0.1373  0.3739 -0.1420
  856TIP3    H126763   2.492   6.520  19.803  1.2035 -1.7970 -1.3917
  856TIP3    H226764   2.563   6.650  19.831 -0.3844 -1.6256  2.4679
  857TIP3   OH226765   4.727   1.068  19.251  0.0769  0.6892 -0.8931
  857TIP3    H126766   4.695   1.095  19.165 -1.0352 -0.1402 -0.7600
  857TIP3    H226767   4.819   1.092  19.250 -0.4742  3.0878 -1.3284
  858TIP3   OH226768   0.713   2.850  18.319  0.4487 -0.6973 -0.1406
  858TIP3    H126769   0.769   2.830  18.393  1.4474 -0.6971 -0.8695
  858TIP3    H226770   0.772   2.853  18.244 -0.3557  0.4100 -0.7738
  859TIP3   OH226771   4.883   5.395  18.285 -0.1495 -0.1781  0.0955
  859TIP3    H126772   4.922   5.329  18.342  0.9243 -0.8425 -1.3428
  859TIP3    H226773   4.799   5.415  18.325  0.2428 -1.1665  1.4802
  860TIP3   OH226774   5.604   0.813  18.008  0.2345 -0.5849  0.5089
  860TIP3    H126775   5.587   0.884  18.070  0.1815  1.8725 -2.1414
  860TIP3    H226776   5.518   0.788  17.974  0.4477 -0.1373 -0.3877
  861TIP3   OH226777   1.128   0.269  20.269  0.1102  0.1980 -0.3753
  861TIP3    H126778   1.137   0.179  20.302  0.2753 -0.2801 -1.6492
  861TIP3    H226779   1.187   0.272  20.193  0.9125  1.7197  0.2731
  862TIP3   OH226780   4.394   6.207  20.986  0.3428 -0.8478 -0.3671
  862TIP3    H126781   4.312   6.181  21.027 -0.2022  0.0792 -0.8405
  862TIP3    H226782   4.401   6.150  20.909 -0.6539  0.1077 -1.1917
  863TIP3   OH226783   2.454   2.047  18.907  0.4690  0.0711  0.7414
  863TIP3    H126784   2.411   1.996  18.976  0.6049  0.0774  0.8324
  863TIP3    H226785   2.455   2.137  18.942  0.3672  0.1072  0.6489
  864TIP3   OH226786   3.560   5.275  19.841  0.1543 -0.0729 -0.5343
  864TIP3    H126787   3.648   5.245  19.860  0.1643  0.3351  0.0920
  864TIP3    H226788   3.572   5.356  19.792  0.1578  0.9650  1.1064
  865TIP3   OH226789   6.612   6.506  20.444 -0.0043  0.1522  0.0059
  865TIP3    H126790   6.653   6.477  20.525 -3.4469  1.3939  2.4217
  865TIP3    H226791   6.574   6.426  20.406  0.4044 -0.2284  0.3936
  866TIP3   OH226792   1.332   0.562  20.692 -0.1864  0.6040 -0.3347
  866TIP3    H126793   1.264   0.629  20.700  1.3734  2.1383  1.0191
  866TIP3    H226794   1.320   0.526  20.604 -0.1905  3.7627 -1.7827
  867TIP3   OH226795   3.757   2.169  17.301 -0.5033  0.9231 -0.0718
  867TIP3    H126796   3.806   2.214  17.232 -1.6024  1.3692 -0.5836
  867TIP3    H226797   3.706   2.102  17.255  1.7711 -1.5938  0.7424
  868TIP3   OH226798   1.866   3.584  18.665  0.4771  0.6204 -0.1984
  868TIP3    H126799   1.848   3.621  18.579  1.0332  2.9656  0.6168
  868TIP3    H226800   1.829   3.647  18.727 -0.3950 -1.2688  1.3195
  869TIP3   OH226801   1.646   6.022  18.647  0.2636 -0.3501  0.4914
  869TIP3    H126802   1.570   6.078  18.663  0.9482  0.5868  0.5544
  869TIP3    H226803   1.697   6.027  18.728  1.6394  1.0513 -0.4103
  870TIP3   OH226804   3.295   0.879  17.083 -0.2270 -0.3347  0.4546
  870TIP3    H126805   3.390   0.894  17.078 -0.5758  1.8421 -1.5110
  870TIP3    H226806   3.260   0.960  17.118 -1.3476 -1.4124  1.9260
  871TIP3   OH226807   5.603   0.112  19.280 -0.2650 -0.8083  0.4442
  871TIP3    H126808   5.550   0.097  19.358 -1.1421  2.0111  0.4955
  871TIP3    H226809   5.569   0.050  19.216 -2.3779 -0.3509  1.0636
  872TIP3   OH226810   1.122   1.437  20.334 -0.3558 -0.4435  0.9044
  872TIP3    H126811   1.066   1.500  20.380 -1.8562 -0.8145 -0.3558
  872TIP3    H226812   1.096   1.352  20.370  1.9878 -0.4328  2.9453
  873TIP3   OH226813   5.723   4.846  20.304  0.0543  0.0196 -0.1461
  873TIP3    H126814   5.735   4.892  20.221  3.0081  2.6239  1.4995
  873TIP3    H226815   5.663   4.903  20.354  2.6694  1.6126  1.4058
  874TIP3   OH226816   1.125   1.944  20.528  0.3464  0.0238  0.1868
  874TIP3    H126817   1.202   1.981  20.485 -0.2219  1.3716  0.2791
  874TIP3    H226818   1.067   1.919  20.457 -0.1100  1.1932  0.1282
  875TIP3   OH226819   4.498   1.374  20.620  0.0736  0.0201 -0.1201
  875TIP3    H126820   4.580   1.325  20.616 -0.3548 -0.7162 -0.2409
  875TIP3    H226821   4.455   1.354  20.537 -0.6340 -0.3600  0.3259
  876TIP3   OH226822   2.558   4.757  17.793 -0.1433  0.2834  0.3095
  876TIP3    H126823   2.563   4.850  17.768 -2.5852  0.2385 -0.6284
  876TIP3    H226824   2.625   4.714  17.740  1.7809  1.6097  1.5509
  877TIP3   OH226825   2.808   2.914  18.815 -0.0910 -0.0189  0.9345
  877TIP3    H126826   2.777   2.851  18.881  0.3666 -0.1230  1.0554
  877TIP3    H226827   2.791   2.870  18.731 -2.2946  0.8293  0.8681
  878TIP3   OH226828   3.903   4.731  20.872 -0.4922 -0.3965  0.0290
  878TIP3    H126829   3.903   4.643  20.836  3.0376  0.0924 -1.5736
  878TIP3    H226830   3.933   4.720  20.962 -1.3272 -0.9178  0.2513
  879TIP3   OH226831   5.747   3.097  17.674 -0.0536  0.1621  0.5037
  879TIP3    H126832   5.658   3.109  17.639 -0.0543 -0.8123  0.1207
  879TIP3    H226833   5.751   3.003  17.694  1.2089  0.0187 -0.3643
  880TIP3   OH226834   1.180   6.293  20.586  0.2710 -0.0959  0.4808
  880TIP3    H126835   1.117   6.330  20.525  0.3731  0.8626  0.9474
  880TIP3    H226836   1.154   6.328  20.672  1.3272  0.1693  0.7045
  881TIP3   OH226837   0.491   4.334  18.205 -0.0426 -0.1849 -0.1924
  881TIP3    H126838   0.466   4.246  18.231 -1.1361 -0.5640 -2.3078
  881TIP3    H226839   0.491   4.384  18.286 -1.7227 -1.5966  0.7335
  882TIP3   OH226840   1.958   3.842  19.747  0.4726  0.0208 -0.1354
  882TIP3    H126841   1.901   3.847  19.823  0.6881 -2.2324  0.2456
  882TIP3    H226842   1.899   3.828  19.673  0.4335 -0.6844  0.0292
  883TIP3   OH226843   5.163   4.390  20.009 -0.6884 -0.3629  0.6223
  883TIP3    H126844   5.120   4.408  19.926  1.0693  0.4113 -0.1822
  883TIP3    H226845   5.150   4.470  20.061  0.4736  0.2514  0.0260
  884TIP3   OH226846   6.372   5.193  17.611 -0.4495  0.4076 -0.7649
  884TIP3    H126847   6.445   5.216  17.553 -0.6240  1.5051 -0.5652
  884TIP3    H226848   6.402   5.112  17.655  0.9355  1.1657 -0.2255
  885TIP3   OH226849   5.260   4.050  19.636  0.1898 -0.1961  1.0334
  885TIP3    H126850   5.266   4.021  19.727 -1.3396  1.5919  1.7752
  885TIP3    H226851   5.321   3.993  19.589  0.9121 -1.2843  3.1299
  886TIP3   OH226852   3.064   4.465  18.374 -0.5875 -0.9174 -0.5497
  886TIP3    H126853   3.130   4.470  18.444  0.7166 -1.8015 -1.6765
  886TIP3    H226854   2.999   4.531  18.399  0.6660 -0.0605  0.6498
  887TIP3   OH226855   4.211   6.491  20.111  0.0978  0.2125 -0.0152
  887TIP3    H126856   4.141   6.551  20.135  0.9842  0.8199  1.2257
  887TIP3    H226857   4.168   6.419  20.065 -1.3351  0.5193  0.8068
  888TIP3   OH226858   1.172   3.540  19.324  0.3736  0.1662 -0.0801
  888TIP3    H126859   1.192   3.533  19.418 -0.8048 -0.6339  0.1273
  888TIP3    H226860   1.231   3.608  19.293  1.9317 -0.6644  0.9091
  889TIP3   OH226861   6.295   6.239  19.025 -0.0909 -0.9262  0.2892
  889TIP3    H126862   6.385   6.243  19.056  0.0671 -0.1098 -0.2517
  889TIP3    H226863   6.252   6.316  19.064 -0.5777 -1.3561  0.6157
  890TIP3   OH226864   3.528   5.553  20.483 -0.3735 -0.0978 -0.3321
  890TIP3    H126865   3.474   5.632  20.476  0.6917  0.6106 -0.8867
  890TIP3    H226866   3.536   5.522  20.393  0.2495 -0.1094 -0.2781
  891TIP3   OH226867   2.869   1.450  19.032 -0.4164 -0.2183 -0.1706
  891TIP3    H126868   2.824   1.515  19.086  0.3904 -0.5239  0.8988
  891TIP3    H226869   2.961   1.476  19.035 -0.1144 -1.2767  0.0807
  892TIP3   OH226870   1.168   3.855  19.778  0.4079  0.4549 -0.7857
  892TIP3    H126871   1.220   3.932  19.801 -0.5827  1.0586 -0.4656
  892TIP3    H226872   1.077   3.887  19.780  0.0252 -0.5711 -1.2762
  893TIP3   OH226873   1.319   6.670  18.313 -0.1005 -0.7482 -0.2753
  893TIP3    H126874   1.367   6.587  18.311 -0.9389 -1.2396 -2.0749
  893TIP3    H226875   1.336   6.709  18.227  2.0599  2.0539  1.2488
  894TIP3   OH226876   4.311   0.268  20.620  1.0600 -0.4014  0.1626
  894TIP3    H126877   4.227   0.235  20.587  0.7406 -0.3999  0.9492
  894TIP3    H226878   4.307   0.362  20.603  1.7929 -0.6844 -1.6975
  895TIP3   OH226879   2.522   0.784  17.913 -0.0046  0.1002 -0.1850
  895TIP3    H126880   2.545   0.787  18.006  0.1168 -1.5025 -0.1417
  895TIP3    H226881   2.576   0.714  17.877 -1.7841 -0.9546 -0.9334
  896TIP3   OH226882   5.364   2.798  18.668  0.4467 -0.0192 -0.1726
  896TIP3    H126883   5.450   2.806  18.627 -0.0684 -0.8403 -1.4793
  896TIP3    H226884   5.302   2.827  18.601 -0.2881  0.8715  0.8612
  897TIP3   OH226885   3.546   2.429  18.734  0.3170  0.1656 -0.0597
  897TIP3    H126886   3.511   2.515  18.713 -0.6607 -0.3685 -0.6737
  897TIP3    H226887   3.591   2.401  18.654  0.7484  0.1568  0.1816
  898TIP3   OH226888   5.169   5.866  18.266  0.0429  0.4001  0.1829
  898TIP3    H126889   5.079   5.853  18.235 -0.9436  1.2692  2.4439
  898TIP3    H226890   5.165   5.946  18.318  1.6218 -0.7538  2.2023
  899TIP3   OH226891   6.580   0.565  18.311 -0.4876 -0.0628 -0.0998
  899TIP3    H126892   6.590   0.479  18.352 -1.4524 -0.2871 -0.2994
  899TIP3    H226893   6.489   0.588  18.328 -0.7851  0.0559 -1.7011
  900TIP3   OH226894   1.881   2.061  18.667  0.4850  0.4727  0.2548
  900TIP3    H126895   1.806   2.001  18.669  0.6346  0.2146 -1.0728
  900TIP3    H226896   1.955   2.007  18.694  0.4819  0.2570 -0.1531
  901TIP3   OH226897   3.026   1.100  18.644  0.5558 -0.0601  0.1442
  901TIP3    H126898   2.953   1.055  18.687  1.1724  0.5471  1.9284
  901TIP3    H226899   3.091   1.031  18.631  1.2631  0.1043  2.3337
  902TIP3   OH226900   3.723   2.144  18.733 -0.0906 -0.0245 -0.1254
  902TIP3    H126901   3.815   2.131  18.706 -0.3239  0.4575 -1.2067
  902TIP3    H226902   3.703   2.233  18.705  0.1077  1.1539  3.1269
  903TIP3   OH226903   3.816   2.302  19.903  0.2698 -0.3194  0.1898
  903TIP3    H126904   3.858   2.299  19.989 -0.2544 -2.5912  0.4451
  903TIP3    H226905   3.889   2.307  19.841  0.7948 -1.0673  0.7249
  904TIP3   OH226906   2.529   4.863  19.055  0.1202 -0.2938  0.3786
  904TIP3    H126907   2.445   4.831  19.087 -0.5835  0.4540 -0.6619
  904TIP3    H226908   2.516   4.873  18.961  1.4523 -0.3923  0.1692
  905TIP3   OH226909   2.434   5.523  18.138 -0.2571  0.2340 -0.3202
  905TIP3    H126910   2.425   5.618  18.145 -0.2787  0.2585 -0.6533
  905TIP3    H226911   2.361   5.496  18.081 -0.9683 -0.1230  0.7197
  906TIP3   OH226912   4.272   1.118  20.318 -0.8317  0.5023  0.2919
  906TIP3    H126913   4.263   1.156  20.231 -1.5378  2.4551  1.1534
  906TIP3    H226914   4.297   1.027  20.303 -0.9446  0.8019 -1.9311
  907TIP3   OH226915   2.494   0.237  18.789  0.1342 -0.1225  0.5060
  907TIP3    H126916   2.439   0.310  18.760  0.3175 -0.3038 -0.3265
  907TIP3    H226917   2.535   0.205  18.709 -0.5216 -1.6244  0.7475
  908TIP3   OH226918   0.794   5.095  18.909 -0.5156 -0.0052  0.3545
  908TIP3    H126919   0.878   5.108  18.865 -0.6378 -0.8506 -0.1579
  908TIP3    H226920   0.728   5.124  18.846 -0.6537 -0.4056  0.3123
  909TIP3   OH226921   1.519   4.146  20.090  0.1492 -0.0225  0.1689
  909TIP3    H126922   1.555   4.235  20.089  0.5860 -0.2036 -0.0610
  909TIP3    H226923   1.512   4.122  19.997 -0.5469  0.0019  0.2075
  910TIP3   OH226924   5.867   3.650  20.069  0.4472 -0.0132  0.5140
  910TIP3    H126925   5.909   3.674  19.986  0.0150  0.1067  0.3290
  910TIP3    H226926   5.848   3.557  20.059 -1.8224  0.4944 -0.5215
  911TIP3   OH226927   5.981   5.633  19.015  0.4712 -0.2141  0.0485
  911TIP3    H126928   5.956   5.616  19.105  1.0424  2.4944  0.8354
  911TIP3    H226929   5.898   5.638  18.967  0.0141  0.4113  0.8807
  912TIP3   OH226930   4.612   1.686  17.775 -0.0634  0.4668  0.7063
  912TIP3    H126931   4.622   1.640  17.858  0.2503  2.6792  1.9502
  912TIP3    H226932   4.702   1.694  17.742 -0.2070 -0.6068 -0.0064
  913TIP3   OH226933   5.426   3.309  17.953  0.2543 -0.9766  0.1398
  913TIP3    H126934   5.373   3.242  17.996  0.4001 -1.3201 -0.2113
  913TIP3    H226935   5.422   3.287  17.860 -0.2744 -0.0938 -0.0593
  914TIP3   OH226936   3.956   5.182  19.049 -0.0780 -0.3875 -0.1333
  914TIP3    H126937   3.941   5.208  18.959  0.8779  0.2021 -0.1325
  914TIP3    H226938   3.938   5.088  19.050  0.8457 -0.5923 -1.1583
  915TIP3   OH226939   5.234   6.346  18.141  0.2236 -0.0609  0.0433
  915TIP3    H126940   5.233   6.282  18.212 -0.3690 -1.5699 -1.2645
  915TIP3    H226941   5.146   6.340  18.102  0.5963  0.5688 -0.9445
  916TIP3   OH226942   1.783   2.609  18.748  0.0088 -0.1718 -0.9455
  916TIP3    H126943   1.694   2.638  18.726  0.6994  1.8550 -1.3338
  916TIP3    H226944   1.831   2.617  18.666  0.4938 -1.5687 -0.8135
  917TIP3   OH226945   2.389   6.093  17.681  0.0256 -0.5415  0.0201
  917TIP3    H126946   2.367   6.013  17.729  0.3771 -1.2465 -0.9487
  917TIP3    H226947   2.347   6.081  17.596  0.4163  0.1326 -0.2712
  918TIP3   OH226948   0.050   0.541  19.651  0.1686 -0.6510 -0.4440
  918TIP3    H126949   0.026   0.629  19.622 -0.7254 -0.7623 -0.0924
  918TIP3    H226950  -0.030   0.507  19.692 -0.2575 -2.4904 -2.6010
  919TIP3   OH226951   2.040   0.395  17.542 -0.6508  0.2520  0.5450
  919TIP3    H126952   2.081   0.358  17.621  0.1097  0.0628  0.0797
  919TIP3    H226953   2.092   0.359  17.470 -1.8135 -0.1960 -0.0960
  920TIP3   OH226954   0.715   2.344  17.686  0.4951  0.5856 -0.0089
  920TIP3    H126955   0.709   2.375  17.596  1.5181  1.4705  0.2121
  920TIP3    H226956   0.625   2.345  17.718  0.0132 -0.4510 -1.2354
  921TIP3   OH226957   0.457   0.767  18.908  0.2457 -0.2702 -0.0343
  921TIP3    H126958   0.469   0.858  18.881  1.2833 -0.6223 -0.8158
  921TIP3    H226959   0.423   0.773  18.998  0.6872  0.8798  0.0734
  922TIP3   OH226960   2.604   3.118  19.545  0.7705 -0.0993  0.3584
  922TIP3    H126961   2.664   3.131  19.619  1.8783 -0.3392 -0.4715
  922TIP3    H226962   2.644   3.168  19.473 -0.2027  0.0041 -0.1259
  923TIP3   OH226963   2.188   3.665  19.728 -0.2764  0.2323 -0.5956
  923TIP3    H126964   2.158   3.584  19.686 -0.5732  1.1535 -2.2642
  923TIP3    H226965   2.109   3.720  19.731  0.4143  1.3420 -1.7477
  924TIP3   OH226966   4.259   1.594  18.308 -0.0601 -0.0948 -0.3827
  924TIP3    H126967   4.292   1.551  18.230 -1.1814  1.6138 -1.8636
  924TIP3    H226968   4.334   1.641  18.343  0.6019 -1.3626 -0.0241
  925TIP3   OH226969   3.254   2.674  19.649  0.4258  0.3542 -0.6484
  925TIP3    H126970   3.337   2.719  19.663 -0.0151  0.7669  0.8089
  925TIP3    H226971   3.276   2.601  19.592  2.1175 -0.4604  0.9424
  926TIP3   OH226972   3.893   1.330  18.723 -0.1827 -0.4881  0.1718
  926TIP3    H126973   3.985   1.355  18.718 -0.4912  0.4697 -1.0613
  926TIP3    H226974   3.854   1.364  18.643 -2.1390  1.2912  1.7547
  927TIP3   OH226975   6.158   3.614  17.959  0.3391  0.2598  0.0823
  927TIP3    H126976   6.145   3.699  17.916  0.8940  0.4763  0.3364
  927TIP3    H226977   6.086   3.560  17.927 -0.5636  1.0987  0.6210
  928TIP3   OH226978   5.848   3.928  17.906  0.0864  0.4090 -0.1960
  928TIP3    H126979   5.872   3.874  17.832 -0.4290  1.8547 -1.4718
  928TIP3    H226980   5.923   3.987  17.918  0.1789  0.1637  0.4464
  929TIP3   OH226981   4.656   2.151  20.394 -0.4471  0.5183 -0.5749
  929TIP3    H126982   4.599   2.081  20.363 -1.5751  1.2281 -0.1829
  929TIP3    H226983   4.744   2.119  20.378 -0.9530 -0.4405 -1.5934
  930TIP3   OH226984   2.569   4.589  18.905 -0.9540 -0.0117 -0.9046
  930TIP3    H126985   2.493   4.617  18.955  0.0063  0.2794  0.4774
  930TIP3    H226986   2.579   4.496  18.927  0.2256  0.4188  0.5494
  931TIP3   OH226987   2.655   0.115  19.917 -0.4016 -0.2386  0.3872
  931TIP3    H126988   2.732   0.078  19.875 -2.3910 -3.1970 -1.0251
  931TIP3    H226989   2.680   0.128  20.008  1.7162 -1.1516 -0.0297
  932TIP3   OH226990   4.691   6.178  19.240 -0.0030  0.1479 -0.5078
  932TIP3    H126991   4.754   6.236  19.198 -1.0376  0.7133 -1.3361
  932TIP3    H226992   4.628   6.237  19.281 -0.4742 -0.3855 -0.4519
  933TIP3   OH226993   4.379   6.325  18.099  0.7354 -0.1250 -0.3397
  933TIP3    H126994   4.439   6.380  18.049  0.8419  0.8396  0.7891
  933TIP3    H226995   4.402   6.235  18.075  2.0600  0.2492 -0.5566
  934TIP3   OH226996   5.426   3.099  19.144 -0.4274  0.3243 -0.3181
  934TIP3    H126997   5.380   3.077  19.063  0.8795  0.7216 -1.2032
  934TIP3    H226998   5.473   3.180  19.123 -0.6710  0.8628  1.0956
  935TIP3   OH226999   1.741   0.689  17.848  0.1311 -0.1506  0.7746
  935TIP3    H127000   1.670   0.689  17.785  0.9575  1.2060 -0.2227
  935TIP3    H227001   1.821   0.691  17.794  0.8961 -0.3802  1.8629
  936TIP3   OH227002   4.877   2.040  20.189 -0.3024 -1.3333  0.1584
  936TIP3    H127003   4.965   2.065  20.218 -0.3653  0.3055 -0.9206
  936TIP3    H227004   4.849   1.973  20.252  0.7506 -0.1261  2.0215
  937TIP3   OH227005   2.182   0.732  18.927 -0.1414 -0.3794 -0.5951
  937TIP3    H127006   2.191   0.732  18.831  0.5551 -1.3550 -0.5442
  937TIP3    H227007   2.190   0.640  18.951 -0.3164 -0.1357  0.4074
  938TIP3   OH227008   3.250   5.846  19.767 -0.6143  0.2967  0.6183
  938TIP3    H127009   3.298   5.831  19.848  2.3658 -2.4675 -1.4035
  938TIP3    H227010   3.216   5.760  19.742 -0.9390  0.9353 -1.3487
  939TIP3   OH227011   2.276   6.158  19.431 -0.1422  0.4644  0.6142
  939TIP3    H127012   2.270   6.235  19.375 -0.3974  0.7178  0.9880
  939TIP3    H227013   2.190   6.151  19.472 -0.0210  0.1641  0.8220
  940TIP3   OH227014   2.739   5.956  19.034 -0.0497 -0.4383  0.4988
  940TIP3    H127015   2.758   5.886  18.972 -0.6646 -0.9574  0.8923
  940TIP3    H227016   2.816   6.014  19.028  0.9339 -1.6509  0.9008
  941TIP3   OH227017   4.032   5.114  20.259 -0.6973 -0.3479  0.6825
  941TIP3    H127018   3.974   5.187  20.238  0.1220  0.0201 -0.3975
  941TIP3    H227019   4.069   5.136  20.344 -0.3116  0.6190  0.2829
  942TIP3   OH227020   4.185   3.130  20.653 -0.4291  0.2730 -0.1012
  942TIP3    H127021   4.232   3.104  20.733  1.8787 -2.5510 -2.1552
  942TIP3    H227022   4.181   3.225  20.657 -0.4352  0.2492  3.3419
  943TIP3   OH227023   5.540   4.670  17.119 -0.5252  0.9547  0.2598
  943TIP3    H127024   5.452   4.634  17.122 -0.3491  0.5857  1.0692
  943TIP3    H227025   5.529   4.755  17.076 -1.0256  0.2233 -1.1312
  944TIP3   OH227026   3.963   4.952  17.671 -0.1040 -0.0144 -0.5815
  944TIP3    H127027   3.937   5.039  17.642 -0.8634 -0.2001 -0.4816
  944TIP3    H227028   4.035   4.928  17.612  1.9507  1.7151  1.0393
  945TIP3   OH227029   5.105   4.083  18.991  0.2765  0.0195 -0.3032
  945TIP3    H127030   5.029   4.114  19.041  0.3324 -1.5202  0.8127
  945TIP3    H227031   5.106   4.139  18.913 -0.3630  1.8922  0.9497
  946TIP3   OH227032   5.988   1.988  18.638  0.1431  0.7176  0.5653
  946TIP3    H127033   6.004   2.075  18.675 -0.4105  1.5473 -1.0629
  946TIP3    H227034   6.034   1.989  18.554 -0.1811 -0.4469  0.3583
  947TIP3   OH227035   5.871   3.024  20.592 -0.2359  0.3749  0.2201
  947TIP3    H127036   5.786   3.017  20.550 -0.1332 -2.2454  0.2890
  947TIP3    H227037   5.886   3.118  20.601 -3.3968  0.9181  0.8286
  948TIP3   OH227038   3.246   2.396  19.549 -0.1869 -0.3116 -0.5937
  948TIP3    H127039   3.214   2.337  19.481 -3.5272  0.9022 -0.2936
  948TIP3    H227040   3.248   2.343  19.628 -1.1441 -0.5803 -0.7348
  949TIP3   OH227041   5.664   2.724  20.577  0.2783 -0.0231 -0.3969
  949TIP3    H127042   5.648   2.816  20.598 -1.0018 -0.1825 -0.5736
  949TIP3    H227043   5.737   2.725  20.515 -0.6262  0.9966 -1.4924
  950TIP3   OH227044   5.322   4.568  18.278  0.1326  0.3526  0.1565
  950TIP3    H127045   5.378   4.557  18.355  0.7176  1.1889 -0.1376
  950TIP3    H227046   5.288   4.657  18.285 -0.0130  0.3489 -0.4247
  951TIP3   OH227047   2.638   6.487  18.489 -0.7191  0.6957 -0.6810
  951TIP3    H127048   2.644   6.539  18.569  1.1963 -0.1864 -0.1933
  951TIP3    H227049   2.663   6.399  18.516  0.4849  0.4803 -2.3452
  952TIP3   OH227050   5.767   6.276  18.829 -0.0652 -0.9223  0.2448
  952TIP3    H127051   5.809   6.314  18.907  0.0717 -1.6274  0.5228
  952TIP3    H227052   5.819   6.199  18.809 -1.6228 -2.2295  1.0243
  953TIP3   OH227053   3.655   0.957  19.961 -0.3344 -0.1009 -0.1673
  953TIP3    H127054   3.652   0.975  19.867 -0.4545  1.2052  0.0730
  953TIP3    H227055   3.588   1.015  19.998 -1.3242 -1.6519  0.5708
  954TIP3   OH227056   5.286   2.392  19.162 -0.1271 -0.4129  0.4694
  954TIP3    H127057   5.235   2.340  19.099  0.0224 -0.3970  0.3329
  954TIP3    H227058   5.298   2.333  19.237  2.1312 -1.4896 -0.6359
  955TIP3   OH227059   2.650   1.306  20.174 -0.7434 -0.1566 -0.3862
  955TIP3    H127060   2.723   1.336  20.228 -0.0304 -1.4830 -0.5759
  955TIP3    H227061   2.607   1.240  20.228 -0.5231 -0.9005 -1.1100
  956TIP3   OH227062   2.637   3.761  20.640  0.1195  0.1765 -0.1886
  956TIP3    H127063   2.712   3.738  20.695  0.2575 -0.0038 -0.4533
  956TIP3    H227064   2.632   3.691  20.575 -1.4622 -0.9170  0.9945
  957TIP3   OH227065   0.543   6.673  19.776  0.4834  0.0904  0.8582
  957TIP3    H127066   0.579   6.685  19.864  1.3966 -1.4228  0.7220
  957TIP3    H227067   0.465   6.619  19.788 -0.8027  1.8806  0.9555
  958TIP3   OH227068   3.670   1.249  17.533  0.0380  0.0125  0.0417
  958TIP3    H127069   3.693   1.156  17.523  0.9739  0.1830  0.4964
  958TIP3    H227070   3.754   1.293  17.545 -0.1856  1.2517 -2.3946
  959TIP3   OH227071   1.766   4.765  18.600  0.3458  0.0101 -0.3371
  959TIP3    H127072   1.709   4.811  18.538  0.9588  0.0883 -0.8437
  959TIP3    H227073   1.711   4.694  18.634 -0.9656  1.6735  1.2375
  960TIP3   OH227074   2.800   5.439  18.761 -0.7381  0.1194 -0.2701
  960TIP3    H127075   2.713   5.398  18.768 -1.5593  1.6820 -0.9014
  960TIP3    H227076   2.859   5.366  18.739 -1.4609 -1.3693  2.2938
  961TIP3   OH227077   4.142   3.021  20.248 -0.4189 -0.3236 -0.2808
  961TIP3    H127078   4.110   2.967  20.176 -1.7303 -0.9378  0.7357
  961TIP3    H227079   4.065   3.040  20.300  0.3314  1.0046  0.4054
  962TIP3   OH227080   3.005   0.774  17.527 -0.1854 -0.0564  0.0981
  962TIP3    H127081   2.999   0.863  17.493  1.1017 -0.2435 -0.6602
  962TIP3    H227082   2.937   0.726  17.480 -0.8009  0.4674  0.4175
  963TIP3   OH227083   0.041   1.094  19.063  0.2003 -0.2167  0.3683
  963TIP3    H127084  -0.016   1.170  19.075  0.9311  0.3781  0.1263
  963TIP3    H227085   0.050   1.057  19.150  0.0398  0.1182  0.5303
  964TIP3   OH227086   5.290   2.976  17.358 -0.1033  0.3244  0.5123
  964TIP3    H127087   5.375   3.019  17.358  0.8111 -1.2841 -1.8291
  964TIP3    H227088   5.308   2.888  17.390 -1.1968  0.3816  1.3566
  965TIP3   OH227089   3.187   0.376  17.925 -0.3949  0.9679 -0.1497
  965TIP3    H127090   3.280   0.373  17.902 -0.0287 -0.7045  1.3039
  965TIP3    H227091   3.142   0.392  17.842  1.1274  0.8037 -1.0469
  966TIP3   OH227092   5.501   2.979  18.481  0.2109  0.0319 -0.1361
  966TIP3    H127093   5.573   3.034  18.511  0.5670 -0.2629 -0.4368
  966TIP3    H227094   5.520   2.963  18.389 -0.8894  0.9554 -0.5419
  967TIP3   OH227095   3.122   5.098  19.329  0.1970  0.3471 -0.3102
  967TIP3    H127096   3.170   5.178  19.351  1.0213 -0.4599  0.9503
  967TIP3    H227097   3.188   5.028  19.335 -0.7808 -0.5930 -0.1234
  968TIP3   OH227098   6.653   5.618  19.148  0.1725  0.1632  0.2599
  968TIP3    H127099   6.593   5.547  19.170  0.1779 -0.0184 -0.2872
  968TIP3    H227100   6.599   5.681  19.100  0.0785  0.7229  1.0731
  969TIP3   OH227101   4.397   3.260  18.277  0.2265 -0.2304 -0.0628
  969TIP3    H127102   4.386   3.238  18.370  1.5628 -1.8444 -0.2336
  969TIP3    H227103   4.469   3.204  18.248  1.3499  1.8450 -1.5387
  970TIP3   OH227104   5.358   4.663  20.314  0.2777 -0.3798 -0.0554
  970TIP3    H127105   5.371   4.647  20.408  0.7877 -1.4941 -0.3068
  970TIP3    H227106   5.340   4.757  20.309 -0.1014 -0.3645  1.1901
  971TIP3   OH227107   1.595   1.306  18.739 -0.4404  0.5902 -0.5547
  971TIP3    H127108   1.539   1.340  18.809 -0.5574  1.9097 -1.2583
  971TIP3    H227109   1.596   1.375  18.673  0.5118 -0.1936 -1.4013
  972TIP3   OH227110   4.295   6.420  20.865 -0.8400 -0.5613 -0.0382
  972TIP3    H127111   4.293   6.493  20.927  0.8335  0.4022 -1.0361
  972TIP3    H227112   4.342   6.351  20.912  0.1159  0.0396 -0.0723
  973TIP3   OH227113   3.610   0.882  17.194 -0.4742 -0.1431  0.2608
  973TIP3    H127114   3.587   0.967  17.231  0.1892 -0.0263  0.4192
  973TIP3    H227115   3.698   0.864  17.227 -0.7766 -1.0959  0.5801
  974TIP3   OH227116   2.442   1.118  18.565 -0.4831 -0.6718  0.2456
  974TIP3    H127117   2.375   1.177  18.531  1.2031  0.4679 -1.2947
  974TIP3    H227118   2.428   1.117  18.659  1.4818  5.1120  0.9838
  975TIP3   OH227119   0.537   5.631  20.566 -0.0527 -0.2349 -0.1626
  975TIP3    H127120   0.563   5.690  20.636 -0.3685  0.0355 -0.2722
  975TIP3    H227121   0.552   5.543  20.602 -0.9710 -0.1177  0.5521
  976TIP3   OH227122   0.954   2.500  20.583  0.3072  0.1586  0.1795
  976TIP3    H127123   0.876   2.511  20.637  0.7636  1.9391  0.5397
  976TIP3    H227124   0.972   2.406  20.586 -1.7203 -0.2693  0.1986
  977TIP3   OH227125   0.651   4.505  20.427  0.0217 -0.1213 -0.1832
  977TIP3    H127126   0.592   4.577  20.448  0.1206  0.5811 -2.1395
  977TIP3    H227127   0.631   4.483  20.336  1.5335 -1.0817 -0.3171
  978TIP3   OH227128   0.591   0.446  17.699  0.1983  0.1452  0.1098
  978TIP3    H127129   0.595   0.490  17.614 -1.4022 -0.4372 -0.2886
  978TIP3    H227130   0.682   0.422  17.717  0.2934 -2.5350 -2.9768
  979TIP3   OH227131   2.959   3.221  18.000  0.5699  0.3941 -0.1692
  979TIP3    H127132   2.874   3.254  18.027  0.7254  1.3721 -0.8387
  979TIP3    H227133   2.971   3.252  17.911  1.7623  0.5467  0.0188
  980TIP3   OH227134   1.853   5.762  18.438  0.2168 -0.6475 -0.0166
  980TIP3    H127135   1.795   5.836  18.418 -0.3985 -1.3903 -1.0750
  980TIP3    H227136   1.874   5.773  18.530 -2.8922 -1.1770  0.8837
  981TIP3   OH227137   6.249   4.041  18.690 -0.5865 -0.2619 -0.3338
  981TIP3    H127138   6.344   4.056  18.686 -0.6702 -0.0678 -2.6262
  981TIP3    H227139   6.241   3.945  18.691 -0.3816 -0.3083  1.5576
  982TIP3   OH227140   4.139   1.617  20.305 -0.6578 -0.4926 -0.2298
  982TIP3    H127141   4.087   1.649  20.231 -0.8450 -0.2780 -0.0067
  982TIP3    H227142   4.126   1.522  20.304 -1.7116 -0.3716  0.3047
  983TIP3   OH227143   1.877   6.492  18.186  0.4452 -0.1688 -0.5625
  983TIP3    H127144   1.849   6.497  18.278 -0.2934  0.3070 -0.8057
  983TIP3    H227145   1.798   6.510  18.136  0.9864  0.2305 -1.2903
  984TIP3   OH227146   6.047   6.541  18.890 -0.0006 -0.2083  0.2770
  984TIP3    H127147   6.033   6.627  18.849 -0.6530 -0.3270  0.2411
  984TIP3    H227148   6.135   6.546  18.926  0.0145  0.4347  0.1638
  985TIP3   OH227149   6.474   4.125  20.171 -0.2284 -0.0227  0.6087
  985TIP3    H127150   6.407   4.059  20.186 -0.6648  0.4315  0.6973
  985TIP3    H227151   6.456   4.192  20.237  0.1412  0.2303  0.4527
  986TIP3   OH227152   5.237   1.618  17.994 -0.7261  0.5739 -0.1736
  986TIP3    H127153   5.269   1.532  17.967  0.2405  0.5987  0.8440
  986TIP3    H227154   5.159   1.632  17.939 -2.2395 -1.9011  1.1111
  987TIP3   OH227155   3.188   6.660  19.807  0.0527 -0.2173  0.1446
  987TIP3    H127156   3.181   6.744  19.852  1.7214  0.0254  0.0220
  987TIP3    H227157   3.116   6.608  19.841 -0.7712  1.1261  0.5179
  988TIP3   OH227158   4.115   5.247  18.301 -0.1428  0.0528  0.2494
  988TIP3    H127159   4.151   5.160  18.285 -0.1709  0.0550  0.1729
  988TIP3    H227160   4.177   5.307  18.261  0.4097  0.1324  1.2016
  989TIP3   OH227161   6.519   4.687  19.990  0.7935 -0.2164  0.4500
  989TIP3    H127162   6.457   4.760  19.988 -0.1520 -1.0040 -0.4990
  989TIP3    H227163   6.467   4.613  20.022  1.4833 -0.6900  0.4930
  990TIP3   OH227164   3.130   1.524  17.360  0.3558  0.0101 -0.1748
  990TIP3    H127165   3.051   1.578  17.366 -0.1768 -0.4678 -2.1358
  990TIP3    H227166   3.180   1.564  17.289 -0.3578 -2.3593 -2.1410
  991TIP3   OH227167   0.541   1.695  18.122  0.5085 -0.2560 -0.4351
  991TIP3    H127168   0.579   1.781  18.136 -2.7219  0.9588  1.8724
  991TIP3    H227169   0.526   1.691  18.027  1.3970  1.3570 -0.6821
  992TIP3   OH227170   6.009   6.371  19.268  0.2736 -0.2678  0.4272
  992TIP3    H127171   6.103   6.382  19.254  0.0337  0.0734 -1.0942
  992TIP3    H227172   5.994   6.406  19.356  1.4287  0.5404  0.3256
  993TIP3   OH227173   5.504   5.447  19.999 -0.1333 -0.2371  0.1257
  993TIP3    H127174   5.584   5.480  20.041 -0.4380  1.1301 -0.2888
  993TIP3    H227175   5.507   5.353  20.012  0.3607  0.0053  2.1905
  994TIP3   OH227176   4.410   0.349  17.740 -0.6333 -0.2335 -0.2508
  994TIP3    H127177   4.430   0.439  17.765 -1.2047 -0.0585 -0.3983
  994TIP3    H227178   4.481   0.323  17.681 -0.4508  0.1086 -0.1800
  995TIP3   OH227179   0.992   4.163  19.153 -0.3729  0.1189 -0.3879
  995TIP3    H127180   1.016   4.222  19.223 -0.3732  0.5161 -0.7168
  995TIP3    H227181   0.932   4.214  19.098 -0.0234 -0.0328 -0.9204
  996TIP3   OH227182   5.190   3.331  20.218  0.1189  0.1229 -0.3767
  996TIP3    H127183   5.201   3.412  20.266  2.3346 -1.0418  1.2644
  996TIP3    H227184   5.233   3.346  20.134  1.4815  0.3529  0.3358
  997TIP3   OH227185   6.502   3.739  18.069  0.1271 -0.6542 -0.3616
  997TIP3    H127186   6.481   3.824  18.033 -0.2737  0.1268  1.5633
  997TIP3    H227187   6.446   3.677  18.022 -1.7723  0.5468  0.2405
  998TIP3   OH227188   4.023   1.057  19.053 -0.1418 -0.1167  0.4926
  998TIP3    H127189   3.936   1.073  19.091 -0.8234 -1.9420 -0.1431
  998TIP3    H227190   4.005   1.038  18.961  1.1879  1.4872 -0.1386
  999TIP3   OH227191   2.284   5.833  20.155 -0.1282 -0.3231 -0.0529
  999TIP3    H127192   2.327   5.796  20.078  1.1578  0.3327  0.3122
  999TIP3    H227193   2.197   5.859  20.124 -0.6509 -2.5057 -0.5971
 1000TIP3   OH227194   0.032   3.426  18.169  0.4083 -0.1550 -0.0522
 1000TIP3    H127195  -0.039   3.362  18.163 -0.3353  0.7107 -0.6630
 1000TIP3    H227196   0.000   3.491  18.231 -0.0518  1.1049 -1.5591
 1001TIP3   OH227197   0.212   2.513  18.009 -0.1193 -0.8096  0.0714
 1001TIP3    H127198   0.268   2.436  18.017  1.3090  0.2747  1.1181
 1001TIP3    H227199   0.225   2.561  18.090  0.6040  1.5371 -1.3359
 1002TIP3   OH227200   1.191   5.970  18.768  0.0236 -0.0559 -0.5857
 1002TIP3    H127201   1.172   5.885  18.729  0.4098 -0.0036 -0.9007
 1002TIP3    H227202   1.153   6.034  18.707  0.8424  0.0356 -1.0202
 1003TIP3   OH227203   1.624   1.206  20.451  0.0310 -0.5129 -0.5851
 1003TIP3    H127204   1.561   1.143  20.485 -1.6876  0.3858 -1.9677
 1003TIP3    H227205   1.602   1.289  20.494  0.0354 -0.1259 -1.2971
 1004TIP3   OH227206   2.343   6.343  20.337  0.9672  0.1639 -0.2421
 1004TIP3    H127207   2.422   6.398  20.343  1.8662 -1.0908 -0.1637
 1004TIP3    H227208   2.319   6.347  20.245  0.8122  0.9668 -0.1732
 1005TIP3   OH227209   6.200   3.418  18.660  0.2189 -0.2803  0.2158
 1005TIP3    H127210   6.251   3.362  18.602  1.6269 -0.0095  1.1379
 1005TIP3    H227211   6.213   3.380  18.747  0.3245  0.8570  0.7113
 1006TIP3   OH227212   0.269   5.110  18.934  0.2970  0.3643 -0.1669
 1006TIP3    H127213   0.341   5.153  18.979  0.3211  0.5479 -0.3776
 1006TIP3    H227214   0.190   5.154  18.967  0.2546 -0.0687  0.3153
 1007TIP3   OH227215   4.549   0.866  19.902  0.2803  0.0767 -0.0981
 1007TIP3    H127216   4.531   0.911  19.819  0.5274  1.6860  0.6836
 1007TIP3    H227217   4.581   0.935  19.960 -0.5741 -0.8698  1.5648
 1008TIP3   OH227218   6.480   0.881  18.414 -0.8439  0.7220  0.1960
 1008TIP3    H127219   6.571   0.903  18.393 -0.1761 -2.3888 -0.7141
 1008TIP3    H227220   6.473   0.895  18.509  0.1478  2.2760  0.0700
 1009TIP3   OH227221   1.201   6.487  20.162 -0.4278  0.6189 -0.1990
 1009TIP3    H127222   1.264   6.416  20.153 -0.5269  0.6550 -1.3328
 1009TIP3    H227223   1.224   6.530  20.245 -0.3975 -0.7469  0.5161
 1010TIP3   OH227224   2.170   3.402  19.101  0.2169  0.5254  0.1908
 1010TIP3    H127225   2.247   3.355  19.133 -1.5542 -1.4776  1.8769
 1010TIP3    H227226   2.180   3.491  19.134  2.5268  0.7957 -1.0284
 1011TIP3   OH227227   4.241   4.827  17.869 -0.0533  0.4787  0.1114
 1011TIP3    H127228   4.318   4.778  17.897 -1.2259 -0.5497  1.7191
 1011TIP3    H227229   4.224   4.795  17.780 -0.7000 -2.0550  1.0528
 1012TIP3   OH227230   3.717   3.378  20.211 -0.0221 -0.1129 -0.0056
 1012TIP3    H127231   3.812   3.378  20.200  0.0277 -0.7631  0.3619
 1012TIP3    H227232   3.682   3.399  20.125  0.4408 -0.5992 -0.3154
 1013TIP3   OH227233   5.661   3.227  19.046 -0.3265 -0.5116 -0.4918
 1013TIP3    H127234   5.613   3.309  19.057  1.4664  0.9816 -2.7551
 1013TIP3    H227235   5.611   3.179  18.979 -1.1523 -1.1149  0.5359
 1014TIP3   OH227236   0.165   5.978  18.030  0.5878  0.2465  0.2740
 1014TIP3    H127237   0.225   5.906  18.050 -0.0240 -0.1505  0.7152
 1014TIP3    H227238   0.089   5.935  17.989 -0.1822  0.5271  1.3744
 1015TIP3   OH227239   4.966   1.259  19.279 -0.4742 -0.1787  0.5090
 1015TIP3    H127240   4.980   1.328  19.345 -0.6020  0.1400  0.2092
 1015TIP3    H227241   5.034   1.275  19.213 -0.0816 -0.7550  0.7685
 1016TIP3   OH227242   3.871   3.901  17.915  0.0214  0.6473 -0.0135
 1016TIP3    H127243   3.792   3.864  17.875  0.1998 -0.5332  0.6628
 1016TIP3    H227244   3.842   3.931  18.002  0.4184 -0.3313  0.4724
 1017TIP3   OH227245   4.290   4.215  20.204  0.8913  0.3942  0.2032
 1017TIP3    H127246   4.198   4.238  20.213  1.1359  1.2983  0.4676
 1017TIP3    H227247   4.323   4.210  20.294  0.7102 -1.6928  0.2181
 1018TIP3   OH227248   0.437   3.846  20.159  0.2960  0.1533 -0.1729
 1018TIP3    H127249   0.496   3.871  20.087 -0.6948 -0.3659 -1.1921
 1018TIP3    H227250   0.351   3.879  20.132 -0.2495 -0.7844  0.3799
 1019TIP3   OH227251   5.540   2.074  17.632  0.3130 -0.3155  0.9420
 1019TIP3    H127252   5.490   2.018  17.573 -0.5030 -0.4485  1.7247
 1019TIP3    H227253   5.521   2.163  17.603  0.8422 -0.4046  0.2964
 1020TIP3   OH227254   3.210   0.110  18.014 -0.3101 -0.8783  0.3399
 1020TIP3    H127255   3.216   0.200  17.982 -1.5063 -0.7899  0.3126
 1020TIP3    H227256   3.119   0.084  17.995  0.3603 -2.5512 -0.8708
 1021TIP3   OH227257   6.609   4.302  17.725 -0.2684  0.2231 -0.2739
 1021TIP3    H127258   6.617   4.260  17.810  0.4381 -0.1358 -0.5028
 1021TIP3    H227259   6.640   4.235  17.663  0.8634  1.0561 -0.6487
 1022TIP3   OH227260   5.469   1.297  19.295  0.1102 -0.3259 -0.5673
 1022TIP3    H127261   5.518   1.231  19.246  1.7991 -0.2371  0.9170
 1022TIP3    H227262   5.429   1.352  19.227  1.5575 -0.7758 -1.8407
 1023TIP3   OH227263   4.499   6.003  19.577  0.0871 -0.1170  0.5725
 1023TIP3    H127264   4.427   6.047  19.623  0.1279  0.4603  0.1011
 1023TIP3    H227265   4.459   5.927  19.536 -0.5646  0.9358 -0.8209
 1024TIP3   OH227266   5.623   2.523  18.333 -0.4697 -0.3312 -0.0005
 1024TIP3    H127267   5.611   2.461  18.406 -2.9005  0.6305  0.5242
 1024TIP3    H227268   5.701   2.492  18.288  0.6774 -1.4518  2.5425
 1025TIP3   OH227269   2.811   2.125  20.351 -0.2757  0.3676  0.7517
 1025TIP3    H127270   2.870   2.084  20.415 -0.5978 -1.4483 -0.0469
 1025TIP3    H227271   2.867   2.187  20.304  1.8234 -2.9701 -1.6146
 1026TIP3   OH227272   1.365   2.564  17.676 -0.5294  1.0235  0.8614
 1026TIP3    H127273   1.274   2.538  17.666 -0.3990  0.6354  0.6531
 1026TIP3    H227274   1.382   2.619  17.600 -0.0860 -0.3705 -0.0958
 1027TIP3   OH227275   0.104   5.018  20.049  0.4435  0.6579 -0.0907
 1027TIP3    H127276   0.139   5.034  19.961 -0.4776  0.6654 -0.4649
 1027TIP3    H227277   0.012   5.042  20.043  0.3517  0.5822  0.8633
 1028TIP3   OH227278   1.728   6.629  20.737 -0.3453 -0.4995 -0.1567
 1028TIP3    H127279   1.743   6.624  20.831  1.0879  2.2756 -0.1464
 1028TIP3    H227280   1.799   6.576  20.699  0.5689  0.3420  0.3154
 1029TIP3   OH227281   4.631   6.434  20.463 -0.0991 -0.0226  0.1219
 1029TIP3    H127282   4.567   6.407  20.397  1.0763 -0.4802 -0.8724
 1029TIP3    H227283   4.578   6.471  20.534 -1.5113 -1.2391 -0.2442
 1030TIP3   OH227284   1.315   3.788  20.257  0.0221 -0.0078  0.0782
 1030TIP3    H127285   1.289   3.730  20.328  2.8288  0.0423  1.2871
 1030TIP3    H227286   1.350   3.730  20.190  1.8248  0.1425  0.8328
 1031TIP3   OH227287   4.545   1.855  20.017 -0.2057 -0.0234  0.5960
 1031TIP3    H127288   4.583   1.935  19.982 -0.2584  0.1191  0.8629
 1031TIP3    H227289   4.609   1.787  19.995 -0.1572  0.0902  0.3759
 1032TIP3   OH227290   5.063   3.550  19.113 -0.2633 -0.2125 -0.3710
 1032TIP3    H127291   5.074   3.641  19.141  0.7441 -0.2629 -0.5866
 1032TIP3    H227292   5.036   3.555  19.021  1.2112 -0.1521 -0.8174
 1033TIP3   OH227293   1.789   6.290  18.545  0.5514 -0.2654 -0.2852
 1033TIP3    H127294   1.775   6.376  18.507  2.4821  0.5008  0.5979
 1033TIP3    H227295   1.701   6.254  18.558 -0.4177  2.3290  1.0090
 1034TIP3   OH227296   6.182   3.883  19.879 -0.2645 -0.2776 -0.1333
 1034TIP3    H127297   6.212   3.895  19.789  0.9248 -0.9396  0.1655
 1034TIP3    H227298   6.259   3.853  19.927 -1.3565 -1.9295  0.6864
 1035TIP3   OH227299   0.416   5.581  20.911  0.0048 -0.2775 -0.4766
 1035TIP3    H127300   0.482   5.617  20.851  0.6433 -1.5834 -0.5890
 1035TIP3    H227301   0.332   5.610  20.875  0.4908  1.7959 -0.0810
 1036TIP3   OH227302   2.195   0.670  20.354  0.0174  0.1973  0.7244
 1036TIP3    H127303   2.148   0.588  20.338 -0.8858  1.1002 -1.5665
 1036TIP3    H227304   2.166   0.729  20.285  2.1139  1.8581  1.1471
 1037TIP3   OH227305   3.620   6.153  19.326  0.3728  0.4727 -0.3190
 1037TIP3    H127306   3.675   6.231  19.325  0.2680  0.5485 -0.2198
 1037TIP3    H227307   3.586   6.147  19.236 -1.6207  1.9815  0.2436
 1038TIP3   OH227308   3.049   5.919  18.579 -0.1458 -0.0828  0.2560
 1038TIP3    H127309   3.084   5.854  18.640 -1.1286 -1.4956 -0.6065
 1038TIP3    H227310   3.113   5.923  18.508 -0.6568 -1.0465 -0.2762
 1039TIP3   OH227311   5.271   0.121  18.471 -0.0048 -0.3924 -0.4030
 1039TIP3    H127312   5.311   0.040  18.438 -0.0734 -1.3862  1.7672
 1039TIP3    H227313   5.180   0.116  18.441  0.5205  0.0233 -2.1734
 1040TIP3   OH227314   4.580   5.788  18.601  0.4729 -0.7856  0.3472
 1040TIP3    H127315   4.607   5.709  18.554  1.2348 -0.1331 -0.3311
 1040TIP3    H227316   4.644   5.798  18.671  0.9069 -0.2864 -0.1104
 1041TIP3   OH227317   1.734   1.882  18.337 -0.1401 -0.2919  0.6991
 1041TIP3    H127318   1.661   1.829  18.304 -0.4980  1.8451 -2.4035
 1041TIP3    H227319   1.691   1.956  18.381  0.0937  0.6645 -0.6199
 1042TIP3   OH227320   1.717   3.191  20.066 -0.8500 -0.1054 -0.0913
 1042TIP3    H127321   1.692   3.110  20.111  0.5632 -0.4843  0.0740
 1042TIP3    H227322   1.736   3.164  19.976  1.3591 -0.3544  0.3809
 1043TIP3   OH227323   6.647   4.760  19.406  0.0601 -0.3823 -0.1161
 1043TIP3    H127324   6.636   4.799  19.492  1.3022 -0.4235  0.0830
 1043TIP3    H227325   6.728   4.708  19.413  1.4550  1.3862 -1.9212
 1044TIP3   OH227326   1.664   0.650  20.719 -0.3720  0.2026  0.4091
 1044TIP3    H127327   1.692   0.736  20.688 -1.6239  0.2932 -0.5670
 1044TIP3    H227328   1.658   0.659  20.814  1.9416  0.4192  0.5929
 1045TIP3   OH227329   0.952   5.672  18.119 -0.3045  0.3445 -0.6960
 1045TIP3    H127330   0.988   5.584  18.119 -0.6259  0.1869  0.7755
 1045TIP3    H227331   1.027   5.728  18.140 -0.3823  0.2854 -0.2645
 1046TIP3   OH227332   4.971   0.194  18.913 -0.1122 -0.0287  0.6043
 1046TIP3    H127333   4.910   0.128  18.880 -1.0057  1.1842 -0.2643
 1046TIP3    H227334   4.923   0.241  18.981  0.7144 -0.6234  1.6172
 1047TIP3   OH227335   3.152   4.045  20.342 -0.1087 -0.3750 -0.3990
 1047TIP3    H127336   3.131   3.951  20.348 -2.0588  0.0324 -0.1970
 1047TIP3    H227337   3.074   4.089  20.377  0.6833  1.3318 -0.7000
 1048TIP3   OH227338   6.383   3.112  17.814  0.3298 -0.2047  0.5784
 1048TIP3    H127339   6.362   3.205  17.806 -0.4858 -0.4424 -0.2738
 1048TIP3    H227340   6.374   3.078  17.725 -1.3392 -1.4774  1.1773
 1049TIP3   OH227341   1.357   1.366  18.568  0.3983 -0.6665 -0.1425
 1049TIP3    H127342   1.358   1.384  18.662  2.0511  0.2732 -0.2982
 1049TIP3    H227343   1.436   1.407  18.535 -1.7123  1.8603 -2.5026
 1050TIP3   OH227344   5.161   6.144  18.349 -0.6294  0.5343  0.0249
 1050TIP3    H127345   5.067   6.142  18.331 -1.0199  3.2789  1.2992
 1050TIP3    H227346   5.167   6.158  18.443  1.1863 -2.7490  0.5504
 1051TIP3   OH227347   3.368   5.669  20.744  0.5693 -0.7252  0.2869
 1051TIP3    H127348   3.371   5.607  20.816  0.0158  2.0012  2.8492
 1051TIP3    H227349   3.317   5.625  20.676  1.3406 -3.5189  1.3849
 1052TIP3   OH227350   2.480   5.824  18.120 -0.4762  0.7946 -0.0657
 1052TIP3    H127351   2.513   5.863  18.040  1.4943  0.4703  0.5290
 1052TIP3    H227352   2.547   5.843  18.186  0.2601 -2.7345  0.4545
 1053TIP3   OH227353   5.374   3.036  18.839 -0.4809 -0.3674  0.1108
 1053TIP3    H127354   5.316   3.091  18.786  1.1820  0.5410 -0.8435
 1053TIP3    H227355   5.368   2.950  18.799  0.1154  0.1151 -1.0492
 1054TIP3   OH227356   6.341   0.077  20.052 -0.0984  0.5268  0.2199
 1054TIP3    H127357   6.408   0.036  20.107  0.2701 -0.6974 -1.1009
 1054TIP3    H227358   6.288   0.128  20.114  0.7830 -0.1441  1.5865
 1055TIP3   OH227359   5.606   1.378  18.395 -0.1634 -0.5736  0.1314
 1055TIP3    H127360   5.677   1.350  18.453 -1.7565 -2.1527  1.4358
 1055TIP3    H227361   5.532   1.324  18.420 -2.0536  1.4701 -0.7147
 1056TIP3   OH227362   1.017   1.393  18.035 -0.8453  0.1087  0.2042
 1056TIP3    H127363   1.005   1.343  17.955  0.2479 -0.4053  0.3419
 1056TIP3    H227364   0.931   1.395  18.076 -0.9152 -1.7951  0.2532
 1057TIP3   OH227365   2.838   4.665  19.968 -0.4344 -0.1792  0.3217
 1057TIP3    H127366   2.862   4.576  19.994  0.6508  0.1767  0.6049
 1057TIP3    H227367   2.761   4.686  20.021 -1.5997 -1.4481 -0.7898
 1058TIP3   OH227368   5.102   5.521  18.652 -0.5582 -0.0741 -0.1613
 1058TIP3    H127369   5.111   5.523  18.557 -0.8138 -2.3601 -0.3071
 1058TIP3    H227370   5.007   5.525  18.667 -0.5680 -0.5778 -0.0668
 1059TIP3   OH227371   5.205   6.288  18.594  0.1697  0.0124 -0.4146
 1059TIP3    H127372   5.206   6.288  18.690  0.9400  1.0573 -0.4017
 1059TIP3    H227373   5.298   6.287  18.569 -0.0104  0.3834 -1.1313
 1060TIP3   OH227374   4.088   6.412  20.682 -0.1511 -0.2203 -0.2805
 1060TIP3    H127375   4.164   6.437  20.734 -0.1101  0.0522 -0.4668
 1060TIP3    H227376   4.124   6.369  20.605 -0.1588  0.2706 -0.5663
 1061TIP3   OH227377   3.980   6.493  18.263 -0.3723 -0.3745  0.0692
 1061TIP3    H127378   3.973   6.566  18.324  0.8828 -0.4127  0.2810
 1061TIP3    H227379   3.893   6.487  18.223 -0.3108  1.7245 -0.5164
 1062TIP3   OH227380   1.838   2.890  18.400 -0.3596  0.0074  0.2037
 1062TIP3    H127381   1.848   2.985  18.390  0.3593  0.1689  2.1114
 1062TIP3    H227382   1.748   2.879  18.432 -0.0924  0.1674  1.0455
 1063TIP3   OH227383   6.531   3.320  18.331  0.3197  0.4035  0.2576
 1063TIP3    H127384   6.614   3.283  18.363 -0.7786 -0.7190  1.9400
 1063TIP3    H227385   6.543   3.415  18.338  1.3099  0.2435  0.8771
 1064TIP3   OH227386   0.419   1.143  17.264  0.1410 -0.0560  0.9004
 1064TIP3    H127387   0.489   1.168  17.203  0.4711 -0.7340  0.9940
 1064TIP3    H227388   0.435   1.051  17.282 -0.7502 -0.2033  0.9714
 1065TIP3   OH227389   3.403   0.222  19.239  0.2232  0.5905 -0.2914
 1065TIP3    H127390   3.373   0.276  19.166  1.4921 -0.2309 -1.4726
 1065TIP3    H227391   3.330   0.162  19.256 -0.9724  2.2432  0.6631
 1066TIP3   OH227392   0.243   2.671  20.465 -0.5389 -0.5453 -0.2985
 1066TIP3    H127393   0.159   2.658  20.421 -0.5143 -2.9035  0.2207
 1066TIP3    H227394   0.307   2.675  20.393 -0.8737 -0.9466 -0.6242
 1067TIP3   OH227395   0.750   2.831  19.720 -0.1164 -0.7810  0.1317
 1067TIP3    H127396   0.656   2.817  19.735  0.5377 -3.3778  3.0983
 1067TIP3    H227397   0.780   2.874  19.799  1.0652  1.3750 -1.4022
 1068TIP3   OH227398   4.520   5.249  20.066 -0.1800 -0.6111 -0.4911
 1068TIP3    H127399   4.426   5.248  20.050 -0.2206 -1.6842 -0.2785
 1068TIP3    H227400   4.528   5.243  20.162  0.1017 -0.1442 -0.4838
 1069TIP3   OH227401   2.001   5.718  19.993  0.0290  0.4809 -0.6917
 1069TIP3    H127402   1.970   5.705  20.083 -1.4120  2.3294 -0.8792
 1069TIP3    H227403   2.074   5.656  19.985 -0.8811 -0.9573  1.1792
 1070TIP3   OH227404   5.813   5.742  20.343 -0.1246 -0.5739  0.1342
 1070TIP3    H127405   5.819   5.826  20.388 -1.6028  0.5949 -1.6881
 1070TIP3    H227406   5.904   5.719  20.322  0.4533 -0.3763  2.1856
 1071TIP3   OH227407   4.691   3.793  20.520  0.8625  0.3213 -0.0624
 1071TIP3    H127408   4.674   3.737  20.596  0.1278  0.2242 -0.2881
 1071TIP3    H227409   4.675   3.737  20.444  2.2866  0.2160 -0.2989
 1072TIP3   OH227410   5.171   4.774  18.355 -0.1954  0.1648  0.1779
 1072TIP3    H127411   5.158   4.756  18.448 -2.2072 -2.3496 -0.4796
 1072TIP3    H227412   5.190   4.868  18.352  1.1478  0.1246  3.1836
 1073TIP3   OH227413   4.373   2.258  17.255 -0.0434 -0.6224 -0.5033
 1073TIP3    H127414   4.281   2.266  17.228 -0.5260  0.4756  1.3020
 1073TIP3    H227415   4.376   2.175  17.303  0.0033 -0.8400 -0.8775
 1074TIP3   OH227416   1.604   4.353  17.769 -0.0933  0.4041  0.1474
 1074TIP3    H127417   1.629   4.444  17.787  0.9482  0.3426 -0.8904
 1074TIP3    H227418   1.606   4.346  17.674 -1.8026 -0.2763  0.1351
 1075TIP3   OH227419   0.497   5.863  17.854 -0.4738  0.3087 -0.3096
 1075TIP3    H127420   0.446   5.842  17.776 -0.3717  1.5690 -0.7397
 1075TIP3    H227421   0.558   5.931  17.825 -0.5097  0.8749  0.8924
 1076TIP3   OH227422   3.971   0.699  20.145  0.3126  0.9023 -0.0183
 1076TIP3    H127423   3.896   0.641  20.131  0.6696  0.5767 -0.5974
 1076TIP3    H227424   3.971   0.757  20.069  1.5651 -0.1139 -0.8305
 1077TIP3   OH227425   3.190   1.349  18.453 -0.4870 -0.1528  0.3289
 1077TIP3    H127426   3.140   1.291  18.510  1.8545 -0.6546  2.0255
 1077TIP3    H227427   3.242   1.291  18.398 -0.6213  0.3602 -0.3595
 1078TIP3   OH227428   5.624   2.640  19.565  0.4481  0.1507 -0.6447
 1078TIP3    H127429   5.667   2.708  19.616 -2.2435  1.9083 -0.5191
 1078TIP3    H227430   5.560   2.602  19.625 -0.7158  0.1712 -1.8348
 1079TIP3   OH227431   4.265   3.295  19.509 -1.4526 -0.1029 -0.1740
 1079TIP3    H127432   4.333   3.243  19.467 -0.8295  0.8357 -0.3570
 1079TIP3    H227433   4.197   3.232  19.532 -0.2399 -1.1678  0.6127
 1080TIP3   OH227434   4.367   1.113  18.452 -0.2176 -0.2102 -0.0527
 1080TIP3    H127435   4.302   1.184  18.447 -0.2670 -0.1908  0.8372
 1080TIP3    H227436   4.316   1.033  18.443 -0.3276 -0.1842  0.3424
 1081TIP3   OH227437   3.008   6.576  16.963 -0.0189 -0.1413 -0.3011
 1081TIP3    H127438   3.103   6.565  16.960 -0.1035 -0.7419 -1.4680
 1081TIP3    H227439   2.973   6.493  16.931 -1.1567 -1.8273  4.5010
 1082TIP3   OH227440   1.886   1.714  20.684 -0.3751  0.1764 -0.1541
 1082TIP3    H127441   1.887   1.634  20.736 -0.9883 -0.0193 -0.4376
 1082TIP3    H227442   1.942   1.694  20.609  1.4557  0.8468  0.9632
 1083TIP3   OH227443   5.116   0.212  19.707  0.1568  0.0687  0.6430
 1083TIP3    H127444   5.070   0.280  19.756  0.0462  0.1005  0.4964
 1083TIP3    H227445   5.059   0.136  19.713 -1.0593  0.7261 -1.4463
 1084TIP3   OH227446   5.072   5.608  19.223  0.6530 -0.2949 -0.3853
 1084TIP3    H127447   5.014   5.532  19.223  0.6405 -0.3632  2.0346
 1084TIP3    H227448   5.159   5.572  19.203  0.1745 -0.4003 -2.5578
 1085TIP3   OH227449   3.328   0.594  19.649  0.4325  0.0825  0.2467
 1085TIP3    H127450   3.337   0.625  19.558 -1.1605  0.4685  0.2006
 1085TIP3    H227451   3.346   0.501  19.644  0.0563  0.0411 -0.5371
 1086TIP3   OH227452   5.158   5.473  18.030  0.1151  0.2233  0.2285
 1086TIP3    H127453   5.145   5.381  18.050  0.4908  0.0989 -0.0784
 1086TIP3    H227454   5.237   5.498  18.079  0.3041  0.2471 -0.0826
 1087TIP3   OH227455   2.016   4.612  19.297  0.5407 -1.1237  1.2318
 1087TIP3    H127456   1.926   4.642  19.284  0.6414 -1.0418  0.7036
 1087TIP3    H227457   2.058   4.684  19.345 -0.0172 -1.7192  2.6639
 1088TIP3   OH227458   6.249   5.347  19.186 -0.1108 -0.0865 -0.4029
 1088TIP3    H127459   6.249   5.259  19.149 -0.1029  0.7098 -2.4737
 1088TIP3    H227460   6.254   5.405  19.109 -0.9531  1.7340  0.8333
 1089TIP3   OH227461   5.955   6.692  19.688  0.3855 -0.4082 -0.1635
 1089TIP3    H127462   5.866   6.710  19.716  0.4025  0.8880 -0.8598
 1089TIP3    H227463   6.010   6.722  19.761  0.3082  0.5383 -0.4688
 1090TIP3   OH227464   2.079   2.583  17.825  0.4191 -0.5988 -0.2134
 1090TIP3    H127465   2.083   2.543  17.912  1.8902  0.1453  0.0815
 1090TIP3    H227466   2.146   2.537  17.774  2.4306  1.6652  0.2429
 1091TIP3   OH227467   0.269   1.270  19.670 -0.0625 -0.5524 -0.1256
 1091TIP3    H127468   0.354   1.286  19.629 -0.2411  0.7346 -0.0376
 1091TIP3    H227469   0.226   1.207  19.613  0.2410  0.1688 -1.1774
 1092TIP3   OH227470   1.135   3.970  19.427 -0.3980 -0.2249 -0.2279
 1092TIP3    H127471   1.146   3.953  19.334  0.0406  0.8973 -0.4060
 1092TIP3    H227472   1.163   3.890  19.470 -0.1096 -0.5752 -1.0465
 1093TIP3   OH227473   1.941   0.109  20.207  0.5763  0.2333  0.1789
 1093TIP3    H127474   1.976   0.114  20.118  0.5988  0.5626  0.2026
 1093TIP3    H227475   2.017   0.090  20.262  0.8639  1.6646  0.3177
 1094TIP3   OH227476   5.802   2.470  19.077 -0.1767 -0.4123  0.2590
 1094TIP3    H127477   5.710   2.449  19.063 -0.0147 -0.9263 -0.0470
 1094TIP3    H227478   5.803   2.565  19.093 -0.6185 -0.1834 -0.9930
 1095TIP3   OH227479   0.091   0.166  19.321 -0.3306 -0.6439  0.6117
 1095TIP3    H127480   0.034   0.243  19.329 -0.5957 -0.7241 -0.4693
 1095TIP3    H227481   0.060   0.120  19.244 -0.2971 -1.9651  1.3664
 1096TIP3   OH227482   3.397   4.036  19.714 -0.5542 -0.7161 -0.9446
 1096TIP3    H127483   3.474   3.981  19.697 -0.2159 -0.2169 -1.0403
 1096TIP3    H227484   3.323   3.978  19.698 -0.2411 -2.0810  1.8946
 1097TIP3   OH227485   0.487   1.033  18.805 -0.8040 -0.0839  0.1388
 1097TIP3    H127486   0.512   1.123  18.787 -0.8707 -0.2321 -0.7136
 1097TIP3    H227487   0.560   0.980  18.773 -2.1258 -0.5221 -2.4331
 1098TIP3   OH227488   3.889   0.676  19.699  0.2395  0.3482 -0.0021
 1098TIP3    H127489   3.972   0.630  19.703  0.7954  1.3262 -0.0375
 1098TIP3    H227490   3.824   0.607  19.681  1.1175 -0.3269 -0.6864
 1099TIP3   OH227491   3.680   0.171  19.100 -0.2262  0.3608 -0.3179
 1099TIP3    H127492   3.671   0.167  19.195 -0.0554 -0.2688 -0.3282
 1099TIP3    H227493   3.626   0.100  19.067 -0.0350  0.3776 -0.6783
 1100TIP3   OH227494   6.479   3.396  20.201  0.1931  0.4913  0.1086
 1100TIP3    H127495   6.556   3.371  20.251 -0.4671 -1.5812  0.1904
 1100TIP3    H227496   6.423   3.441  20.264 -0.5774 -1.9766  1.3286
 1101TIP3   OH227497   2.911   3.626  19.626  0.1754 -0.1877  0.0094
 1101TIP3    H127498   2.928   3.690  19.696  1.9149 -0.9064  0.2923
 1101TIP3    H227499   2.820   3.598  19.641 -0.1333  1.1259  0.7586
 1102TIP3   OH227500   3.677   0.184  19.388 -0.2511  0.8793 -0.2380
 1102TIP3    H127501   3.624   0.264  19.383 -2.2094 -0.3184  0.0221
 1102TIP3    H227502   3.665   0.154  19.478  1.6647  1.0155  0.1105
 1103TIP3   OH227503   5.693   2.042  19.932 -0.0992 -0.2561 -0.1283
 1103TIP3    H127504   5.702   2.096  19.853 -0.0834 -0.0446  0.0153
 1103TIP3    H227505   5.635   1.971  19.906  0.5991 -0.6679 -0.5752
 1104TIP3   OH227506   2.094   0.064  19.236 -0.1883  0.5617 -0.1181
 1104TIP3    H127507   2.000   0.066  19.255 -0.1018  1.4239  0.2567
 1104TIP3    H227508   2.116   0.154  19.212  0.3246  0.1270 -1.3597
 1105TIP3   OH227509   2.270   4.487  18.596 -0.2371 -0.3630  0.1442
 1105TIP3    H127510   2.291   4.423  18.665 -0.8571  0.3817  1.0469
 1105TIP3    H227511   2.314   4.567  18.624  1.1937 -0.5583 -1.3797
 1106TIP3   OH227512   4.940   6.218  18.611 -0.0126  0.1248  0.4071
 1106TIP3    H127513   4.871   6.255  18.555 -0.9806 -1.5865  0.3789
 1106TIP3    H227514   5.021   6.255  18.577 -0.7230  0.3504 -1.1433
 1107TIP3   OH227515   3.301   5.300  18.328  0.3512 -0.0248 -0.4415
 1107TIP3    H127516   3.328   5.267  18.414 -0.9980  0.4242  0.1757
 1107TIP3    H227517   3.250   5.228  18.290 -0.5925  0.4352 -0.0835
 1108TIP3   OH227518   5.895   0.623  20.738 -0.3170  0.3867 -0.3251
 1108TIP3    H127519   5.836   0.609  20.665 -0.6279  0.0587 -0.0136
 1108TIP3    H227520   5.983   0.608  20.701 -0.5612 -1.4244 -0.2588
 1109TIP3   OH227521   4.945   2.746  18.632 -0.0363  0.2413  0.4000
 1109TIP3    H127522   4.933   2.834  18.666  0.0320  0.2840  0.3137
 1109TIP3    H227523   4.957   2.691  18.709 -0.4582  0.2498  0.4746
 1110TIP3   OH227524   4.955   1.006  17.451  0.2575 -0.3878  0.0791
 1110TIP3    H127525   4.997   0.955  17.382 -0.6064 -1.1528  0.1012
 1110TIP3    H227526   4.870   0.964  17.464  0.7179 -0.7718  2.1896
 1111TIP3   OH227527   3.909   1.347  19.528 -0.7475 -0.3854  0.0432
 1111TIP3    H127528   3.835   1.307  19.483 -1.6803 -0.4089  1.5072
 1111TIP3    H227529   3.871   1.385  19.608  0.8197 -0.4320  0.8638
 1112TIP3   OH227530   4.602   2.905  20.590 -0.5114  0.0562 -0.0062
 1112TIP3    H127531   4.596   2.844  20.664 -2.7654  1.1463  0.8421
 1112TIP3    H227532   4.695   2.911  20.570  0.1309 -0.6913  2.4288
 1113TIP3   OH227533   5.896   3.374  18.141  0.1485  0.0323  0.1961
 1113TIP3    H127534   5.825   3.321  18.104 -0.7494  0.0135  1.8422
 1113TIP3    H227535   5.972   3.315  18.141 -0.0370 -0.2273 -0.8078
 1114TIP3   OH227536   1.074   0.278  17.922 -0.2504  0.1182 -0.1805
 1114TIP3    H127537   1.139   0.304  17.988 -0.6539  1.9805 -0.4800
 1114TIP3    H227538   1.076   0.182  17.924  0.8283  0.1336  1.4599
 1115TIP3   OH227539   5.572   5.263  17.244  0.0253 -0.2707 -0.0097
 1115TIP3    H127540   5.489   5.256  17.197  0.5761 -2.5996 -0.7952
 1115TIP3    H227541   5.581   5.356  17.265 -1.8259  0.3288 -1.6353
 1116TIP3   OH227542   3.527   5.572  18.663 -0.3783  0.1028 -0.1219
 1116TIP3    H127543   3.462   5.504  18.683 -0.2832 -0.0417 -0.3058
 1116TIP3    H227544   3.582   5.534  18.596 -0.0716  0.2081  0.0674
 1117TIP3   OH227545   1.688   0.390  20.739 -1.2818 -0.2467  0.5168
 1117TIP3    H127546   1.604   0.356  20.707 -1.1744  0.1395 -0.1770
 1117TIP3    H227547   1.691   0.480  20.708 -0.7433 -0.1632  0.8076
 1118TIP3   OH227548   1.107   0.414  19.742 -0.1206  0.0984  0.1900
 1118TIP3    H127549   1.127   0.321  19.752 -0.7187  0.0211  0.7038
 1118TIP3    H227550   1.068   0.439  19.825  0.7495  1.0031  0.3311
 1119TIP3   OH227551   5.060   4.029  17.594  0.1580 -0.0743 -0.5048
 1119TIP3    H127552   5.015   4.102  17.551 -2.7564 -1.1108  0.5121
 1119TIP3    H227553   5.076   3.966  17.524  0.1223  0.3571 -0.9092
 1120TIP3   OH227554   0.927   0.455  19.928 -0.3013 -0.0623  0.5683
 1120TIP3    H127555   0.848   0.465  19.874  1.0812  2.2477 -1.2557
 1120TIP3    H227556   0.918   0.521  19.996  0.3871  0.8444 -0.1829
 1121TIP3   OH227557   6.045   4.604  19.912  0.3098 -0.8664  0.1257
 1121TIP3    H127558   6.096   4.684  19.924 -0.1643 -0.3525 -1.1489
 1121TIP3    H227559   5.966   4.632  19.866 -0.4321 -1.8900  0.7119
 1122TIP3   OH227560   4.736   2.916  18.453  0.2081  0.2678 -0.0284
 1122TIP3    H127561   4.788   2.912  18.534  0.0116  3.9747  0.4206
 1122TIP3    H227562   4.761   2.999  18.412 -0.9836 -0.6880 -2.9449
 1123TIP3   OH227563   1.703   2.732  19.377  0.4401 -0.0098 -0.7319
 1123TIP3    H127564   1.779   2.753  19.322  0.0450 -0.2983 -1.4081
 1123TIP3    H227565   1.694   2.807  19.435  1.8823 -0.4469  0.0956
 1124TIP3   OH227566   1.322   0.923  18.160  0.1128  0.4075  0.6452
 1124TIP3    H127567   1.360   0.965  18.237  0.4316 -0.3953  0.9352
 1124TIP3    H227568   1.289   0.996  18.107  1.0807  1.0481  0.9003
 1125TIP3   OH227569   1.149   2.839  18.510 -0.0292 -0.2755 -0.2102
 1125TIP3    H127570   1.127   2.932  18.507  1.3097  0.0717 -0.2558
 1125TIP3    H227571   1.218   2.833  18.576  0.9538 -0.9729 -1.2582
 1126TIP3   OH227572   2.959   6.275  18.733 -0.0609  0.0855 -0.0755
 1126TIP3    H127573   3.028   6.208  18.732 -0.8494 -0.8158  1.4415
 1126TIP3    H227574   2.878   6.226  18.722 -0.6809  0.7257  1.3589
 1127TIP3   OH227575   1.058   6.172  18.581  0.5901 -0.2054  0.6851
 1127TIP3    H127576   1.029   6.241  18.640  0.2211 -1.0129  1.4772
 1127TIP3    H227577   0.977   6.128  18.553  0.7453  0.2522 -0.5538
 1128TIP3   OH227578   3.275   2.006  16.625  0.5674 -0.0996 -0.1996
 1128TIP3    H127579   3.266   1.948  16.700  0.8734 -1.3000 -1.0466
 1128TIP3    H227580   3.369   2.010  16.609  0.5850  1.0294  0.1357
 1129TIP3   OH227581   5.180   3.119  18.657  0.5951  0.0690 -0.4903
 1129TIP3    H127582   5.210   3.058  18.590  0.4783  0.3404 -0.7916
 1129TIP3    H227583   5.185   3.205  18.615 -1.1472  0.0788 -0.7513
 1130TIP3   OH227584   5.284   3.331  19.453  0.7015 -0.3877  0.3390
 1130TIP3    H127585   5.257   3.270  19.521 -4.1267  0.7090 -0.1788
 1130TIP3    H227586   5.300   3.413  19.499  0.9731 -0.5036  0.4536
 1131TIP3   OH227587   4.575   1.141  20.028 -0.4040  0.1895  0.0582
 1131TIP3    H127588   4.604   1.161  20.117  1.7661  1.4492 -0.8510
 1131TIP3    H227589   4.604   1.216  19.976  0.6521 -1.6105 -2.1249
 1132TIP3   OH227590   5.057   5.762  18.943 -0.2954 -0.7229  0.2849
 1132TIP3    H127591   5.021   5.827  18.883  0.6343 -0.5148 -0.0602
 1132TIP3    H227592   4.986   5.743  19.004 -0.0999  1.8082  1.4080
 1133TIP3   OH227593   1.145   5.747  19.198  0.2682  0.3514  0.7997
 1133TIP3    H127594   1.173   5.815  19.259 -1.9450  0.4004  1.8290
 1133TIP3    H227595   1.113   5.795  19.121 -0.1535  0.4261  1.0222
 1134TIP3   OH227596   6.285   4.689  19.617  0.1399 -0.0104 -0.3567
 1134TIP3    H127597   6.351   4.646  19.673  0.8911  0.9262 -0.4871
 1134TIP3    H227598   6.206   4.638  19.630 -0.1070  0.9090  2.6414
 1135TIP3   OH227599   4.696   2.925  20.111  0.4276  0.2839  0.2106
 1135TIP3    H127600   4.722   2.836  20.133  0.1955  0.5741  1.7505
 1135TIP3    H227601   4.662   2.962  20.193 -0.2153  1.5301 -0.5758
 1136TIP3   OH227602   2.718   6.331  19.053  0.4900 -0.8669 -0.2518
 1136TIP3    H127603   2.695   6.309  18.963 -0.2528  1.5895 -0.7490
 1136TIP3    H227604   2.643   6.382  19.085  1.6593  0.1264  1.0109
 1137TIP3   OH227605   2.669   4.473  20.261 -0.4341 -0.4175 -0.0307
 1137TIP3    H127606   2.633   4.402  20.315  0.3946 -4.0023 -3.7041
 1137TIP3    H227607   2.764   4.463  20.268 -0.3112 -0.2452 -1.1934
 1138TIP3   OH227608   3.342   4.376  19.538  0.2172 -0.4513 -0.5932
 1138TIP3    H127609   3.425   4.327  19.539  0.9600  0.7438 -1.0101
 1138TIP3    H227610   3.346   4.426  19.456 -0.6815  0.0250 -0.3520
 1139TIP3   OH227611   2.217   0.572  19.546  0.4629  0.8316  0.0249
 1139TIP3    H127612   2.177   0.602  19.628  1.7183 -0.1377  1.0388
 1139TIP3    H227613   2.305   0.610  19.547  1.4824 -1.4006  0.5229
 1140TIP3   OH227614   3.494   0.153  18.015 -0.1814  0.1984  0.4382
 1140TIP3    H127615   3.414   0.100  18.004 -0.2907  0.5564 -0.6280
 1140TIP3    H227616   3.517   0.143  18.107 -1.3655 -0.0462  0.7222
 1141TIP3   OH227617   5.657   2.096  17.864  0.1130  0.1255  0.2331
 1141TIP3    H127618   5.721   2.025  17.857  0.4402  0.3821  0.5414
 1141TIP3    H227619   5.602   2.087  17.787  2.4420  1.8002 -1.7494
 1142TIP3   OH227620   2.795   0.336  17.041  0.2779 -0.0873  0.0074
 1142TIP3    H127621   2.843   0.408  16.999  4.2559 -2.7002 -0.5113
 1142TIP3    H227622   2.785   0.364  17.132  2.8310  0.7796  0.1283
 1143TIP3   OH227623   4.923   5.419  19.890 -0.2649  0.5790  0.5670
 1143TIP3    H127624   4.931   5.390  19.800 -0.2247  1.3768  0.3092
 1143TIP3    H227625   4.951   5.511  19.889 -2.9489  1.5050  0.8277
 1144TIP3   OH227626   4.951   2.382  20.237 -0.6865 -0.5157 -0.2181
 1144TIP3    H127627   4.977   2.299  20.277  1.8555 -0.3554 -1.3761
 1144TIP3    H227628   4.893   2.423  20.301  0.3399 -1.8829  1.6519
 1145TIP3   OH227629   4.264   3.496  20.315  0.2084  0.0624 -0.0445
 1145TIP3    H127630   4.232   3.475  20.403  0.0937  1.0883  0.1793
 1145TIP3    H227631   4.291   3.412  20.278  1.8035 -0.1985  1.5697
 1146TIP3   OH227632   1.200   4.549  19.961 -0.0185  0.1956  0.1688
 1146TIP3    H127633   1.205   4.457  19.935  2.8211  0.2934 -0.0386
 1146TIP3    H227634   1.109   4.574  19.945 -0.6852 -2.3416 -0.5236
 1147TIP3   OH227635   1.956   4.175  17.768  0.3212  0.0886 -0.4883
 1147TIP3    H127636   2.002   4.168  17.684  0.8207 -0.0010 -0.2124
 1147TIP3    H227637   1.892   4.244  17.754  1.3215  1.0337 -0.5365
 1148TIP3   OH227638   4.825   2.617  19.954 -0.5035 -0.2889 -0.6009
 1148TIP3    H127639   4.833   2.572  20.038 -0.0058 -1.1457 -1.0999
 1148TIP3    H227640   4.788   2.552  19.895 -1.8002  0.6034 -0.8224
 1149TIP3   OH227641   2.885   0.690  19.090  0.1981  0.1788 -0.5412
 1149TIP3    H127642   2.947   0.682  19.162  1.1291 -3.0140 -1.4896
 1149TIP3    H227643   2.800   0.674  19.130  0.3126  1.5412  0.2960
 1150TIP3   OH227644   1.954   4.486  20.271  0.1435  0.0338  0.1900
 1150TIP3    H127645   1.994   4.419  20.216 -0.4959 -1.2457  1.2222
 1150TIP3    H227646   2.006   4.484  20.352 -0.1219  0.5163  0.3758
 1151TIP3   OH227647   3.348   3.366  20.545 -0.2242  0.8273 -0.2174
 1151TIP3    H127648   3.389   3.302  20.603  2.2005 -0.2057 -2.8454
 1151TIP3    H227649   3.401   3.445  20.554  0.8114  0.3384 -1.6720
 1152TIP3   OH227650   4.107   3.899  17.396 -0.2173 -0.2215  0.5310
 1152TIP3    H127651   4.031   3.918  17.451 -0.8860  0.8164 -0.7013
 1152TIP3    H227652   4.178   3.953  17.432 -0.5764  0.2475  0.5326
 1153TIP3   OH227653   2.233   6.145  19.840 -0.2399 -0.8553 -0.5330
 1153TIP3    H127654   2.202   6.105  19.921 -0.4830 -0.2824 -0.3430
 1153TIP3    H227655   2.317   6.102  19.823 -0.5268 -1.4884 -0.3639
 1154TIP3   OH227656   0.608   4.515  17.558  0.0875 -0.8307 -0.5717
 1154TIP3    H127657   0.637   4.472  17.638 -1.3195  0.1653  0.5419
 1154TIP3    H227658   0.603   4.608  17.581  0.2888 -0.4306 -2.0304
 1155TIP3   OH227659   6.652   6.187  18.025  0.0860  0.1785 -0.3356
 1155TIP3    H127660   6.575   6.149  18.066  0.8767 -1.1548 -0.0103
 1155TIP3    H227661   6.701   6.112  17.992  2.0920  0.8267  0.9808
 1156TIP3   OH227662   2.513   6.002  17.085 -0.2816 -0.1430 -0.7533
 1156TIP3    H127663   2.487   6.056  17.159 -0.1761  0.0199 -0.8337
 1156TIP3    H227664   2.557   5.927  17.124  0.7253  0.4657 -0.6938
 1157TIP3   OH227665   0.974   4.983  18.574 -0.0185  0.2543  0.1795
 1157TIP3    H127666   0.909   4.968  18.505  2.1793  2.8431 -2.7606
 1157TIP3    H227667   1.007   4.895  18.595 -1.9299 -0.7753 -0.8703
 1158TIP3   OH227668   0.757   1.756  20.261 -0.0109 -0.0631 -0.3028
 1158TIP3    H127669   0.725   1.687  20.203  1.4498  1.2696 -2.8682
 1158TIP3    H227670   0.678   1.795  20.298 -0.9217 -1.9202 -0.1863
 1159TIP3   OH227671   5.338   0.189  20.618  0.8158  0.3175  0.2220
 1159TIP3    H127672   5.356   0.162  20.528  0.6374  1.1523 -0.0792
 1159TIP3    H227673   5.416   0.164  20.667  0.5351 -0.9914  0.0287
 1160TIP3   OH227674   4.812   0.775  20.046  0.5578 -0.0836 -0.7743
 1160TIP3    H127675   4.762   0.801  19.969 -1.1401 -1.6170 -0.2635
 1160TIP3    H227676   4.903   0.781  20.019  0.0684  1.2411 -2.2755
 1161TIP3   OH227677   0.461   0.587  20.415 -0.0318 -0.9824 -0.2071
 1161TIP3    H127678   0.472   0.671  20.460 -0.8368 -1.0654  0.1591
 1161TIP3    H227679   0.487   0.604  20.325 -1.6594  0.0665 -0.5117
 1162TIP3   OH227680   0.082   0.613  18.568  0.2216 -0.2881 -0.0989
 1162TIP3    H127681   0.067   0.632  18.476  0.7325  0.8789  0.0397
 1162TIP3    H227682   0.177   0.623  18.580  0.0453  0.5439  0.7398
 1163TIP3   OH227683   6.630   0.018  19.898  0.1018  0.3150  0.6251
 1163TIP3    H127684   6.618  -0.019  19.986 -0.9230 -0.4716  0.1732
 1163TIP3    H227685   6.719  -0.008  19.874  0.4728  0.7196  1.5086
 1164TIP3   OH227686   5.855   6.453  19.063  0.1839  0.3122  0.0628
 1164TIP3    H127687   5.904   6.406  19.131  1.8993  0.4017 -1.0425
 1164TIP3    H227688   5.921   6.474  18.997 -1.1884  1.3707 -1.0243
 1165TIP3   OH227689   0.556   4.564  19.465 -0.0684  0.9308  0.3467
 1165TIP3    H127690   0.607   4.573  19.546  0.6855 -0.9324  0.1151
 1165TIP3    H227691   0.528   4.654  19.445  1.2897  1.6988  1.6590
 1166TIP3   OH227692   1.008   3.693  18.258  0.3284 -0.0026  0.6714
 1166TIP3    H127693   1.043   3.783  18.257  0.6295 -0.1189 -0.7663
 1166TIP3    H227694   1.056   3.650  18.329  3.4131 -0.2168 -1.3153
 1167TIP3   OH227695   2.866   0.200  20.561  0.5235  0.2666 -0.2173
 1167TIP3    H127696   2.941   0.141  20.562  0.7834  0.6051  0.2379
 1167TIP3    H227697   2.802   0.159  20.618  1.4857  1.4262  1.7932
 1168TIP3   OH227698   1.359   2.575  20.860  0.1919 -0.1821  0.4893
 1168TIP3    H127699   1.444   2.531  20.851  0.4030 -0.4109  2.9005
 1168TIP3    H227700   1.295   2.503  20.861  0.0465 -0.0744 -0.3285
 1169TIP3   OH227701   1.788   2.165  18.089 -0.2743 -0.1793  0.0515
 1169TIP3    H127702   1.765   2.213  18.168 -2.0810  0.5999 -0.8860
 1169TIP3    H227703   1.827   2.231  18.031  0.5913 -0.6389  0.0885
 1170TIP3   OH227704   3.880   4.257  20.816  0.6668  0.2558 -0.0315
 1170TIP3    H127705   3.944   4.283  20.882  0.6005  0.0141  0.1304
 1170TIP3    H227706   3.821   4.333  20.808  1.4963  0.8295 -0.8330
 1171TIP3   OH227707   0.862   5.745  20.483 -0.0338 -0.2965 -0.3789
 1171TIP3    H127708   0.814   5.669  20.517  1.0556 -1.5650 -1.5719
 1171TIP3    H227709   0.952   5.713  20.470  0.7990  1.5838  0.3464
 1172TIP3   OH227710   6.256   5.177  18.315 -0.0053 -0.6620 -0.6005
 1172TIP3    H127711   6.304   5.218  18.244  0.4142 -1.4839 -0.8106
 1172TIP3    H227712   6.292   5.216  18.395  0.4272 -0.6566 -0.7947
 1173TIP3   OH227713   1.134   5.463  19.689  0.3168  0.4083 -0.2193
 1173TIP3    H127714   1.123   5.369  19.700  1.4279  0.3355  0.4272
 1173TIP3    H227715   1.173   5.473  19.602 -1.4682  0.4298 -1.0655
 1174TIP3   OH227716   4.959   4.632  20.397 -0.4555  0.0786  0.5039
 1174TIP3    H127717   4.871   4.594  20.393 -1.2730  1.6170  2.3616
 1174TIP3    H227718   4.953   4.699  20.464  1.5607  1.7952 -0.8970
 1175TIP3   OH227719   2.616   2.603  19.813 -0.7909  0.2652  0.5563
 1175TIP3    H127720   2.656   2.548  19.881 -0.3868  1.8883  1.7026
 1175TIP3    H227721   2.676   2.677  19.804 -3.0497  2.3880  1.7327
 1176TIP3   OH227722   5.566   4.454  19.583 -0.0481  0.7649  0.4516
 1176TIP3    H127723   5.575   4.422  19.673  2.8390  0.9138  0.3077
 1176TIP3    H227724   5.563   4.374  19.530  1.7917  0.6294  0.4837
 1177TIP3   OH227725   4.538   3.294  20.384  0.6810 -0.4111  0.2193
 1177TIP3    H127726   4.469   3.235  20.415 -0.6263  0.9879  0.0902
 1177TIP3    H227727   4.612   3.236  20.366 -0.0840 -1.8398  1.3843
 1178TIP3   OH227728   0.429   2.815  18.941  0.2469 -0.1878  0.1573
 1178TIP3    H127729   0.483   2.857  18.875  1.5192 -0.3822  1.0363
 1178TIP3    H227730   0.482   2.819  19.021 -0.3919 -1.7716  0.6928
 1179TIP3   OH227731   3.767   3.752  18.769 -0.3184  0.7046 -0.3642
 1179TIP3    H127732   3.843   3.733  18.715 -0.4382  0.8969 -0.6045
 1179TIP3    H227733   3.730   3.832  18.731 -0.5896  0.6604 -0.1973
 1180TIP3   OH227734   3.998   6.268  18.758  0.2415 -0.0963 -0.0025
 1180TIP3    H127735   3.976   6.322  18.834 -1.5995 -0.5876 -0.1317
 1180TIP3    H227736   3.966   6.318  18.683  0.9344 -0.1728 -0.3533
 1181TIP3   OH227737   3.859   3.679  19.014 -0.1014 -0.5424 -0.1570
 1181TIP3    H127738   3.790   3.614  19.004 -1.3447  0.5589  0.8752
 1181TIP3    H227739   3.831   3.753  18.962 -0.1536  0.2464  0.9595
 1182TIP3   OH227740   4.235   6.232  20.532 -0.2679 -0.1063  0.3023
 1182TIP3    H127741   4.294   6.210  20.604  0.7359  2.1520  0.2485
 1182TIP3    H227742   4.292   6.271  20.466 -1.2514 -1.5988 -1.5380
 1183TIP3   OH227743   0.978   2.720  18.197  0.9069  0.0348  0.3897
 1183TIP3    H127744   0.918   2.653  18.164 -0.4223  0.6007  1.5420
 1183TIP3    H227745   1.062   2.700  18.156 -0.0866 -0.7124 -1.3886
 1184TIP3   OH227746   3.274   6.422  17.673  0.3484 -0.4550 -0.5231
 1184TIP3    H127747   3.293   6.505  17.628 -1.3611  1.6554  2.2663
 1184TIP3    H227748   3.213   6.377  17.616  0.1671  0.9030 -1.4655
 1185TIP3   OH227749   0.299   2.876  17.582 -0.5175  0.2503  0.3438
 1185TIP3    H127750   0.249   2.874  17.501  1.1867 -0.1119 -0.7569
 1185TIP3    H227751   0.302   2.785  17.611  0.5343  0.0739 -0.2806
 1186TIP3   OH227752   5.650   4.934  18.659 -0.2834 -0.0281  0.1483
 1186TIP3    H127753   5.735   4.956  18.698  0.1595 -1.4673  0.0351
 1186TIP3    H227754   5.594   4.912  18.734 -0.4537  0.5233  0.1912
 1187TIP3   OH227755   4.579   2.451  20.375  0.2541  0.1581  0.1151
 1187TIP3    H127756   4.527   2.504  20.436 -0.9485 -0.3116 -0.4710
 1187TIP3    H227757   4.569   2.361  20.406 -0.4275 -0.0952 -0.7818
 1188TIP3   OH227758   4.539   3.843  18.677  0.1030  0.0797  0.0066
 1188TIP3    H127759   4.582   3.913  18.728 -0.6777  0.5019  0.1032
 1188TIP3    H227760   4.462   3.885  18.639 -0.4300 -0.7586  0.1392
 1189TIP3   OH227761   2.583   6.194  18.219 -0.1884  0.0506 -0.1989
 1189TIP3    H127762   2.489   6.191  18.202 -0.3665 -2.2931  0.8335
 1189TIP3    H227763   2.612   6.103  18.214  1.1740  0.0869  3.7795
 1190TIP3   OH227764   0.991   2.231  20.597 -0.2602  0.2958  0.2825
 1190TIP3    H127765   0.942   2.256  20.519 -0.9376 -0.9063  0.2833
 1190TIP3    H227766   1.043   2.156  20.569  0.5705  0.7319  0.6356
 1191TIP3   OH227767   4.368   2.144  17.783  0.0300 -0.5208  0.7384
 1191TIP3    H127768   4.439   2.111  17.728  0.5902 -1.0041  1.7398
 1191TIP3    H227769   4.303   2.178  17.720  0.9383 -0.4696 -0.1937
 1192TIP3   OH227770   6.338   5.574  16.667  0.0228  0.6431  0.1308
 1192TIP3    H127771   6.289   5.611  16.741  0.7856  0.9389  0.4948
 1192TIP3    H227772   6.301   5.618  16.590 -0.8794  0.2255  0.3138
 1193TIP3   OH227773   6.450   0.700  19.528  0.2796  0.0192  0.0529
 1193TIP3    H127774   6.458   0.606  19.546 -2.5955 -0.5273 -0.8677
 1193TIP3    H227775   6.486   0.711  19.440 -1.4039 -0.7312 -0.7736
 1194TIP3   OH227776   1.151   2.831  18.013  0.1682  0.5009  0.3739
 1194TIP3    H127777   1.156   2.926  18.006  0.7857  0.4832  0.5301
 1194TIP3    H227778   1.099   2.804  17.937 -0.0244  0.9604  0.3402
 1195TIP3   OH227779   1.178   4.324  20.515 -0.5774 -0.2190 -0.1096
 1195TIP3    H127780   1.085   4.344  20.525 -0.4028 -0.0922  1.5073
 1195TIP3    H227781   1.219   4.410  20.501 -0.8406 -0.4115 -2.4685
 1196TIP3   OH227782   5.108   3.717  18.337  0.5755  0.2226 -0.2602
 1196TIP3    H127783   5.161   3.650  18.292 -0.5684 -0.9237  0.0279
 1196TIP3    H227784   5.162   3.796  18.335  1.2373 -0.2153 -2.2199
 1197TIP3   OH227785   2.289   5.256  19.842 -0.2381 -0.0631 -0.2551
 1197TIP3    H127786   2.285   5.313  19.765  0.5316  0.3558 -0.0003
 1197TIP3    H227787   2.205   5.269  19.887  1.2384  3.8372  1.8535
 1198TIP3   OH227788   5.769   0.110  18.447 -0.5599 -0.2328 -0.4289
 1198TIP3    H127789   5.678   0.121  18.420 -0.4588 -0.8212 -1.0335
 1198TIP3    H227790   5.765   0.087  18.539 -0.9717  0.6986 -0.2023
 1199TIP3   OH227791   3.392   2.073  17.381  0.5789  0.3399 -0.6851
 1199TIP3    H127792   3.426   2.089  17.469  1.3362 -1.1742 -0.6667
 1199TIP3    H227793   3.466   2.036  17.333 -1.4631 -6.2724  0.2399
 1200TIP3   OH227794   3.802   5.902  19.617 -0.2933  0.0504  0.9740
 1200TIP3    H127795   3.728   5.877  19.561 -0.1538  1.7326 -0.0542
 1200TIP3    H227796   3.828   5.821  19.661 -1.1766 -1.0917 -0.5141
 1201TIP3   OH227797   3.898   1.899  17.816 -0.4399  0.1172  0.0813
 1201TIP3    H127798   3.828   1.911  17.753 -0.4972  2.0052  0.4252
 1201TIP3    H227799   3.854   1.878  17.898 -0.6753  1.6685  0.3825
 1202TIP3   OH227800   6.614   5.744  20.842 -0.1983 -0.2185 -0.7086
 1202TIP3    H127801   6.552   5.672  20.830  1.1295 -1.1148 -2.6924
 1202TIP3    H227802   6.578   5.816  20.790 -0.2245 -0.3194 -0.8302
 1203TIP3   OH227803   6.293   4.293  20.614  0.1929 -0.4764 -0.1565
 1203TIP3    H127804   6.335   4.213  20.585  1.1937  0.2226 -0.6724
 1203TIP3    H227805   6.240   4.266  20.690  0.7996 -1.5390 -0.0940
 1204TIP3   OH227806   0.611   6.296  19.129 -0.3511 -0.6295  0.0073
 1204TIP3    H127807   0.692   6.333  19.164 -1.7050  2.6643  0.0377
 1204TIP3    H227808   0.612   6.204  19.156  2.8800 -0.4712  0.7882
 1205TIP3   OH227809   1.093   4.405  18.779 -0.6781 -0.2694  0.5363
 1205TIP3    H127810   1.048   4.488  18.759  0.3494  0.1434 -0.1184
 1205TIP3    H227811   1.029   4.355  18.830 -2.0078  0.1664 -0.6453
 1206TIP3   OH227812   3.244   3.201  20.129  0.2209 -0.0128 -0.0207
 1206TIP3    H127813   3.181   3.211  20.201 -0.5504 -1.4524 -0.4600
 1206TIP3    H227814   3.291   3.120  20.149  3.0045  1.6926  1.0345
 1207TIP3   OH227815   1.762   1.966  19.314  0.1770  0.2027 -0.8856
 1207TIP3    H127816   1.854   1.963  19.340 -0.2339 -0.7072  0.5271
 1207TIP3    H227817   1.713   1.944  19.393 -1.2596  0.4447 -1.6672
 1208TIP3   OH227818   1.385   0.607  19.127  0.0673 -0.3246 -0.4967
 1208TIP3    H127819   1.392   0.552  19.050 -1.1765 -0.3513 -0.6051
 1208TIP3    H227820   1.387   0.547  19.201  0.0856 -0.3883 -0.5504
 1209TIP3   OH227821   6.618   1.901  19.614  0.0425 -0.6170  0.0824
 1209TIP3    H127822   6.668   1.935  19.540 -0.6790  0.2182 -0.0443
 1209TIP3    H227823   6.656   1.815  19.632  0.5903 -0.5891 -0.8949
 1210TIP3   OH227824   3.155   3.289  18.871 -0.3994 -0.0159  0.4637
 1210TIP3    H127825   3.212   3.248  18.806 -2.3670 -2.1547 -0.0452
 1210TIP3    H227826   3.206   3.287  18.952  0.1213 -2.3221  0.1517
 1211TIP3   OH227827   1.812   4.344  17.056 -0.1634 -0.5570  0.3455
 1211TIP3    H127828   1.903   4.329  17.031  0.1985  0.4312  1.0030
 1211TIP3    H227829   1.760   4.302  16.988  0.7846 -0.3710 -0.5006
 1212TIP3   OH227830   1.685   0.379  19.818 -0.6556  0.4432  0.3270
 1212TIP3    H127831   1.632   0.391  19.740  0.0854  0.9988 -0.1025
 1212TIP3    H227832   1.775   0.397  19.790  0.0212 -1.9766  0.6605
 1213TIP3   OH227833   1.556   6.551  20.521  0.4413 -0.8070 -0.3963
 1213TIP3    H127834   1.600   6.583  20.443 -0.1313 -1.8106 -1.1576
 1213TIP3    H227835   1.607   6.586  20.594  0.3817  1.0073 -1.1729
 1214TIP3   OH227836   4.558   4.530  19.443 -0.2188  0.2184  0.1326
 1214TIP3    H127837   4.515   4.604  19.486 -0.3449  0.6125 -0.6603
 1214TIP3    H227838   4.557   4.460  19.509 -3.7712 -0.4309 -0.4124
 1215TIP3   OH227839   2.107   2.959  18.253 -0.1301 -0.2434 -0.5706
 1215TIP3    H127840   2.014   2.936  18.250  0.5788 -3.4770 -2.2983
 1215TIP3    H227841   2.129   2.978  18.162  0.5715  2.5716  0.0891
 1216TIP3   OH227842   3.384   4.131  20.209  0.4551  0.3719  0.3336
 1216TIP3    H127843   3.311   4.098  20.261 -0.9344 -0.8115 -2.1705
 1216TIP3    H227844   3.381   4.226  20.219  0.8556  0.1542  3.0793
 1217TIP3   OH227845   4.649   4.576  20.430 -0.1000  0.1242  0.2383
 1217TIP3    H127846   4.605   4.532  20.502  0.8486  1.0050  1.4143
 1217TIP3    H227847   4.598   4.656  20.415  0.1888  0.3691  0.5375
 1218TIP3   OH227848   3.881   0.354  19.657  0.1174 -0.3141  0.3084
 1218TIP3    H127849   3.900   0.275  19.607  0.1293 -0.0909 -0.0478
 1218TIP3    H227850   3.927   0.424  19.610 -0.2647 -0.0259  0.3529
 1219TIP3   OH227851   4.492   0.151  18.951  1.0051 -0.3599  0.7847
 1219TIP3    H127852   4.466   0.075  19.004 -1.3713  1.0600  1.8336
 1219TIP3    H227853   4.427   0.154  18.880 -0.3855  1.8574  2.0240
 1220TIP3   OH227854   2.596   0.803  20.512 -0.0236  0.1401  0.3619
 1220TIP3    H127855   2.529   0.770  20.571  0.4399 -0.8877  0.3283
 1220TIP3    H227856   2.547   0.828  20.433 -0.5725  1.0176  0.9566
 1221TIP3   OH227857   4.474   1.801  17.536 -0.1293 -0.0994  0.3935
 1221TIP3    H127858   4.535   1.756  17.594  1.5416 -1.0095 -1.9405
 1221TIP3    H227859   4.430   1.731  17.488  0.5018  0.6413 -1.3339
 1222TIP3   OH227860   6.447   1.892  20.525  0.4835  0.1308 -0.6863
 1222TIP3    H127861   6.455   1.879  20.620 -1.5661 -0.2294 -0.5239
 1222TIP3    H227862   6.486   1.978  20.510  1.9516 -0.3228  0.2752
 1223TIP3   OH227863   0.139   1.583  20.211  0.0537 -0.0695 -0.7011
 1223TIP3    H127864   0.202   1.512  20.196 -0.7626 -0.5630 -1.9293
 1223TIP3    H227865   0.148   1.640  20.135 -1.0252 -0.1964 -0.9449
 1224TIP3   OH227866   2.040   3.999  19.246  0.3301 -0.3945  0.1916
 1224TIP3    H127867   1.975   4.038  19.305 -1.0266 -2.7032  0.3523
 1224TIP3    H227868   2.121   3.999  19.296 -0.0796  0.4385  0.8815
 1225TIP3   OH227869   1.182   5.212  18.814  0.4171  0.0415  0.4703
 1225TIP3    H127870   1.232   5.181  18.889  0.2638  0.5810  0.8033
 1225TIP3    H227871   1.147   5.297  18.842  0.8045  0.5004 -0.4034
 1226TIP3   OH227872   5.823   3.674  17.996  0.1058  0.1231  0.5906
 1226TIP3    H127873   5.829   3.762  17.957 -1.1204 -0.3561 -0.7826
 1226TIP3    H227874   5.876   3.619  17.938  0.6591 -0.0995  1.2991
 1227TIP3   OH227875   5.686   4.613  17.607 -0.2579  0.4937 -0.3032
 1227TIP3    H127876   5.776   4.637  17.631 -1.4293  2.0989  3.2464
 1227TIP3    H227877   5.659   4.680  17.545  0.2351  1.5722  0.6119
 1228TIP3   OH227878   6.007   0.648  20.114  0.0931  0.1778 -0.0760
 1228TIP3    H127879   6.038   0.589  20.182  0.1133  0.1061 -0.1464
 1228TIP3    H227880   6.060   0.628  20.037  0.0376  0.2240 -0.1263
 1229TIP3   OH227881   1.009   2.583  17.539  0.0505 -0.4685 -0.6476
 1229TIP3    H127882   1.019   2.579  17.635  0.2743 -0.9552 -0.6905
 1229TIP3    H227883   1.046   2.668  17.516 -0.1164 -0.2929 -0.2883
 1230TIP3   OH227884   0.312   6.218  20.459 -0.5383  0.1713 -0.5438
 1230TIP3    H127885   0.304   6.197  20.366  0.8967  0.9853 -0.8809
 1230TIP3    H227886   0.337   6.135  20.500  0.7825  0.2377 -1.1930
 1231TIP3   OH227887   0.327   1.926  20.760 -0.2228  0.1951  0.2524
 1231TIP3    H127888   0.313   2.017  20.786 -0.7898  0.0070  0.6354
 1231TIP3    H227889   0.420   1.909  20.778 -0.3848  0.3541  1.2995
 1232TIP3   OH227890   4.434   4.346  19.996  0.2674  0.2775 -0.0332
 1232TIP3    H127891   4.449   4.264  19.948  0.0967  0.2562 -0.0502
 1232TIP3    H227892   4.384   4.319  20.073  0.1605  0.3737 -0.0689
 1233TIP3   OH227893   2.651   5.037  17.713  0.4054 -0.3891  0.2191
 1233TIP3    H127894   2.744   5.052  17.696  0.4077  0.7215  1.0720
 1233TIP3    H227895   2.606   5.099  17.656  0.2684  0.2224  0.9642
 1234TIP3   OH227896   5.243   3.470  18.884  0.4878 -0.1807 -0.1984
 1234TIP3    H127897   5.169   3.409  18.885 -0.1566  0.3277 -3.4985
 1234TIP3    H227898   5.204   3.555  18.904  0.0334  0.1128 -2.0860
 1235TIP3   OH227899   3.497   4.491  20.713  0.0643  0.2429 -0.2198
 1235TIP3    H127900   3.539   4.571  20.682  0.8542  0.1823  0.6810
 1235TIP3    H227901   3.408   4.519  20.737  0.3697  0.8838  0.2025
 1236TIP3   OH227902   4.214   1.895  18.451  0.1436  0.2195  0.1564
 1236TIP3    H127903   4.159   1.818  18.465 -0.5842  0.6261 -0.4290
 1236TIP3    H227904   4.300   1.859  18.429  0.0316 -0.4183  0.7169
 1237TIP3   OH227905   6.362   0.235  19.827  0.0624  0.0319  0.2221
 1237TIP3    H127906   6.378   0.143  19.847 -2.0003 -0.3876  0.2128
 1237TIP3    H227907   6.322   0.270  19.907 -2.2576 -0.0029 -0.8262
 1238TIP3   OH227908   3.463   3.444  19.480  0.1399 -0.5657 -0.0499
 1238TIP3    H127909   3.487   3.352  19.466 -2.9341 -1.2265 -1.9743
 1238TIP3    H227910   3.449   3.478  19.391  0.0458  1.4405  0.6870
 1239TIP3   OH227911   3.589   5.937  18.451 -0.0942  0.3089 -0.1339
 1239TIP3    H127912   3.630   5.983  18.378  1.3896  0.0965  0.5060
 1239TIP3    H227913   3.663   5.893  18.495 -1.0271 -0.0493  1.1242
 1240TIP3   OH227914   2.095   4.169  18.412 -0.3157  0.5712 -0.1237
 1240TIP3    H127915   2.156   4.097  18.429 -0.5718  0.6780  1.4794
 1240TIP3    H227916   2.095   4.180  18.317  2.2927  0.6724 -0.1716
 1241TIP3   OH227917   5.744   0.398  18.061  0.3559 -0.2981 -0.1968
 1241TIP3    H127918   5.704   0.462  18.119 -0.4360 -1.0422  0.0919
 1241TIP3    H227919   5.687   0.397  17.984 -0.0008 -1.1117  0.0704
 1242TIP3   OH227920   0.291   4.010  17.831 -0.0800 -0.2719  0.2662
 1242TIP3    H127921   0.356   4.079  17.816 -0.5424  0.2355  0.5759
 1242TIP3    H227922   0.343   3.933  17.856  0.6292 -0.7189 -2.2674
 1243TIP3   OH227923   3.364   1.046  19.897  0.3616 -0.2152 -0.2142
 1243TIP3    H127924   3.373   0.958  19.861  0.6783  0.1812 -1.1260
 1243TIP3    H227925   3.318   1.033  19.980 -0.0531 -1.1835 -0.5811
 1244TIP3   OH227926   0.273   4.432  18.393  0.1138  0.4863 -0.3768
 1244TIP3    H127927   0.234   4.352  18.359  2.2979 -0.5795 -0.5809
 1244TIP3    H227928   0.201   4.494  18.400 -1.1612 -0.6170 -2.8637
 1245TIP3   OH227929   0.731   3.807  17.686  0.2623 -0.2333  0.4382
 1245TIP3    H127930   0.712   3.720  17.721 -1.8050 -0.5668 -1.3574
 1245TIP3    H227931   0.799   3.792  17.621  0.5598 -0.3372  0.7652
 1246TIP3   OH227932   2.934   4.860  18.870 -0.1006 -0.1631  0.2848
 1246TIP3    H127933   3.006   4.807  18.905 -0.4963 -1.4992 -0.8151
 1246TIP3    H227934   2.876   4.874  18.944  0.3547 -0.7032  0.7570
 1247TIP3   OH227935   2.015   1.761  17.735 -0.1556 -0.1086  0.2020
 1247TIP3    H127936   2.103   1.799  17.737 -1.1853  2.5034  2.3607
 1247TIP3    H227937   1.975   1.797  17.656  0.0568  0.4743  0.3508
 1248TIP3   OH227938   2.528   2.018  17.304  0.1607 -0.1687 -0.5462
 1248TIP3    H127939   2.616   1.995  17.333  0.5802  0.6587 -1.1504
 1248TIP3    H227940   2.540   2.078  17.231 -0.8662  1.7645  0.7450
 1249TIP3   OH227941   2.396   3.293  19.212  0.6847  0.0676  0.3095
 1249TIP3    H127942   2.427   3.288  19.302 -0.5962 -1.0274  0.7239
 1249TIP3    H227943   2.394   3.202  19.182 -2.3391 -0.0307  0.4618
 1250TIP3   OH227944   6.064   5.823  19.770  0.4201  0.1698 -0.2364
 1250TIP3    H127945   5.996   5.849  19.708  1.4683  1.0893 -1.0280
 1250TIP3    H227946   6.022   5.830  19.856 -1.2679 -1.7933 -0.8186
 1251TIP3   OH227947   1.218   1.067  20.268 -0.5740 -0.5036 -0.4248
 1251TIP3    H127948   1.146   1.040  20.212 -0.7313 -0.2199 -0.3619
 1251TIP3    H227949   1.254   1.145  20.224 -0.9820 -0.0112  0.1013
 1252TIP3   OH227950   0.929   0.972  18.394 -0.0496 -0.0162 -0.3852
 1252TIP3    H127951   0.854   0.915  18.374  1.0124 -1.5137 -0.2008
 1252TIP3    H227952   0.999   0.941  18.337  0.7552  0.7034  0.1933
 1253TIP3   OH227953   1.887   0.386  17.969 -0.3299 -0.2076 -0.4749
 1253TIP3    H127954   1.849   0.300  17.952  0.0854 -0.7550  1.2097
 1253TIP3    H227955   1.815   0.438  18.004  0.1232 -0.8728  1.5488
 1254TIP3   OH227956   0.976   3.840  20.074  0.3953  0.1767  0.4087
 1254TIP3    H127957   1.066   3.871  20.088 -0.1988  1.9991  0.4269
 1254TIP3    H227958   0.986   3.764  20.017  1.8923  0.9867 -0.4720
 1255TIP3   OH227959   4.206   4.166  17.674 -0.9521  0.4275 -0.2983
 1255TIP3    H127960   4.117   4.131  17.675 -0.5178 -0.8939 -2.0568
 1255TIP3    H227961   4.238   4.145  17.586  1.3328  0.2422  0.5283
 1256TIP3   OH227962   5.807   6.384  17.453 -0.3584  0.1262 -0.1838
 1256TIP3    H127963   5.719   6.369  17.418  0.2160  1.2284 -2.2298
 1256TIP3    H227964   5.804   6.473  17.488 -0.0479  0.1929 -0.3213
 1257TIP3   OH227965   6.408   2.599  20.440  0.0378  0.4159 -0.1550
 1257TIP3    H127966   6.373   2.510  20.444  0.6218  0.0664 -2.0353
 1257TIP3    H227967   6.347   2.646  20.384  0.4318  0.8585 -0.2170
 1258TIP3   OH227968   6.408   6.329  17.961 -0.3874  0.4830 -0.6897
 1258TIP3    H127969   6.465   6.357  18.032 -1.8850  0.2109  0.6568
 1258TIP3    H227970   6.377   6.410  17.921  0.1038  0.6381 -0.7689
 1259TIP3   OH227971   0.259   1.324  18.383  0.3309  0.5501  0.1656
 1259TIP3    H127972   0.339   1.370  18.357  0.1897  0.2533 -0.8584
 1259TIP3    H227973   0.288   1.236  18.406  0.5548  1.0204  1.7890
 1260TIP3   OH227974   0.902   1.922  19.603 -0.0586  0.3993  0.5514
 1260TIP3    H127975   0.866   1.934  19.515 -0.0372  1.5846  0.6994
 1260TIP3    H227976   0.875   1.833  19.626 -0.2621  0.1505 -0.5571
 1261TIP3   OH227977   0.985   3.126  17.700 -0.3139 -0.0407 -0.1150
 1261TIP3    H127978   0.987   3.131  17.605 -1.4707  0.9894 -0.1126
 1261TIP3    H227979   0.893   3.139  17.723 -0.3902 -2.2238  1.0718
 1262TIP3   OH227980   0.599   6.573  18.300  0.0008  0.0301 -0.2122
 1262TIP3    H127981   0.526   6.556  18.240  0.3910 -1.7989 -0.2326
 1262TIP3    H227982   0.621   6.665  18.285 -0.9148  0.0415 -1.7409
 1263TIP3   OH227983   1.084   0.639  19.325  0.4117 -0.1312 -0.1230
 1263TIP3    H127984   1.051   0.594  19.247  1.2154 -0.3500 -0.3415
 1263TIP3    H227985   1.007   0.682  19.361 -0.0989 -0.5487 -0.6823
 1264TIP3   OH227986   5.753   3.077  19.715 -0.2398  0.2999 -0.1000
 1264TIP3    H127987   5.779   2.985  19.714  0.8017  0.5824 -0.6638
 1264TIP3    H227988   5.831   3.124  19.744 -0.6737  1.0385 -0.0868
 1265TIP3   OH227989   1.454   3.131  17.715 -0.2379  0.4678  0.0514
 1265TIP3    H127990   1.451   3.044  17.755 -1.1256 -0.7897 -2.5405
 1265TIP3    H227991   1.532   3.130  17.660 -1.0913  0.6871 -1.2161
 1266TIP3   OH227992   1.570   5.733  18.273 -0.4616 -0.3820 -0.0578
 1266TIP3    H127993   1.621   5.809  18.302  1.1264 -2.1944  2.3336
 1266TIP3    H227994   1.570   5.674  18.349 -3.2529 -1.9878 -1.1677
 1267TIP3   OH227995   0.816   4.411  18.509 -0.4347  0.2165 -0.6174
 1267TIP3    H127996   0.752   4.356  18.554 -1.2168  1.8512  0.3622
 1267TIP3    H227997   0.869   4.448  18.580  0.0266  0.7841 -1.2502
 1268TIP3   OH227998   3.467   2.760  18.068 -0.1160 -0.1071  0.0888
 1268TIP3    H127999   3.418   2.758  17.986  0.1159  1.8078 -0.1354
 1268TIP3    H228000   3.557   2.780  18.043  0.1333 -0.3667  0.7416
 1269TIP3   OH228001   5.630   5.377  18.182  0.0211 -0.7266  0.9548
 1269TIP3    H128002   5.552   5.431  18.191  0.5355  0.0552  0.9098
 1269TIP3    H228003   5.687   5.406  18.254  1.0616  0.1379 -0.1613
 1270TIP3   OH228004   4.870   2.855  17.394  0.3265  0.3576  0.4682
 1270TIP3    H128005   4.866   2.939  17.348  0.1233  1.0258  1.6712
 1270TIP3    H228006   4.862   2.790  17.325 -0.7662  1.3419 -0.3731
 1271TIP3   OH228007   3.953   4.345  18.052  0.4537  0.0487  0.1559
 1271TIP3    H128008   3.910   4.260  18.064 -1.5234  0.5491 -2.4726
 1271TIP3    H228009   4.022   4.328  17.988 -0.1824  0.4672 -0.6503
 1272TIP3   OH228010   5.365   2.596  18.855 -0.2412  0.1802  0.0627
 1272TIP3    H128011   5.379   2.524  18.794  2.5573  0.3133  0.4052
 1272TIP3    H228012   5.364   2.675  18.801  2.9960  0.3731  0.0840
 1273TIP3   OH228013   1.525   1.742  18.243  0.1422  0.2540  0.4836
 1273TIP3    H128014   1.449   1.729  18.300  0.8153 -1.2584  1.0934
 1273TIP3    H228015   1.540   1.657  18.203  0.2166  1.0912 -1.3303
 1274TIP3   OH228016   5.874   3.701  19.767 -0.1266  0.4230  0.3613
 1274TIP3    H128017   5.855   3.608  19.783  0.9102  0.1284 -0.0362
 1274TIP3    H228018   5.966   3.702  19.740 -0.4790  1.4238 -0.8712
 1275TIP3   OH228019   0.929   5.137  17.931  0.5166  0.0928  0.7120
 1275TIP3    H128020   0.865   5.208  17.946 -1.4306 -0.8542 -2.1351
 1275TIP3    H228021   0.898   5.065  17.986  1.2243  0.7432  1.9812
 1276TIP3   OH228022   3.518   3.228  19.344 -0.1834 -0.2458  0.1488
 1276TIP3    H128023   3.595   3.264  19.300 -0.6694  1.1377  0.3887
 1276TIP3    H228024   3.506   3.142  19.304  1.1165 -0.2331 -0.3251
 1277TIP3   OH228025   5.138   0.375  18.168  0.6254  0.0100 -0.7120
 1277TIP3    H128026   5.079   0.391  18.241  1.3217  1.4063 -0.4226
 1277TIP3    H228027   5.115   0.287  18.138 -0.1623 -0.3104  0.7189
 1278TIP3   OH228028   1.967   0.671  17.657  0.3080 -0.0752  0.1650
 1278TIP3    H128029   2.057   0.672  17.689  0.9679  1.1987 -1.6102
 1278TIP3    H228030   1.966   0.603  17.590 -0.0460 -0.0145  0.1062
 1279TIP3   OH228031   4.029   1.168  20.673 -0.2702  0.2202 -0.1230
 1279TIP3    H128032   4.073   1.247  20.643 -0.9990  0.7058  0.0483
 1279TIP3    H228033   4.100   1.108  20.698  0.3002  0.5604 -0.8912
 1280TIP3   OH228034   5.361   6.090  20.045 -0.0383 -0.2405  0.4087
 1280TIP3    H128035   5.398   6.129  19.966 -0.9013 -0.8168 -0.2997
 1280TIP3    H228036   5.339   6.166  20.101 -0.7940  0.2658 -0.5425
 1281TIP3   OH228037   3.287   5.392  17.437  0.2139  0.6955 -0.6245
 1281TIP3    H128038   3.364   5.399  17.381  0.3410  1.4360 -0.3663
 1281TIP3    H228039   3.260   5.483  17.452 -0.0241  0.4946  0.2242
 1282TIP3   OH228040   0.724   4.027  19.468  0.0964 -0.4449  0.3028
 1282TIP3    H128041   0.718   3.943  19.423 -1.7355 -0.0459 -0.2902
 1282TIP3    H228042   0.692   4.009  19.556  0.2734 -0.4933  0.3568
 1283TIP3   OH228043   0.094   6.363  19.867  0.1766 -0.1533 -0.5426
 1283TIP3    H128044   0.115   6.351  19.960  0.8905  1.6668 -0.4306
 1283TIP3    H228045   0.003   6.334  19.859 -0.2505  0.6518  0.9825
 1284TIP3   OH228046   5.494   1.736  17.980 -0.1526 -0.0257 -0.1449
 1284TIP3    H128047   5.415   1.689  18.009  0.4107 -0.3078  0.9742
 1284TIP3    H228048   5.460   1.805  17.923 -1.2098 -0.1746  0.2699
 1285TIP3   OH228049   5.594   6.359  20.278  0.1935  0.3827 -0.3891
 1285TIP3    H128050   5.504   6.342  20.303  0.5236  0.4881  0.9353
 1285TIP3    H228051   5.617   6.286  20.221 -0.1469 -0.6845  0.7949
 1286TIP3   OH228052   0.391   2.197  20.830  1.1882 -0.3973  0.1012
 1286TIP3    H128053   0.377   2.198  20.925  0.1471 -2.1203  0.0217
 1286TIP3    H228054   0.331   2.263  20.797 -0.0237 -1.2331  0.5249
 1287TIP3   OH228055   0.778   5.881  20.248  0.4378 -0.4071 -0.5904
 1287TIP3    H128056   0.836   5.957  20.250  0.7810 -0.6140  2.7650
 1287TIP3    H228057   0.794   5.836  20.331 -2.8551 -1.7806 -0.5308
 1288TIP3   OH228058   5.714   6.670  18.949 -0.2079 -0.1462  0.0730
 1288TIP3    H128059   5.636   6.640  18.994 -0.1212 -0.0162  0.3136
 1288TIP3    H228060   5.779   6.602  18.966 -0.5732 -0.8029 -1.0410
 1289TIP3   OH228061   1.718   4.483  19.391  0.0531  0.1754  0.2615
 1289TIP3    H128062   1.694   4.400  19.349 -0.3928  0.3749  0.1207
 1289TIP3    H228063   1.797   4.462  19.441 -0.9275 -0.7361  1.4952
 1290TIP3   OH228064   3.870   5.894  20.796 -0.0268  0.1849 -0.1082
 1290TIP3    H128065   3.819   5.967  20.761 -0.4891 -0.5448 -1.0005
 1290TIP3    H228066   3.806   5.823  20.808  0.5884 -0.4026 -0.2386
 1291TIP3   OH228067   3.703   2.976  19.992 -0.4175 -0.4186  0.1223
 1291TIP3    H128068   3.647   3.053  19.998 -1.0555 -0.8746  0.1160
 1291TIP3    H228069   3.643   2.902  20.000  0.1185 -0.9231 -0.4316
 1292TIP3   OH228070   3.663   1.850  19.178 -0.4303 -0.2282 -0.2368
 1292TIP3    H128071   3.740   1.792  19.180 -1.1175 -1.1446  1.8961
 1292TIP3    H228072   3.693   1.927  19.129  1.4935 -1.0265 -0.4213
 1293TIP3   OH228073   5.178   2.318  17.673  0.3517 -0.0252 -0.0346
 1293TIP3    H128074   5.088   2.350  17.670  0.6375  1.1869  2.0876
 1293TIP3    H228075   5.169   2.224  17.691 -0.4893  0.0455 -0.0389
 1294TIP3   OH228076   3.754   5.343  18.830  0.3174 -0.1478 -0.4543
 1294TIP3    H128077   3.711   5.268  18.790  0.2778 -0.4797  0.2057
 1294TIP3    H228078   3.845   5.337  18.800  0.4873 -0.8810  0.1971
 1295TIP3   OH228079   4.576   1.152  19.054  0.0344  0.0833 -0.1794
 1295TIP3    H128080   4.487   1.137  19.019 -0.1842  1.4395 -0.2594
 1295TIP3    H228081   4.617   1.208  18.989  1.5813 -1.9003 -1.0126
 1296TIP3   OH228082   2.042   4.970  19.933  0.3277  0.0656 -0.2251
 1296TIP3    H128083   2.012   5.061  19.925 -0.3705 -0.3093 -2.5776
 1296TIP3    H228084   1.971   4.918  19.897  1.1563 -1.3549  0.1264
 1297TIP3   OH228085   6.275   2.767  19.262 -0.3608 -0.3936  0.0934
 1297TIP3    H128086   6.269   2.787  19.356 -0.4838 -0.0711  0.0178
 1297TIP3    H228087   6.360   2.725  19.252  0.0999  0.5042  0.1831
 1298TIP3   OH228088   4.969   0.192  20.950  0.4203 -0.2164  0.3144
 1298TIP3    H128089   5.034   0.139  20.905 -1.1028 -1.1688 -0.8535
 1298TIP3    H228090   4.954   0.147  21.033  2.1734  0.7490  1.2171
 1299TIP3   OH228091   4.226   5.108  20.065  0.2574  0.0916 -0.1449
 1299TIP3    H128092   4.165   5.110  20.139  0.7730 -1.0629  0.3383
 1299TIP3    H228093   4.254   5.017  20.060  2.0945  0.6194 -0.2201
 1300TIP3   OH228094   6.524   1.705  20.347 -0.2227 -0.1300 -0.3142
 1300TIP3    H128095   6.583   1.763  20.299 -0.7932 -0.7216 -1.8016
 1300TIP3    H228096   6.504   1.752  20.428 -0.8003  1.8328 -1.5383
 1301TIP3   OH228097   1.336   1.703  18.421 -0.6353  0.6128 -0.0195
 1301TIP3    H128098   1.350   1.740  18.508 -2.6750  0.7959  0.2632
 1301TIP3    H228099   1.248   1.665  18.424 -1.3661  1.9081 -2.4156
 1302TIP3   OH228100   1.760   3.005  19.454 -0.2332  0.3112 -0.1246
 1302TIP3    H128101   1.760   3.100  19.459 -0.7425  0.3791 -1.0697
 1302TIP3    H228102   1.852   2.980  19.458 -0.1729  0.7205  1.8226
 1303TIP3   OH228103   6.065   5.109  20.214  0.6312  0.2122  0.5422
 1303TIP3    H128104   6.118   5.106  20.134 -0.3559  1.0677 -0.1693
 1303TIP3    H228105   6.044   5.202  20.225  0.2388  0.0281  1.4641
 1304TIP3   OH228106   0.848   4.859  17.987 -0.1793  0.3968  0.7666
 1304TIP3    H128107   0.944   4.859  17.984 -0.1966  1.1773 -0.4598
 1304TIP3    H228108   0.826   4.776  18.028  1.0086 -0.3921 -0.0931
 1305TIP3   OH228109   4.561   4.812  20.588 -0.0988  0.3300 -0.6100
 1305TIP3    H128110   4.571   4.796  20.682  1.4065  1.2812 -0.5729
 1305TIP3    H228111   4.485   4.870  20.581  1.2515  2.3389  0.3151
 1306TIP3   OH228112   2.595   6.541  20.291  0.5351  0.0691 -0.8057
 1306TIP3    H128113   2.656   6.596  20.340 -0.2947  0.1199  0.1986
 1306TIP3    H228114   2.649   6.502  20.221  2.3126 -1.7220  1.4139
 1307TIP3   OH228115   2.323   4.495  19.298  0.6581 -0.5142  0.1408
 1307TIP3    H128116   2.336   4.400  19.289  0.4269 -0.4777 -0.7600
 1307TIP3    H228117   2.238   4.510  19.256  0.4196  0.0196  0.7955
 1308TIP3   OH228118   3.979   5.926  18.087 -0.0992  0.0500  0.1965
 1308TIP3    H128119   3.998   5.836  18.062  1.1092  0.2390  0.3571
 1308TIP3    H228120   3.894   5.923  18.130 -0.6838 -0.7996 -0.9647
 1309TIP3   OH228121   2.153   6.611  20.557 -0.1773 -0.0384  0.3117
 1309TIP3    H128122   2.139   6.679  20.491 -0.3927  0.8327  1.2465
 1309TIP3    H228123   2.235   6.568  20.529 -0.7262 -0.2898 -1.0105
 1310TIP3   OH228124   2.649   4.794  18.249  0.0539 -1.0838  0.3115
 1310TIP3    H128125   2.675   4.885  18.262 -0.7403 -0.5791 -1.2942
 1310TIP3    H228126   2.623   4.763  18.336  1.2568 -0.1001  1.0504
 1311TIP3   OH228127   2.855   6.353  18.329  0.2184  0.3544 -0.3185
 1311TIP3    H128128   2.941   6.329  18.362  0.7270  0.4577 -1.5111
 1311TIP3    H228129   2.826   6.424  18.386  0.5037 -0.3081  0.6732
 1312TIP3   OH228130   1.754   4.718  18.260 -0.1070 -0.2536  0.0527
 1312TIP3    H128131   1.786   4.628  18.252  1.6706  0.3613 -0.3248
 1312TIP3    H228132   1.664   4.709  18.291  0.6269 -2.1296  1.8753
 1313TIP3   OH228133   4.754   5.888  20.855 -0.3527 -0.0136  0.0824
 1313TIP3    H128134   4.724   5.943  20.782  0.6313  0.4196 -0.0147
 1313TIP3    H228135   4.769   5.949  20.927 -1.1190 -0.4153  0.5866
 1314TIP3   OH228136   6.126   0.261  19.332  0.1975 -0.2167  0.0237
 1314TIP3    H128137   6.031   0.264  19.342  0.1227  0.3331 -0.7438
 1314TIP3    H228138   6.160   0.283  19.419 -0.4116  3.0113 -0.4186
 1315TIP3   OH228139   2.743   5.058  18.304 -0.9006 -0.6012 -0.0917
 1315TIP3    H128140   2.745   5.125  18.236  0.5191  1.1508  1.5844
 1315TIP3    H228141   2.670   5.084  18.360 -0.2759 -0.3696  0.6247
 1316TIP3   OH228142   6.227   1.623  18.505 -0.0236  0.2920  0.2091
 1316TIP3    H128143   6.143   1.584  18.531  0.1059  1.2210  2.1678
 1316TIP3    H228144   6.209   1.716  18.496  0.6489  0.4038 -0.0393
 1317TIP3   OH228145   5.656   2.294  18.491 -0.0262  0.6693 -0.1954
 1317TIP3    H128146   5.646   2.206  18.453  0.3218  1.6261 -2.6648
 1317TIP3    H228147   5.734   2.287  18.545  0.4292 -0.3757 -0.9378
 1318TIP3   OH228148   0.803   4.958  19.353 -0.3306 -0.6229 -0.3440
 1318TIP3    H128149   0.830   5.038  19.307  0.2160 -0.5407  0.1106
 1318TIP3    H228150   0.790   4.986  19.443 -2.5534 -0.5282 -0.6419
 1319TIP3   OH228151   0.607   3.359  20.734  0.1760 -0.3936  0.1936
 1319TIP3    H128152   0.656   3.352  20.652 -1.9176  2.6831 -1.4858
 1319TIP3    H228153   0.602   3.453  20.752 -2.8588 -0.7194  1.6615
 1320TIP3   OH228154   0.068   6.065  20.743 -0.5623 -0.4495 -0.3998
 1320TIP3    H128155  -0.021   6.034  20.763 -0.1959 -1.2157  0.0810
 1320TIP3    H228156   0.060   6.161  20.745 -1.6479 -0.4882 -1.5977
 1321TIP3   OH228157   2.660   5.647  20.592  0.1821  0.7001 -0.2534
 1321TIP3    H128158   2.675   5.553  20.594  0.8714  0.7389 -2.2060
 1321TIP3    H228159   2.575   5.657  20.548  0.3741  1.0110 -0.5597
 1322TIP3   OH228160   5.320   3.028  18.168 -0.2890 -0.0127 -0.2498
 1322TIP3    H128161   5.386   2.959  18.166  0.2871  0.5315 -0.1073
 1322TIP3    H228162   5.267   3.013  18.089 -2.3207 -2.6861  1.4096
 1323TIP3   OH228163   6.084   2.118  20.506  0.4925  0.0643  0.1433
 1323TIP3    H128164   5.996   2.152  20.486  1.2026  2.0387  0.2197
 1323TIP3    H228165   6.104   2.061  20.432 -1.0588 -0.8626  0.3920
 1324TIP3   OH228166   4.040   5.763  19.980 -0.0118 -0.3827  0.2626
 1324TIP3    H128167   4.126   5.731  19.953  0.5470  0.2498  1.2351
 1324TIP3    H228168   4.042   5.856  19.959 -0.0468 -0.1460  1.2616
 1325TIP3   OH228169   1.191   5.045  19.501 -0.4314 -0.0181 -0.0616
 1325TIP3    H128170   1.235   4.963  19.521  1.2531  0.0673 -2.8772
 1325TIP3    H228171   1.252   5.113  19.530  0.3998  0.1233 -1.9985
 1326TIP3   OH228172   6.455   3.725  18.519  0.4000 -0.2286 -0.4075
 1326TIP3    H128173   6.451   3.810  18.476  2.0899  0.7273  1.1775
 1326TIP3    H228174   6.402   3.736  18.599  2.1971  0.0429  0.8123
 1327TIP3   OH228175   5.980   4.147  19.586 -0.1813 -0.4207  0.2704
 1327TIP3    H128176   6.035   4.136  19.664  1.7841  0.1426 -0.9583
 1327TIP3    H228177   5.936   4.231  19.600  0.2532 -0.2561  0.7305
 1328TIP3   OH228178   0.078   4.739  18.743 -0.2125  0.0291 -0.2661
 1328TIP3    H128179   0.116   4.791  18.814  3.1410 -1.1280 -1.0394
 1328TIP3    H228180   0.061   4.654  18.783 -0.5237  0.0664 -0.3145
 1329TIP3   OH228181   4.921   3.019  18.665 -0.2270  0.2825  0.2490
 1329TIP3    H128182   5.001   3.065  18.637 -1.2237  1.8076 -0.2357
 1329TIP3    H228183   4.855   3.088  18.671 -1.2779 -0.7978  1.6167
 1330TIP3   OH228184   4.755   5.800  18.798 -0.2422 -0.3772 -0.1210
 1330TIP3    H128185   4.830   5.853  18.770  0.4314 -1.6584 -0.8344
 1330TIP3    H228186   4.689   5.864  18.822  0.6110  0.7946 -0.7631
 1331TIP3   OH228187   5.143   4.270  19.540 -0.3692  0.1809  0.3192
 1331TIP3    H128188   5.081   4.222  19.485 -0.3567  0.5360 -0.0075
 1331TIP3    H228189   5.200   4.202  19.575  0.2371  0.0357 -0.8912
 1332TIP3   OH228190   5.229   6.234  19.206  0.0185  0.0311 -0.4658
 1332TIP3    H128191   5.218   6.144  19.175 -0.5535 -0.5751  1.3919
 1332TIP3    H228192   5.311   6.263  19.165  0.2184 -1.3156 -1.0882
 1333TIP3   OH228193   2.213   3.398  18.123 -0.3343 -0.1302 -0.4717
 1333TIP3    H128194   2.289   3.342  18.109 -0.7822 -2.1954  3.8398
 1333TIP3    H228195   2.249   3.481  18.153  0.2778 -0.4499 -0.3048
 1334TIP3   OH228196   2.173   1.790  20.255 -0.5852  0.3727 -0.1113
 1334TIP3    H128197   2.199   1.802  20.164 -0.0223  1.3740  0.1743
 1334TIP3    H228198   2.233   1.723  20.289 -1.1912 -0.4567 -0.6259
 1335TIP3   OH228199   3.688   0.964  18.042  0.1648 -0.0811  0.2310
 1335TIP3    H128200   3.705   1.053  18.074 -1.1065 -0.1579  1.2012
 1335TIP3    H228201   3.659   0.975  17.952 -0.9646  0.5963  0.6592
 1336TIP3   OH228202   0.672   0.514  16.962 -0.5537  0.2035 -0.1369
 1336TIP3    H128203   0.708   0.427  16.946  1.1561  0.7858  0.3196
 1336TIP3    H228204   0.619   0.532  16.884  1.5076 -0.0549 -1.7047
 1337TIP3   OH228205   3.445   1.254  17.990  0.6265  0.0106 -0.3619
 1337TIP3    H128206   3.426   1.162  17.972 -0.2227  0.2968 -0.9815
 1337TIP3    H228207   3.431   1.264  18.084 -0.0707 -0.3243 -0.4238
 1338TIP3   OH228208   3.975   6.591  19.309  0.1491 -0.1307 -0.4140
 1338TIP3    H128209   3.924   6.568  19.230 -0.7044  0.7976 -0.1596
 1338TIP3    H228210   3.932   6.543  19.380  0.0088  0.1692 -0.2942
 1339TIP3   OH228211   1.485   0.308  18.211 -0.0696 -0.3822  0.7148
 1339TIP3    H128212   1.441   0.245  18.153  0.4510 -0.9595  0.9339
 1339TIP3    H228213   1.473   0.392  18.167  0.9465 -0.9056 -0.6460
 1340TIP3   OH228214   1.563   4.640  20.359 -0.4127 -0.3834  0.1866
 1340TIP3    H128215   1.652   4.675  20.366 -0.4437  0.0228 -1.1599
 1340TIP3    H228216   1.525   4.653  20.446  0.6502 -0.0410  0.6192
 1341TIP3   OH228217   5.379   0.289  19.030  0.2787 -0.1194 -0.0348
 1341TIP3    H128218   5.342   0.230  18.964  0.1781  2.7266 -2.7719
 1341TIP3    H228219   5.473   0.282  19.018  0.4372 -1.7844  1.7114
 1342TIP3   OH228220   5.559   4.392  17.724 -0.3577 -0.3277 -0.8372
 1342TIP3    H128221   5.496   4.389  17.651 -0.6497  1.4537 -0.7211
 1342TIP3    H228222   5.622   4.459  17.698  1.7274 -2.2581 -1.0671
 1343TIP3   OH228223   6.246   0.206  18.568 -0.0895  0.5757 -0.2152
 1343TIP3    H128224   6.275   0.205  18.659 -0.0348 -0.3803 -0.2368
 1343TIP3    H228225   6.150   0.209  18.573 -0.1197 -0.4393 -0.1160
 1344TIP3   OH228226   2.576   4.178  20.047 -0.2429 -0.5975  0.6317
 1344TIP3    H128227   2.492   4.173  20.092 -1.5839  1.1618 -1.4711
 1344TIP3    H228228   2.553   4.195  19.956  2.3968  1.1857  0.1841
 1345TIP3   OH228229   0.686   6.200  19.488 -0.2343 -0.4175 -0.0148
 1345TIP3    H128230   0.621   6.134  19.510  1.6729 -2.2026  0.4880
 1345TIP3    H228231   0.737   6.162  19.417  1.1154  0.3661  0.4963
 1346TIP3   OH228232   6.259   1.754  19.090  0.7608  0.0587 -0.2827
 1346TIP3    H128233   6.340   1.793  19.122  0.0748 -0.1273  1.8207
 1346TIP3    H228234   6.266   1.661  19.115  0.1638 -0.0853 -0.6264
 1347TIP3   OH228235   1.205   3.148  20.651 -0.3107 -0.0463 -0.2704
 1347TIP3    H128236   1.157   3.130  20.732  2.7737 -0.4080  1.6682
 1347TIP3    H228237   1.229   3.062  20.617 -0.1811  0.1396 -0.6577
 1348TIP3   OH228238   1.298   1.829  17.989  0.0797 -0.6479 -0.1597
 1348TIP3    H128239   1.384   1.822  17.948 -0.5766  0.6323 -1.8707
 1348TIP3    H228240   1.264   1.739  17.990  0.3966 -0.8301 -1.9252
 1349TIP3   OH228241   3.516   3.327  18.750  0.0154 -0.2179 -0.0928
 1349TIP3    H128242   3.540   3.389  18.681 -0.5166  0.2578  0.1366
 1349TIP3    H228243   3.431   3.292  18.722 -0.7371  0.8044  0.8462
 1350TIP3   OH228244   0.810   3.877  20.292  0.3532  0.4902  0.2915
 1350TIP3    H128245   0.788   3.968  20.269 -0.1827  1.0019  2.5524
 1350TIP3    H228246   0.872   3.850  20.225  0.5313  2.5393 -0.4472
 1351TIP3   OH228247   3.695   5.437  18.501  0.0496 -0.1116  0.9228
 1351TIP3    H128248   3.627   5.377  18.531 -0.6828  0.3075  0.1360
 1351TIP3    H228249   3.777   5.390  18.519 -0.4418 -0.6875  1.7346
 1352TIP3   OH228250   5.944   4.615  18.909 -0.4426  0.2455 -0.2774
 1352TIP3    H128251   5.878   4.584  18.970 -0.0924 -3.6591 -1.6099
 1352TIP3    H228252   5.895   4.653  18.836 -1.1853 -1.1417 -0.5185
 1353TIP3   OH228253   5.146   6.139  20.435  0.2391  0.0841 -0.3800
 1353TIP3    H128254   5.223   6.173  20.390 -1.0704  0.1004 -2.7579
 1353TIP3    H228255   5.145   6.046  20.413  0.3882 -0.2323  0.9024
 1354TIP3   OH228256   3.093   0.356  17.654  0.0189 -0.1524  0.3885
 1354TIP3    H128257   3.004   0.376  17.626 -0.3376 -2.4142 -0.2791
 1354TIP3    H228258   3.140   0.336  17.573  0.5393 -1.1357  0.9183
 1355TIP3   OH228259   2.403   4.380  20.745  0.0424  0.2917 -0.1241
 1355TIP3    H128260   2.452   4.320  20.803 -0.9768 -0.5368 -0.0894
 1355TIP3    H228261   2.457   4.386  20.666  1.9052  2.1179  1.1492
 1356TIP3   OH228262   4.998   2.879  18.237 -0.0519  1.0589  0.3579
 1356TIP3    H128263   4.931   2.812  18.229 -0.4733  1.7100 -2.4994
 1356TIP3    H228264   4.957   2.959  18.205  1.5642  1.8337  0.0934
 1357TIP3   OH228265   2.065   1.933  19.333 -0.3459 -0.0724  0.0748
 1357TIP3    H128266   2.073   1.852  19.282  0.2095 -0.1270  0.2341
 1357TIP3    H228267   2.145   1.982  19.312 -0.6592  0.4140  0.0132
 1358TIP3   OH228268   6.232   4.965  20.426 -0.1382  0.2763 -0.1203
 1358TIP3    H128269   6.148   5.010  20.429  0.3526  1.1909  0.1626
 1358TIP3    H228270   6.217   4.889  20.370 -1.2913  0.1295  0.3607
 1359TIP3   OH228271   4.317   5.122  19.461 -0.7835  0.3172  0.2774
 1359TIP3    H128272   4.256   5.154  19.394 -0.8692 -0.8251 -0.2253
 1359TIP3    H228273   4.321   5.191  19.526 -1.9903  0.7574 -0.0939
 1360TIP3   OH228274   6.028   4.439  20.147 -0.2722  0.6477 -0.0415
 1360TIP3    H128275   6.048   4.492  20.070  0.9754 -0.2442 -0.3594
 1360TIP3    H228276   5.947   4.393  20.124  1.0378 -1.0175 -1.6235
 1361TIP3   OH228277   3.330   0.778  19.825  0.2071  0.0751 -0.2116
 1361TIP3    H128278   3.236   0.796  19.830 -0.0792 -1.6250  2.7621
 1361TIP3    H228279   3.337   0.707  19.762 -0.9168 -1.5218  1.3550
 1362TIP3   OH228280   2.992   1.767  20.105  0.1029  0.1717  0.2224
 1362TIP3    H128281   2.914   1.816  20.079 -0.3269 -0.3043  0.5884
 1362TIP3    H228282   3.062   1.832  20.107 -0.3934  0.7070  0.3881
 1363TIP3   OH228283   5.986   0.380  18.242  0.0252 -0.0955 -0.1464
 1363TIP3    H128284   5.958   0.289  18.247  1.6559 -0.7997 -2.2017
 1363TIP3    H228285   5.932   0.419  18.173 -0.5475  0.4672  0.6032
 1364TIP3   OH228286   6.491   0.888  20.751 -0.2388 -0.0355 -0.4394
 1364TIP3    H128287   6.415   0.852  20.705 -0.5360  1.2628 -1.0377
 1364TIP3    H228288   6.480   0.860  20.842 -1.6920  0.5034 -0.4194
 1365TIP3   OH228289   3.123   3.043  19.323  0.5814 -0.1730  0.6107
 1365TIP3    H128290   3.116   2.978  19.254 -1.1175 -0.7962  1.3025
 1365TIP3    H228291   3.092   3.124  19.283  1.1273 -0.1621  0.2056
 1366TIP3   OH228292   3.427   1.193  19.562  0.1893 -0.2694 -0.2866
 1366TIP3    H128293   3.338   1.158  19.553 -0.3232  1.2418 -1.4285
 1366TIP3    H228294   3.465   1.185  19.474  0.7100  0.3035 -0.1209
 1367TIP3   OH228295   2.766   5.406  19.965 -0.2665 -0.5643 -0.1642
 1367TIP3    H128296   2.738   5.493  19.937  1.5839 -0.1371 -0.7693
 1367TIP3    H228297   2.684   5.360  19.983 -1.3809  0.4981 -2.1956
 1368TIP3   OH228298   4.840   1.430  20.852  0.1718 -0.1636 -0.6488
 1368TIP3    H128299   4.816   1.405  20.763  1.8791  1.2829 -1.5652
 1368TIP3    H228300   4.893   1.356  20.883 -0.9940 -0.9852 -0.5319
 1369TIP3   OH228301   1.281   4.315  19.831 -0.6539  0.2365  0.0306
 1369TIP3    H128302   1.348   4.248  19.821 -0.7346  0.0515  0.7052
 1369TIP3    H228303   1.231   4.312  19.749  0.3917  0.6474 -0.6465
 1370TIP3   OH228304   5.008   3.819  19.127  0.4969 -0.0656  0.2139
 1370TIP3    H128305   5.085   3.858  19.085 -0.1305  2.0780  0.9750
 1370TIP3    H228306   4.938   3.827  19.062  0.3550  0.0731  0.3857
 1371TIP3   OH228307   5.285   6.383  19.879 -0.2959  0.1270  0.4090
 1371TIP3    H128308   5.285   6.470  19.838 -1.1858 -0.8641 -1.8449
 1371TIP3    H228309   5.342   6.331  19.824 -0.3476 -0.9312  1.3203
 1372TIP3   OH228310   1.418   4.681  19.886  0.0686 -0.4854  0.1472
 1372TIP3    H128311   1.452   4.724  19.964 -1.5220  0.6386  0.2747
 1372TIP3    H228312   1.351   4.621  19.919  0.2081 -0.8683 -0.2615
 1373TIP3   OH228313   4.109   2.567  17.860  0.0238  0.1157 -0.2792
 1373TIP3    H128314   4.034   2.545  17.915  0.6617  1.6938  1.3266
 1373TIP3    H228315   4.079   2.551  17.770 -1.3830 -1.6082  0.4400
 1374TIP3   OH228316   5.759   1.394  18.942  0.1387 -0.5197 -0.8180
 1374TIP3    H128317   5.825   1.328  18.918  2.2055  1.5874 -1.2975
 1374TIP3    H228318   5.810   1.467  18.976 -2.1247  0.5615  0.4823
 1375TIP3   OH228319   4.313   4.397  19.373 -0.3365  0.1238 -0.0575
 1375TIP3    H128320   4.247   4.464  19.391 -0.9785 -0.6071  0.3267
 1375TIP3    H228321   4.393   4.447  19.357 -0.7022  0.9712  0.6598
 1376TIP3   OH228322   0.288   0.947  17.496 -0.1066  0.3049 -0.6599
 1376TIP3    H128323   0.276   1.041  17.509 -0.1617  0.0344  1.7766
 1376TIP3    H228324   0.201   0.915  17.472 -0.2731  0.7767 -0.7018
 1377TIP3   OH228325   4.824   6.309  20.600 -0.0264  0.6547 -0.2326
 1377TIP3    H128326   4.748   6.342  20.551  0.5413 -0.2901 -1.8343
 1377TIP3    H228327   4.823   6.215  20.584  1.0284  0.5253  0.4026
 1378TIP3   OH228328   2.150   6.509  18.147 -0.1325  0.0437  0.2576
 1378TIP3    H128329   2.058   6.488  18.157 -0.0450 -0.2907  0.3645
 1378TIP3    H228330   2.195   6.454  18.211  0.3418 -1.2735 -1.1571
 1379TIP3   OH228331   3.188   5.327  17.900  0.1353 -0.2348  0.0856
 1379TIP3    H128332   3.119   5.261  17.895  1.9124 -2.3216  1.3381
 1379TIP3    H228333   3.152   5.403  17.854 -2.1582 -1.9202 -1.1029
 1380TIP3   OH228334   2.261   0.712  18.640  0.4035 -0.2679 -0.4520
 1380TIP3    H128335   2.253   0.807  18.634 -1.6481 -0.4476 -1.8807
 1380TIP3    H228336   2.207   0.679  18.568  2.0844 -2.5165 -0.7932
 1381TIP3   OH228337   1.487   2.546  19.356  0.1222 -0.4334 -0.6226
 1381TIP3    H128338   1.427   2.584  19.292 -1.1230 -1.5537 -0.1544
 1381TIP3    H228339   1.536   2.621  19.389 -1.4283  0.6178 -0.5927
 1382TIP3   OH228340   4.235   5.392  20.084  0.1763 -0.4563  0.5641
 1382TIP3    H128341   4.206   5.302  20.069 -2.5042  0.2420  0.9769
 1382TIP3    H228342   4.226   5.405  20.179 -0.1358  0.4082  0.4299
 1383TIP3   OH228343   6.381   5.219  18.789  0.2484 -0.3881 -0.3596
 1383TIP3    H128344   6.339   5.134  18.795  1.7095 -1.2015 -1.0724
 1383TIP3    H228345   6.371   5.258  18.876 -2.3093 -0.3221 -0.6183
 1384TIP3   OH228346   2.526   1.804  20.149 -0.0709 -0.0964 -0.8007
 1384TIP3    H128347   2.559   1.737  20.089  0.5829  0.2340 -0.8139
 1384TIP3    H228348   2.520   1.883  20.095 -2.9511 -0.5935 -1.3989
 1385TIP3   OH228349   5.582   1.512  18.796  0.1373 -0.3831 -0.1946
 1385TIP3    H128350   5.571   1.604  18.823  3.0885  0.2919 -0.9137
 1385TIP3    H228351   5.648   1.477  18.856  1.0248 -1.1755 -1.5672
 1386TIP3   OH228352   5.151   4.447  20.535 -0.4535  0.0630 -0.0480
 1386TIP3    H128353   5.189   4.359  20.529  0.8151  0.4732  1.3710
 1386TIP3    H228354   5.133   4.471  20.444  1.0784 -0.8837 -0.6507
 1387TIP3   OH228355   1.980   4.145  17.328  0.1577  0.2188  0.5800
 1387TIP3    H128356   2.025   4.131  17.411  0.1978  1.1173  0.7224
 1387TIP3    H228357   1.900   4.192  17.352  0.8048  1.6755  0.0022
 1388TIP3   OH228358   3.561   3.521  18.027 -0.1096 -0.2920 -0.1206
 1388TIP3    H128359   3.590   3.497  17.939  0.9155 -0.1760  0.1754
 1388TIP3    H228360   3.614   3.597  18.051 -0.1733 -0.4923  0.7056
 1389TIP3   OH228361   0.469   2.303  20.161  0.0393  0.1496 -0.1769
 1389TIP3    H128362   0.399   2.283  20.099  0.0692  1.2359 -0.5901
 1389TIP3    H228363   0.545   2.320  20.106  0.5470 -0.6933  0.2543
 1390TIP3   OH228364   3.059   3.008  18.837  0.0219 -0.0230 -0.1966
 1390TIP3    H128365   3.056   3.103  18.842 -1.7832  0.2144 -3.1919
 1390TIP3    H228366   2.968   2.981  18.847  0.3708 -1.3492 -0.3978
 1391TIP3   OH228367   3.744   1.279  18.070  0.4070 -0.2985  0.1235
 1391TIP3    H128368   3.683   1.284  18.144  1.3285  1.5763  0.8217
 1391TIP3    H228369   3.692   1.308  17.994  0.3236  1.1525  0.6880
 1392TIP3   OH228370   6.361   2.448  18.044 -0.5908  0.1127  0.1657
 1392TIP3    H128371   6.321   2.415  18.124 -1.1363  2.0799  0.7688
 1392TIP3    H228372   6.367   2.543  18.058 -0.0109  0.4130 -1.8307
 1393TIP3   OH228373   5.919   2.887  19.347  0.3227 -0.7101  0.4336
 1393TIP3    H128374   5.980   2.951  19.310  0.8009 -1.3699  0.0708
 1393TIP3    H228375   5.844   2.940  19.375  1.1045  0.1254  0.9987
 1394TIP3   OH228376   1.359   3.815  19.279 -1.0342  0.4531 -0.4830
 1394TIP3    H128377   1.395   3.856  19.358 -0.5689 -1.4208  0.3338
 1394TIP3    H228378   1.411   3.852  19.208  1.0136 -0.4363  0.4462
 1395TIP3   OH228379   6.250   2.600  20.199 -0.5220 -0.2622  0.3944
 1395TIP3    H128380   6.194   2.591  20.122 -0.8438  2.4772  0.2091
 1395TIP3    H228381   6.191   2.585  20.273 -0.3266 -2.3619  0.1937
 1396TIP3   OH228382   2.400   5.191  20.734  0.0727  0.3128 -0.0346
 1396TIP3    H128383   2.340   5.144  20.676 -1.2647  0.1813  1.3946
 1396TIP3    H228384   2.433   5.124  20.794  0.0718  0.7425  0.4544
 1397TIP3   OH228385   0.921   6.424  18.742  0.3786 -0.4364  0.1272
 1397TIP3    H128386   0.913   6.481  18.666 -0.2967  0.3827  0.7766
 1397TIP3    H228387   0.831   6.395  18.759  0.1070  1.2492  1.9517
 1398TIP3   OH228388   4.864   5.591  20.503  0.0349 -0.1655 -0.0978
 1398TIP3    H128389   4.909   5.674  20.522 -0.7626  0.3286 -0.3369
 1398TIP3    H228390   4.858   5.548  20.589  0.2151  0.1381  0.0706
 1399TIP3   OH228391   3.578   1.473  20.663 -0.3435 -0.0948  0.0787
 1399TIP3    H128392   3.532   1.390  20.669  2.1497 -1.5692  0.3099
 1399TIP3    H228393   3.658   1.453  20.615  0.9163  1.8816  1.1972
 1400TIP3   OH228394   4.172   6.511  19.814 -0.0664 -0.1795 -0.6101
 1400TIP3    H128395   4.248   6.537  19.761  0.1219 -0.0845 -0.2949
 1400TIP3    H228396   4.099   6.560  19.777  0.1963  0.4323 -0.3274
 1401TIP3   OH228397   6.029   0.621  19.412  0.2980 -0.1459  0.2653
 1401TIP3    H128398   6.077   0.567  19.349 -0.3623 -1.4274  0.8251
 1401TIP3    H228399   6.085   0.697  19.426  1.0452 -0.4597 -0.8981
 1402TIP3   OH228400   5.016   3.116  20.143  0.0770  0.3939 -0.4964
 1402TIP3    H128401   5.083   3.182  20.158  0.5735 -0.1839 -0.0868
 1402TIP3    H228402   4.944   3.163  20.102  0.4797  1.1534 -0.3479
 1403TIP3   OH228403   5.421   5.927  19.419  0.5785 -0.6457  0.2646
 1403TIP3    H128404   5.365   5.913  19.495  0.5249  2.0585  0.8470
 1403TIP3    H228405   5.365   5.910  19.344 -0.0541 -1.1549  0.8398
 1404TIP3   OH228406   5.574   1.805  20.879 -0.3263 -0.6727 -0.8301
 1404TIP3    H128407   5.577   1.901  20.877 -2.2672 -0.5974 -1.4970
 1404TIP3    H228408   5.664   1.780  20.901 -0.1789  1.3217  1.2092
 1405TIP3   OH228409   3.849   6.090  19.809 -0.2379  0.5133 -0.0773
 1405TIP3    H128410   3.916   6.066  19.873 -0.1571  0.3594 -0.2199
 1405TIP3    H228411   3.862   6.029  19.737 -2.1749 -1.2505  0.9637
 1406TIP3   OH228412   6.133   6.032  17.263 -0.7312 -0.3880  0.1611
 1406TIP3    H128413   6.049   6.069  17.291 -0.0538  0.4198  1.2264
 1406TIP3    H228414   6.138   5.948  17.308 -1.4285 -0.9501 -0.7657
 1407TIP3   OH228415   5.021   1.591  18.851  0.0251  0.3443 -0.1216
 1407TIP3    H128416   4.986   1.567  18.765  0.1671  1.7086 -0.5746
 1407TIP3    H228417   5.071   1.671  18.835  0.3534  0.4101  1.1693
 1408TIP3   OH228418   1.498   3.843  17.890  0.3008  0.1668  0.1803
 1408TIP3    H128419   1.507   3.819  17.983 -0.3923  0.8080  0.4292
 1408TIP3    H228420   1.540   3.929  17.884  2.9316 -1.0722 -0.7352
 1409TIP3   OH228421   2.902   6.646  20.339  0.2723  0.2491  0.0737
 1409TIP3    H128422   2.923   6.553  20.346  0.2637  0.0292 -2.1447
 1409TIP3    H228423   2.924   6.682  20.425 -0.3196 -1.8897  1.1889
 1410TIP3   OH228424   4.502   6.092  20.296 -0.2753  0.3788  0.3081
 1410TIP3    H128425   4.571   6.042  20.251  1.3929  0.8695  2.1487
 1410TIP3    H228426   4.451   6.026  20.343  1.0121  0.2159  1.5493
 1411TIP3   OH228427   4.736   3.144  17.663 -0.5808  0.1957  0.5308
 1411TIP3    H128428   4.738   3.225  17.611  2.1654  0.3799  0.7445
 1411TIP3    H228429   4.743   3.074  17.599 -0.6425  0.2447  0.4709
 1412TIP3   OH228430   4.375   0.797  19.651  0.3358 -0.1489 -0.4117
 1412TIP3    H128431   4.298   0.761  19.696  0.6570  0.2377  0.4623
 1412TIP3    H228432   4.354   0.788  19.558  0.2176 -2.1952 -0.2321
 1413TIP3   OH228433   0.669   1.923  18.195  0.2165 -0.0159 -0.3024
 1413TIP3    H128434   0.760   1.918  18.225 -0.2301 -2.0190  0.8850
 1413TIP3    H228435   0.647   2.016  18.200  2.3253  0.5888 -1.0959
 1414TIP3   OH228436   3.053   4.958  20.545 -0.4238 -0.5329  0.3240
 1414TIP3    H128437   2.978   4.984  20.492 -0.0397 -1.0173 -0.4721
 1414TIP3    H228438   3.112   5.033  20.542 -0.6923 -0.3071  0.6184
 1415TIP3   OH228439   3.087   3.879  18.792 -0.1692  0.3597  0.1716
 1415TIP3    H128440   3.094   3.835  18.877  0.4338  0.7136  0.3079
 1415TIP3    H228441   3.110   3.811  18.728 -0.5056  0.1270  0.2963
 1416TIP3   OH228442   4.509   5.542  20.244 -0.1312 -0.0495 -0.0398
 1416TIP3    H128443   4.561   5.537  20.163  0.3147 -0.5462  0.2688
 1416TIP3    H228444   4.418   5.544  20.214 -0.0219 -1.4825 -0.5365
 1417TIP3   OH228445   4.985   5.267  20.130  0.4246 -0.4088 -0.3384
 1417TIP3    H128446   4.966   5.338  20.069  0.4907  0.3309  0.4695
 1417TIP3    H228447   5.066   5.228  20.099  1.2327  0.8880  0.0673
 1418TIP3   OH228448   1.289   2.732  19.665  0.2238 -0.3397  0.7328
 1418TIP3    H128449   1.218   2.795  19.677  1.1192  0.5347  1.5296
 1418TIP3    H228450   1.248   2.660  19.617 -1.4569 -0.2985  2.0141
 1419TIP3   OH228451   2.380   6.507  20.078 -0.7725 -0.2542  0.2355
 1419TIP3    H128452   2.313   6.575  20.082 -0.0691  0.4975 -0.2836
 1419TIP3    H228453   2.445   6.534  20.143 -0.2907 -0.1894 -0.2582
 1420TIP3   OH228454   4.134   3.277  19.926  0.3370  0.6109  0.3236
 1420TIP3    H128455   4.071   3.209  19.950  0.7731  0.4838  1.1341
 1420TIP3    H228456   4.205   3.268  19.990  1.8347 -0.1307 -1.3510
 1421TIP3   OH228457   4.670   4.597  20.002  0.1089 -0.3396 -0.0385
 1421TIP3    H128458   4.578   4.619  19.987 -0.2311 -2.0157 -0.6190
 1421TIP3    H228459   4.669   4.547  20.084  0.3384 -1.2693 -0.5945
 1422TIP3   OH228460   3.165   6.064  18.852  0.0635  0.0387 -0.4605
 1422TIP3    H128461   3.250   6.108  18.855 -0.4296  1.0097 -0.2726
 1422TIP3    H228462   3.181   5.978  18.890  0.8005  0.4915  0.2779
 1423TIP3   OH228463   5.805   0.434  20.419 -0.1663  0.2531 -0.1357
 1423TIP3    H128464   5.807   0.353  20.369  0.8063  0.3107 -0.2195
 1423TIP3    H228465   5.718   0.436  20.459 -1.4887  0.8643 -2.8321
 1424TIP3   OH228466   6.299   0.095  17.982 -0.5735  0.1169 -0.0786
 1424TIP3    H128467   6.214   0.061  17.955  0.6827 -1.9506 -1.7681
 1424TIP3    H228468   6.307   0.070  18.074 -1.1916 -1.0311 -0.3144
 1425TIP3   OH228469   6.572   5.799  18.614  0.3832  0.3967  0.5169
 1425TIP3    H128470   6.651   5.786  18.562  0.6335 -1.0804  1.2336
 1425TIP3    H228471   6.503   5.750  18.568  0.1829  0.5898  0.6063
 1426TIP3   OH228472   5.505   1.526  19.829  0.2008  0.0024 -0.3179
 1426TIP3    H128473   5.587   1.496  19.788 -0.8218 -2.2243 -0.8892
 1426TIP3    H228474   5.444   1.537  19.756 -0.2950  0.6678  0.1889
 1427TIP3   OH228475   5.847   2.557  17.553  0.3430  0.2219  0.6833
 1427TIP3    H128476   5.936   2.522  17.539 -0.8124 -2.4886 -0.7254
 1427TIP3    H228477   5.815   2.575  17.464 -0.0942  2.5797  1.2443
 1428TIP3   OH228478   5.673   1.711  19.543  0.7191 -0.2594 -0.9252
 1428TIP3    H128479   5.641   1.650  19.609 -0.5652  2.9420  1.6925
 1428TIP3    H228480   5.747   1.756  19.585  2.1614 -0.4833 -3.0683
 1429TIP3   OH228481   5.043   2.849  20.140  0.3587 -0.2105 -0.7852
 1429TIP3    H128482   5.063   2.841  20.233  1.0009 -1.2133 -0.9915
 1429TIP3    H228483   5.036   2.944  20.125  0.5572 -0.0260  0.2150
 1430TIP3   OH228484   4.248   2.551  17.349 -0.0657  0.3562 -0.3879
 1430TIP3    H128485   4.154   2.535  17.335 -0.3529  0.5788  1.0697
 1430TIP3    H228486   4.285   2.464  17.364 -0.8341  0.4898  3.1403
 1431TIP3   OH228487   3.315   3.991  18.635  0.1549  0.3132 -0.7282
 1431TIP3    H128488   3.354   3.933  18.570 -0.3566 -0.2409 -0.5502
 1431TIP3    H228489   3.225   3.960  18.644  0.2094  0.4020  0.2188
 1432TIP3   OH228490   0.857   0.974  17.404 -0.0336 -0.1535  0.3013
 1432TIP3    H128491   0.923   0.905  17.403 -0.2939 -0.4586 -1.9819
 1432TIP3    H228492   0.866   1.016  17.318 -0.6972  1.8760  1.1636
 1433TIP3   OH228493   6.709   0.551  20.635 -0.2303 -0.4341 -0.3982
 1433TIP3    H128494   6.680   0.461  20.646  1.5325 -0.9427  0.4854
 1433TIP3    H228495   6.728   0.558  20.541 -0.9740 -0.7701 -0.5821
 1434TIP3   OH228496   3.046   4.368  17.967 -0.4690  0.2669  0.0372
 1434TIP3    H128497   3.044   4.424  17.889  0.4190  0.6570  0.2783
 1434TIP3    H228498   2.986   4.297  17.947 -0.3727  0.4499 -0.9443
 1435TIP3   OH228499   2.704   1.848  17.850 -0.2545 -0.2480 -0.4097
 1435TIP3    H128500   2.774   1.901  17.887 -1.3891  1.8184 -1.0403
 1435TIP3    H228501   2.685   1.782  17.917 -0.4245  1.6818  1.5252
 1436TIP3   OH228502   1.048   2.516  18.499 -1.2836 -0.2368  0.1917
 1436TIP3    H128503   1.069   2.586  18.561 -0.1125 -0.0005 -0.4313
 1436TIP3    H228504   0.954   2.502  18.509 -1.6976  1.8883 -0.1167
 1437TIP3   OH228505   4.190   0.495  17.893 -0.0731 -0.2409 -0.5171
 1437TIP3    H128506   4.133   0.539  17.830 -1.2191 -1.2216 -0.1894
 1437TIP3    H228507   4.273   0.542  17.886 -1.0704  1.5859 -0.5955
 1438TIP3   OH228508   3.385   3.741  17.637  0.5391  0.4935 -0.1128
 1438TIP3    H128509   3.322   3.714  17.704  2.1954 -1.2406  0.8528
 1438TIP3    H228510   3.456   3.677  17.644  1.2637  0.8840 -2.8525
 1439TIP3   OH228511   6.621   5.982  19.696 -0.2439  0.1061 -0.5588
 1439TIP3    H128512   6.584   6.070  19.705  2.5325  1.2215  1.1790
 1439TIP3    H228513   6.636   5.972  19.602  2.3381  2.9277 -0.6052
 1440TIP3   OH228514   4.528   3.147  17.834  0.3853  0.2325 -0.0753
 1440TIP3    H128515   4.551   3.210  17.902  2.3528 -0.3407 -0.1648
 1440TIP3    H228516   4.596   3.157  17.767  0.1350 -1.2373 -0.5894
 1441TIP3   OH228517   2.327   5.812  20.761  0.0143  0.4640  0.1974
 1441TIP3    H128518   2.288   5.740  20.712 -1.0824  0.6865  0.6965
 1441TIP3    H228519   2.421   5.796  20.758 -0.1361 -0.2900 -0.7619
 1442TIP3   OH228520   2.721   4.629  18.692  0.0325  0.0640 -0.0109
 1442TIP3    H128521   2.699   4.552  18.640  2.6856 -1.8023  1.3862
 1442TIP3    H228522   2.675   4.616  18.775  0.3574  0.0684  0.1702
 1443TIP3   OH228523   2.952   2.227  19.461  0.6390  0.4869  0.2063
 1443TIP3    H128524   2.944   2.319  19.435 -2.0563 -0.1107 -1.5779
 1443TIP3    H228525   3.026   2.194  19.411 -1.2653  0.6626 -3.0803
 1444TIP3   OH228526   5.029   4.948  19.410 -0.0945  0.1128 -0.4548
 1444TIP3    H128527   4.945   4.905  19.397  0.7835 -1.9887  0.2252
 1444TIP3    H228528   5.092   4.888  19.369  1.2541  0.5130  0.9525
 1445TIP3   OH228529   4.035   4.764  18.381 -0.4086 -0.0763 -0.1741
 1445TIP3    H128530   4.057   4.692  18.323  0.8016  1.5610 -1.8673
 1445TIP3    H228531   4.119   4.803  18.405 -1.0555  1.5373 -0.3526
 1446TIP3   OH228532   5.777   3.395  20.113  0.1079 -0.0830 -0.6383
 1446TIP3    H128533   5.795   3.301  20.119 -1.3611 -0.5937 -2.9622
 1446TIP3    H228534   5.760   3.422  20.203  0.0762 -2.1458  0.0317
 1447TIP3   OH228535   6.215   0.364  20.030  0.0248 -0.5677 -0.4271
 1447TIP3    H128536   6.169   0.404  19.956  0.9709  0.8545 -0.2943
 1447TIP3    H228537   6.275   0.432  20.060  1.9565 -2.1970 -0.3767
 1448TIP3   OH228538   2.154   0.024  18.463 -0.0024  0.1523 -0.0681
 1448TIP3    H128539   2.226  -0.035  18.441  1.4573  1.6080  0.5071
 1448TIP3    H228540   2.160   0.094  18.398 -0.2824  0.7625  0.5448
 1449TIP3   OH228541   6.591   0.170  20.254 -0.2621  0.5920 -0.1406
 1449TIP3    H128542   6.646   0.188  20.330 -0.3149 -0.5720  0.1869
 1449TIP3    H228543   6.643   0.200  20.179  0.3223  0.5836  0.2564
 1450TIP3   OH228544   0.986   5.592  17.355  0.3963 -0.0945  0.8487
 1450TIP3    H128545   0.904   5.556  17.320 -0.2890  1.7815  0.3727
 1450TIP3    H228546   1.046   5.517  17.359 -1.5339 -1.6812  1.8883
 1451TIP3   OH228547   1.244   0.938  18.556  0.4279  0.8198  0.6484
 1451TIP3    H128548   1.224   0.948  18.649  1.5763  0.8149  0.9193
 1451TIP3    H228549   1.250   0.844  18.542  1.9780  0.8337  0.9986
 1452TIP3   OH228550   2.081   2.097  20.525 -0.1990 -0.1196 -0.1303
 1452TIP3    H128551   2.097   2.032  20.592  0.7806  1.9230  1.7471
 1452TIP3    H228552   2.023   2.053  20.462 -0.2805 -2.4627  1.4616
 1453TIP3   OH228553   1.965   1.364  19.058 -0.6012 -0.2938  0.1557
 1453TIP3    H128554   2.061   1.364  19.060 -0.5803 -2.2085  1.8596
 1453TIP3    H228555   1.941   1.454  19.080  0.7754  0.4066 -1.0178
 1454TIP3   OH228556   0.375   3.491  19.086  0.6908  0.6944  1.0993
 1454TIP3    H128557   0.342   3.418  19.138 -0.0544 -0.9805 -1.5252
 1454TIP3    H228558   0.301   3.550  19.076  0.3055  0.1362  0.5447
 1455TIP3   OH228559   4.613   4.226  18.701  0.4808  0.0259  0.1127
 1455TIP3    H128560   4.606   4.174  18.781  1.4852  0.5274  0.5342
 1455TIP3    H228561   4.523   4.258  18.686  0.0604 -0.9806  0.4040
 1456TIP3   OH228562   3.858   0.441  17.779  0.0299  0.4471  0.2455
 1456TIP3    H128563   3.784   0.402  17.732 -1.0704  1.4834  1.0714
 1456TIP3    H228564   3.893   0.507  17.718  1.9037 -1.6745 -1.1596
 1457TIP3   OH228565   3.165   5.989  20.116  0.1427 -0.1199 -0.3687
 1457TIP3    H128566   3.198   5.900  20.129 -0.6100 -0.0370  3.0596
 1457TIP3    H228567   3.103   5.981  20.043  1.1504 -2.0781 -1.0741
 1458TIP3   OH228568   4.212   1.528  19.026 -0.7131  0.0318 -0.0730
 1458TIP3    H128569   4.210   1.479  18.944 -1.6781 -0.2568  0.1136
 1458TIP3    H228570   4.145   1.487  19.081 -0.4305  0.5431  0.6734
 1459TIP3   OH228571   4.838   3.825  17.727 -0.0898  0.2955  0.2566
 1459TIP3    H128572   4.922   3.785  17.705 -0.1654 -0.6915  1.6219
 1459TIP3    H228573   4.851   3.919  17.711  1.4628  0.2378  0.9974
 1460TIP3   OH228574   3.337   4.387  20.286  0.1113  0.3895  0.5302
 1460TIP3    H128575   3.350   4.457  20.222  0.1201 -0.4293 -0.3784
 1460TIP3    H228576   3.254   4.409  20.328 -0.1074  0.7090 -0.0569
 1461TIP3   OH228577   5.756   5.734  18.580  0.2775 -0.1262 -0.2691
 1461TIP3    H128578   5.830   5.783  18.545  0.9920 -1.1626 -0.2589
 1461TIP3    H228579   5.789   5.644  18.588 -0.7165 -0.4319  0.5352
 1462TIP3   OH228580   0.354   3.516  17.377  0.2260 -0.3381  0.0888
 1462TIP3    H128581   0.436   3.562  17.390 -0.1137  0.2779  0.0834
 1462TIP3    H228582   0.373   3.452  17.308  0.7505 -0.3472  0.2388
 1463TIP3   OH228583   4.556   2.039  17.627  0.4855 -0.0739  0.4077
 1463TIP3    H128584   4.649   2.059  17.617  0.1733  0.9964 -0.5809
 1463TIP3    H228585   4.546   1.953  17.585  0.9092  0.1423 -0.1579
 1464TIP3   OH228586   2.667   0.090  19.499  0.2778  0.2216  0.1154
 1464TIP3    H128587   2.734   0.067  19.434  1.1137 -0.5130  1.2029
 1464TIP3    H228588   2.715   0.096  19.581 -1.0486 -0.7285  1.0013
 1465TIP3   OH228589   3.146   6.392  18.455  0.3540 -0.3076  0.0988
 1465TIP3    H128590   3.195   6.404  18.374  0.0444 -0.3856 -0.1035
 1465TIP3    H228591   3.116   6.301  18.452  0.0676 -0.2153  0.1457
 1466TIP3   OH228592   6.160   4.453  18.825  0.3332  0.1622  0.3444
 1466TIP3    H128593   6.177   4.387  18.891  0.7584  1.4370  1.5591
 1466TIP3    H228594   6.093   4.510  18.864  1.6083  1.7616  0.3309
 1467TIP3   OH228595   5.094   1.890  20.414 -0.6731 -0.2861 -0.0057
 1467TIP3    H128596   5.096   1.918  20.505 -1.4089 -3.2758  1.0764
 1467TIP3    H228597   5.070   1.968  20.365 -1.3001  1.2037  2.4833
 1468TIP3   OH228598   0.868   5.968  20.671  0.1236 -0.0646  0.2184
 1468TIP3    H128599   0.829   5.922  20.597 -0.7661 -0.0491  0.6725
 1468TIP3    H228600   0.857   6.061  20.650 -0.0405 -0.0604  0.3236
 1469TIP3   OH228601   2.852   1.849  18.797  0.3826  0.2019  0.2041
 1469TIP3    H128602   2.875   1.852  18.890 -0.8113  0.2196  0.5151
 1469TIP3    H228603   2.858   1.756  18.773  0.1309  0.1191  0.4568
 1470TIP3   OH228604   2.321   3.098  19.729 -0.7726  0.4014 -0.4991
 1470TIP3    H128605   2.272   3.168  19.772 -0.3981  1.0775 -1.1465
 1470TIP3    H228606   2.383   3.068  19.795  0.7062  2.3304 -0.9325
 1471TIP3   OH228607   1.165   0.524  18.216 -0.3578 -0.0730  0.2328
 1471TIP3    H128608   1.070   0.522  18.206 -0.5276  1.2647  1.3021
 1471TIP3    H228609   1.182   0.466  18.290 -0.4183  0.2733  0.5182
 1472TIP3   OH228610   0.982   3.002  18.191  0.2459  0.0596  0.6198
 1472TIP3    H128611   1.006   2.910  18.198  0.5259 -0.0713 -1.4787
 1472TIP3    H228612   1.021   3.031  18.109 -1.1365  1.6492  0.4705
 1473TIP3   OH228613   5.686   0.722  19.799 -0.1815  0.4511  0.2462
 1473TIP3    H128614   5.726   0.646  19.841 -0.3396  0.4399  0.3800
 1473TIP3    H228615   5.683   0.700  19.706  1.4985  1.0633  0.0131
 1474TIP3   OH228616   2.584   6.480  18.230  0.1813 -1.0974  0.0737
 1474TIP3    H128617   2.578   6.575  18.216 -3.2899 -1.3162 -0.6763
 1474TIP3    H228618   2.594   6.470  18.324  2.3630 -0.0299  0.0282
 1475TIP3   OH228619   5.087   4.818  19.668 -0.5935 -0.1629 -0.6279
 1475TIP3    H128620   5.068   4.911  19.662 -3.6109 -0.7355 -1.8264
 1475TIP3    H228621   5.045   4.790  19.750  1.2225 -0.3382  0.2888
 1476TIP3   OH228622   3.087   5.129  18.997 -0.5572  0.0342 -0.2644
 1476TIP3    H128623   3.146   5.120  19.072  0.1699 -0.0587 -0.8454
 1476TIP3    H228624   3.083   5.042  18.959 -0.1448  0.2928 -0.9128
 1477TIP3   OH228625   0.251   0.607  19.465 -0.6228  0.0320 -0.0874
 1477TIP3    H128626   0.178   0.566  19.419 -0.2831  0.5259 -1.1137
 1477TIP3    H228627   0.258   0.560  19.548 -1.1184 -1.0397 -0.6366
 1478TIP3   OH228628   0.510   2.947  17.751  0.1981  0.1788 -0.3639
 1478TIP3    H128629   0.428   2.968  17.706 -0.2204 -0.1819  0.2151
 1478TIP3    H228630   0.511   2.852  17.757  0.0439  0.2366  0.7475
 1479TIP3   OH228631   1.854   0.231  18.590 -0.7105  0.0731  0.5566
 1479TIP3    H128632   1.810   0.236  18.505  0.1296  1.1497  0.1597
 1479TIP3    H228633   1.788   0.258  18.653 -1.4373 -1.0348  0.2932
 1480TIP3   OH228634   4.637   5.948  19.104 -0.4672  0.3718  0.3485
 1480TIP3    H128635   4.698   5.875  19.116  0.4744  1.0868 -0.0479
 1480TIP3    H228636   4.668   6.015  19.165  0.2672  1.4388 -1.1415
 1481TIP3   OH228637   3.391   6.228  20.046  0.4455 -0.2010 -0.2787
 1481TIP3    H128638   3.480   6.204  20.024  0.3316 -0.4007 -0.5294
 1481TIP3    H228639   3.346   6.236  19.961  0.2467 -0.0233 -0.1588
 1482TIP3   OH228640   2.805   4.129  20.573 -0.2922  0.1279  0.1308
 1482TIP3    H128641   2.729   4.073  20.590 -0.2644  0.1717  0.3952
 1482TIP3    H228642   2.881   4.073  20.591 -0.2604  0.6595  1.7522
 1483TIP3   OH228643   1.893   4.747  20.650 -0.2994  0.1577 -0.2601
 1483TIP3    H128644   1.901   4.841  20.661 -0.8193  0.1938 -0.1892
 1483TIP3    H228645   1.983   4.715  20.654 -0.2432  0.4558  1.3684
 1484TIP3   OH228646   0.051   5.766  20.303  0.5851  0.1625  0.2205
 1484TIP3    H128647   0.140   5.769  20.268  0.5989 -0.5752  0.1745
 1484TIP3    H228648   0.051   5.831  20.373  0.7441  1.1854 -0.7095
 1485TIP3   OH228649   0.961   5.460  20.011  0.2181 -0.0859  0.1058
 1485TIP3    H128650   0.977   5.379  20.060 -2.2357  0.6880  2.4528
 1485TIP3    H228651   1.047   5.501  20.002  0.9451 -0.7564  3.0861
 1486TIP3   OH228652   4.144   3.185  18.161 -0.3521  0.1664 -0.1747
 1486TIP3    H128653   4.195   3.262  18.184 -3.0863  1.8821  0.6826
 1486TIP3    H228654   4.197   3.140  18.095  1.2316  2.9572 -0.9750
 1487TIP3   OH228655   4.600   5.547  17.631 -0.2459  0.1500  0.6057
 1487TIP3    H128656   4.529   5.607  17.653 -0.6085 -0.1322  0.2187
 1487TIP3    H228657   4.558   5.461  17.626  0.3760 -0.2569  1.8196
 1488TIP3   OH228658   2.594   2.283  20.439 -0.3086 -0.0618  0.1285
 1488TIP3    H128659   2.537   2.211  20.466  0.1669  0.2611  2.1535
 1488TIP3    H228660   2.673   2.239  20.406 -0.6156 -0.4698 -0.0752
 1489TIP3   OH228661   2.784   3.897  17.973 -0.0828  0.1739  0.4479
 1489TIP3    H128662   2.733   3.955  17.917 -0.6297 -1.1391 -0.4536
 1489TIP3    H228663   2.865   3.883  17.925  0.3201  0.6828  0.9660
 1490TIP3   OH228664   2.260   1.367  20.248  0.2563  0.7589 -0.2236
 1490TIP3    H128665   2.171   1.380  20.282  0.3424 -0.5189  0.5491
 1490TIP3    H228666   2.247   1.319  20.166  0.2828 -0.5550  0.5293
 1491TIP3   OH228667   1.977   1.399  20.275 -0.3647 -0.0512  0.1267
 1491TIP3    H128668   1.910   1.465  20.291 -1.0718 -0.4802 -0.9806
 1491TIP3    H228669   1.950   1.324  20.327  0.0993  0.2898  0.8833
 1492TIP3   OH228670   5.040   3.582  19.581 -0.0597 -0.0246  0.3929
 1492TIP3    H128671   4.980   3.639  19.631 -0.5420  0.3861 -0.6267
 1492TIP3    H228672   5.063   3.634  19.504  0.8963 -0.5429  0.3221
 1493TIP3   OH228673   3.712   4.258  18.795  0.3972 -0.1277  0.1380
 1493TIP3    H128674   3.726   4.339  18.843 -0.6906  0.0035  0.2441
 1493TIP3    H228675   3.694   4.286  18.705  0.9578 -0.3027 -0.0344
 1494TIP3   OH228676   0.836   3.558  19.719  0.0036  0.1014  0.2242
 1494TIP3    H128677   0.844   3.584  19.811 -0.7916  1.2663 -0.0136
 1494TIP3    H228678   0.855   3.638  19.670  1.2703 -0.7056 -0.6768
 1495TIP3   OH228679   4.720   0.977  17.646 -0.0987  0.3628 -0.4004
 1495TIP3    H128680   4.668   0.915  17.696  1.2398 -0.4880 -0.0318
 1495TIP3    H228681   4.681   0.975  17.558 -2.4159  1.8174  0.5019
 1496TIP3   OH228682   6.655   0.336  18.744  0.7463 -0.5870 -0.2681
 1496TIP3    H128683   6.743   0.323  18.708  1.1208 -1.1496  0.8042
 1496TIP3    H228684   6.614   0.250  18.736  0.9509 -0.8135  0.9031
 1497TIP3   OH228685   2.916   2.110  17.900 -0.5119 -0.0678 -0.3398
 1497TIP3    H128686   2.943   2.058  17.975  2.3619  2.5601  0.6860
 1497TIP3    H228687   2.831   2.145  17.924  0.4086  0.8367  1.8801
 1498TIP3   OH228688   3.425   3.435  18.293 -0.0076  0.2578 -0.1266
 1498TIP3    H128689   3.519   3.445  18.278  0.3118  1.7118  2.2822
 1498TIP3    H228690   3.386   3.514  18.256 -0.0667  0.4482  0.3340
 1499TIP3   OH228691   4.200   3.112  17.203  0.6161 -0.1939  0.1502
 1499TIP3    H128692   4.276   3.072  17.159 -0.1925  0.9551 -2.5048
 1499TIP3    H228693   4.205   3.205  17.179 -1.1660  0.0538  0.5933
 1500TIP3   OH228694   1.307   3.402  20.602  0.0569 -0.3358  0.2465
 1500TIP3    H128695   1.266   3.317  20.619  0.1027 -0.6377 -1.0745
 1500TIP3    H228696   1.399   3.389  20.625 -0.3810  0.1268  2.4937
 1501TIP3   OH228697   2.640   5.970  19.286 -0.5791  0.2513 -0.6073
 1501TIP3    H128698   2.728   5.969  19.322 -0.2511 -1.4488 -1.3806
 1501TIP3    H228699   2.652   5.951  19.193 -1.7483  0.1582 -0.7544
 1502TIP3   OH228700   5.679   4.371  18.286  0.4106 -0.1866  0.2088
 1502TIP3    H128701   5.621   4.370  18.363  1.9635 -1.8845  1.4414
 1502TIP3    H228702   5.639   4.310  18.225  0.4448 -0.7036  0.6980
 1503TIP3   OH228703   5.470   6.305  19.082 -0.4706 -0.1572  0.1825
 1503TIP3    H128704   5.488   6.336  19.171 -0.9710 -0.5543  0.4305
 1503TIP3    H228705   5.546   6.251  19.060 -0.4340 -0.2153  0.4456
 1504TIP3   OH228706   3.970   5.683  19.201  0.3907  0.0344 -0.0335
 1504TIP3    H128707   3.973   5.603  19.147 -0.3229 -0.2817  0.3789
 1504TIP3    H228708   3.954   5.753  19.138  1.2769 -0.1147 -0.4341
 1505TIP3   OH228709   4.987   5.530  17.215 -0.2854 -0.1524  0.6979
 1505TIP3    H128710   5.064   5.565  17.169  0.3215  0.6086  2.2195
 1505TIP3    H228711   5.000   5.435  17.215  1.4039  0.0153  2.0880
 1506TIP3   OH228712   2.927   6.537  19.577 -0.2818 -0.4677  0.2086
 1506TIP3    H128713   2.900   6.583  19.497 -0.0782  2.1853  1.5413
 1506TIP3    H228714   3.016   6.507  19.559  0.4209  1.6137 -0.0299
 1507TIP3   OH228715   5.377   1.000  20.054  0.0354 -0.2942 -0.6634
 1507TIP3    H128716   5.342   1.089  20.058  1.4436  0.3236 -1.4600
 1507TIP3    H228717   5.471   1.012  20.043  0.3873 -1.8953  0.2968
 1508TIP3   OH228718   1.348   6.603  20.712  0.5322  0.6680 -0.3912
 1508TIP3    H128719   1.390   6.608  20.627 -0.6471  0.4244 -1.0017
 1508TIP3    H228720   1.412   6.558  20.768  0.4311 -1.2472 -1.7269
 1509TIP3   OH228721   3.047   1.335  18.783  0.2603  0.1435  0.2360
 1509TIP3    H128722   3.130   1.301  18.814 -0.5758 -0.3566  2.0386
 1509TIP3    H228723   3.008   1.262  18.735  0.0446 -0.2605  1.0137
 1510TIP3   OH228724   5.282   1.203  20.698  0.0323  0.2549  0.2523
 1510TIP3    H128725   5.233   1.218  20.618 -0.2437  0.5587  0.4767
 1510TIP3    H228726   5.370   1.237  20.679  0.1312 -0.1900 -0.1090
 1511TIP3   OH228727   1.123   3.814  17.283  0.0262 -0.1064  0.3054
 1511TIP3    H128728   1.214   3.785  17.280  0.2273  0.4083 -3.8455
 1511TIP3    H228729   1.073   3.737  17.254 -0.4090  0.6752 -1.1223
 1512TIP3   OH228730   0.568   5.126  20.537 -0.4314  0.3573 -0.7768
 1512TIP3    H128731   0.562   5.069  20.614  0.6196  0.6043 -0.4924
 1512TIP3    H228732   0.499   5.096  20.479 -1.2361  0.1587  0.2596
 1513TIP3   OH228733   1.495   3.562  19.331 -0.1196 -0.4913  0.0092
 1513TIP3    H128734   1.441   3.641  19.324  1.3699  0.6107  0.3667
 1513TIP3    H228735   1.494   3.541  19.425 -0.1527 -0.6378 -0.0235
 1514TIP3   OH228736   5.940   1.076  20.362  0.1233  1.3330 -0.6055
 1514TIP3    H128737   6.031   1.101  20.348  1.6889 -3.1543 -0.1708
 1514TIP3    H228738   5.938   1.042  20.452 -2.1368  1.7738 -0.4331
 1515TIP3   OH228739   2.246   4.888  17.576 -0.1573  0.4743 -0.0986
 1515TIP3    H128740   2.152   4.884  17.559 -0.1721 -0.1989  0.1028
 1515TIP3    H228741   2.257   4.966  17.631 -0.6818  0.2234  0.3770
 1516TIP3   OH228742   5.719   1.453  19.699 -0.2096  0.1020  0.0645
 1516TIP3    H128743   5.808   1.475  19.671 -0.0354 -0.0685  0.4817
 1516TIP3    H228744   5.705   1.364  19.668  0.0143 -0.1177  0.5877
 1517TIP3   OH228745   1.023   4.566  19.272 -0.0533 -0.5906 -0.3979
 1517TIP3    H128746   1.043   4.601  19.185  1.2326  0.8232  0.4022
 1517TIP3    H228747   0.942   4.517  19.261 -0.2394  0.0654 -2.2618
 1518TIP3   OH228748   3.111   2.359  20.003  0.0499 -0.2412 -0.1378
 1518TIP3    H128749   3.145   2.449  20.003  0.1387 -0.2662  0.7503
 1518TIP3    H228750   3.179   2.308  20.046  0.4098 -0.9159 -1.4433
 1519TIP3   OH228751   3.975   6.165  18.457 -0.4073 -0.2381 -0.1881
 1519TIP3    H128752   4.056   6.135  18.415 -1.0768 -1.3313 -0.7355
 1519TIP3    H228753   3.999   6.178  18.549  0.6456  0.4918 -0.5515
 1520TIP3   OH228754   2.514   3.334  19.735 -0.0220  0.3402 -0.1741
 1520TIP3    H128755   2.566   3.272  19.787 -0.7580  0.0229  0.2005
 1520TIP3    H228756   2.454   3.279  19.685 -3.0394  0.7412  2.6516
 1521TIP3   OH228757   6.239   6.647  18.487 -0.3210  0.5242  0.4075
 1521TIP3    H128758   6.182   6.591  18.540  0.3822  1.6478  2.4953
 1521TIP3    H228759   6.230   6.734  18.528  2.5881  0.8226  0.6351
 1522TIP3   OH228760   2.138   0.994  19.357 -0.0397  0.0639 -0.0729
 1522TIP3    H128761   2.164   0.975  19.447 -2.8276  1.7289  1.2112
 1522TIP3    H228762   2.083   0.920  19.332  0.5596 -0.2938 -0.3510
 1523TIP3   OH228763   4.469   3.156  19.985  0.3192 -0.0452 -0.1167
 1523TIP3    H128764   4.523   3.130  19.910 -0.1070 -0.6182 -0.2347
 1523TIP3    H228765   4.466   3.078  20.041  2.1854  0.9336  1.4684
 1524TIP3   OH228766   4.001   3.784  18.238 -0.2585 -0.0505  0.0119
 1524TIP3    H128767   3.941   3.773  18.312 -0.8010 -0.8566 -0.5403
 1524TIP3    H228768   4.087   3.761  18.273 -0.5078 -0.3906  0.4065
 1525TIP3   OH228769   3.027   0.705  20.107 -0.2643  0.1510  0.1343
 1525TIP3    H128770   3.100   0.756  20.142 -0.0063 -0.4324  0.4530
 1525TIP3    H228771   3.038   0.618  20.145  0.0801 -0.5378 -1.4757
 1526TIP3   OH228772   1.023   3.650  19.112 -0.2573  0.4058  0.4776
 1526TIP3    H128773   1.046   3.572  19.061 -1.0254  0.4100  0.0995
 1526TIP3    H228774   1.053   3.630  19.200  1.1536  0.4150  0.0312
 1527TIP3   OH228775   3.507   4.655  17.732 -0.3597 -0.1310  0.3483
 1527TIP3    H128776   3.513   4.725  17.797 -1.0226 -0.1918  0.4794
 1527TIP3    H228777   3.420   4.617  17.745 -0.3509 -0.3965 -0.3148
 1528TIP3   OH228778   2.910   5.912  19.361  0.6339  0.1680 -0.2577
 1528TIP3    H128779   3.005   5.899  19.349  0.6616  0.0549  0.0845
 1528TIP3    H228780   2.883   5.842  19.419  0.0171 -0.8394 -1.6995
 1529TIP3   OH228781   6.088   2.738  19.012 -0.0582 -0.3924 -0.4820
 1529TIP3    H128782   6.122   2.774  19.094  0.1375  0.0958 -0.7680
 1529TIP3    H228783   6.001   2.705  19.034  0.9631 -2.6022  0.5187
 1530TIP3   OH228784   1.857   4.438  17.544 -1.5026  0.3155  0.5930
 1530TIP3    H128785   1.822   4.400  17.464 -0.0613 -1.0896  0.5793
 1530TIP3    H228786   1.825   4.528  17.544 -1.4071  0.3962 -1.6301
 1531TIP3   OH228787   0.989   3.409  17.610 -0.8171 -0.1092 -0.6052
 1531TIP3    H128788   0.936   3.424  17.689  1.3022 -0.8293  1.0786
 1531TIP3    H228789   0.953   3.329  17.572 -1.2792 -0.2943  0.1910
 1532TIP3   OH228790   0.426   3.268  17.244 -0.8174 -0.3654 -0.1870
 1532TIP3    H128791   0.415   3.234  17.333 -1.2345 -0.4769 -0.2787
 1532TIP3    H228792   0.446   3.191  17.191  1.6804 -0.0520  0.1549
 1533TIP3   OH228793   1.892   1.577  20.002  0.1298 -0.0360 -0.2191
 1533TIP3    H128794   1.833   1.558  19.929  1.9757 -0.4928 -1.6789
 1533TIP3    H228795   1.884   1.500  20.059  2.0495 -2.0057 -2.3595
 1534TIP3   OH228796   2.822   3.981  18.562  0.2289 -0.2984  0.0121
 1534TIP3    H128797   2.737   4.024  18.549  1.1636  1.2746 -1.3135
 1534TIP3    H228798   2.806   3.918  18.632 -1.9762  0.0939 -0.0457
 1535TIP3   OH228799   6.548   0.143  19.594 -0.3142  0.3787 -0.4128
 1535TIP3    H128800   6.453   0.154  19.600 -0.1181  2.3092 -0.2937
 1535TIP3    H228801   6.576   0.139  19.686 -0.1109  1.7956 -0.3920
 1536TIP3   OH228802   0.290   3.893  18.654  0.2307 -0.5126  0.1950
 1536TIP3    H128803   0.209   3.859  18.691 -0.1075 -0.4170 -0.4333
 1536TIP3    H228804   0.348   3.818  18.647 -0.3856 -0.8998 -0.8635
 1537TIP3   OH228805   3.800   5.244  19.970 -0.4719 -0.0018 -0.0007
 1537TIP3    H128806   3.838   5.165  20.007  0.3420  0.8989  1.1718
 1537TIP3    H228807   3.733   5.271  20.033  0.4566  1.1763  0.5193
 1538TIP3   OH228808   2.970   4.068  19.701  0.3699  0.0568 -0.3014
 1538TIP3    H128809   3.031   4.131  19.739  2.4423 -1.4726 -0.8360
 1538TIP3    H228810   2.927   4.115  19.630  0.8745  1.2457  0.1653
 1539TIP3   OH228811   2.934   2.322  20.209  0.4154 -0.0846  0.4056
 1539TIP3    H128812   2.968   2.332  20.120  0.4352  0.4603  0.4705
 1539TIP3    H228813   2.968   2.398  20.256  1.4428 -1.0089  1.2149
 1540TIP3   OH228814   4.551   2.237  19.291 -0.4832  0.4133 -0.4769
 1540TIP3    H128815   4.571   2.144  19.278  1.9904  0.8487 -0.2261
 1540TIP3    H228816   4.463   2.237  19.331 -0.0509 -1.8762  0.6509
 1541TIP3   OH228817   4.206   6.302  19.166  0.5643  0.2007  0.0949
 1541TIP3    H128818   4.257   6.242  19.111  0.6411  0.9608 -0.6901
 1541TIP3    H228819   4.271   6.358  19.208  0.4868 -0.1865  0.7355
 1542TIP3   OH228820   0.843   0.625  18.998  0.7892 -0.3499  0.5538
 1542TIP3    H128821   0.887   0.554  19.044 -1.0098 -1.5174  0.5569
 1542TIP3    H228822   0.770   0.649  19.055  0.4174  0.3800 -0.2076
 1543TIP3   OH228823   1.288   1.548  17.976  0.0373 -0.1655  0.5367
 1543TIP3    H128824   1.286   1.508  17.890  1.6624 -0.6021  0.6634
 1543TIP3    H228825   1.197   1.548  18.005 -0.5601  0.1481 -1.2239
 1544TIP3   OH228826   5.083   3.606  19.989  0.3950 -0.3021  0.0119
 1544TIP3    H128827   4.994   3.620  20.020  0.6228  0.8510  0.2238
 1544TIP3    H228828   5.074   3.556  19.908 -0.5722  1.0981 -0.7986
 1545TIP3   OH228829   5.008   2.107  18.403  0.2946 -0.7376  0.1433
 1545TIP3    H128830   5.063   2.030  18.422  1.5735 -0.2318 -1.3181
 1545TIP3    H228831   5.068   2.170  18.364 -1.1845  0.1865 -0.7134
 1546TIP3   OH228832   1.657   1.219  19.332 -0.6754  0.0243 -0.0304
 1546TIP3    H128833   1.574   1.267  19.328 -0.9169 -0.4554 -1.5550
 1546TIP3    H228834   1.697   1.234  19.246  0.7513  0.1140  0.6269
 1547TIP3   OH228835   0.864   5.215  17.410  0.0109 -0.2250 -0.5977
 1547TIP3    H128836   0.926   5.237  17.480 -0.6319 -0.0363 -0.0710
 1547TIP3    H228837   0.877   5.283  17.345  0.7960 -0.5441 -0.7870
 1548TIP3   OH228838   1.885   5.214  19.257 -0.0416 -0.2924  0.5942
 1548TIP3    H128839   1.912   5.305  19.246  0.5566 -0.2573  2.0547
 1548TIP3    H228840   1.794   5.211  19.227  0.5850  0.2887 -1.4674
 1549TIP3   OH228841   6.550   4.684  20.704  0.1061  0.7385 -0.1691
 1549TIP3    H128842   6.459   4.673  20.677 -0.7574  1.2048  2.2871
 1549TIP3    H228843   6.554   4.640  20.789  1.8470  1.8236  0.3461
 1550TIP3   OH228844   6.245   2.259  20.169 -0.7652  0.1214 -0.2670
 1550TIP3    H128845   6.207   2.174  20.147  0.3748 -0.3765 -0.3586
 1550TIP3    H228846   6.219   2.316  20.096 -1.4302 -0.1631 -0.2649
 1551TIP3   OH228847   3.577   4.682  20.535  0.7637  0.2223  0.2257
 1551TIP3    H128848   3.561   4.764  20.581  1.0135  0.3519  0.0819
 1551TIP3    H228849   3.501   4.672  20.476  0.5170  0.1277  0.5538
 1552TIP3   OH228850   5.275   4.515  19.488  0.0437  0.1489 -0.3394
 1552TIP3    H128851   5.239   4.427  19.501 -2.1037  1.1752  1.2193
 1552TIP3    H228852   5.287   4.550  19.576  1.0299  1.3779 -0.9233
 1553TIP3   OH228853   3.519   1.117  19.306 -0.2195  0.1208  0.4133
 1553TIP3    H128854   3.579   1.060  19.258 -0.4043  0.2217  0.0578
 1553TIP3    H228855   3.432   1.096  19.271 -0.3575  0.1925  0.7092
 1554TIP3   OH228856   1.893   0.056  19.658  1.0206 -0.6774  0.0930
 1554TIP3    H128857   1.849  -0.028  19.646  0.9725 -0.7609  0.8102
 1554TIP3    H228858   1.904   0.064  19.752  0.1340  0.5877  0.1133
 1555TIP3   OH228859   3.913   2.475  19.570 -0.1357 -0.4407  0.3916
 1555TIP3    H128860   3.995   2.478  19.618  0.7016  0.5653 -1.0274
 1555TIP3    H228861   3.918   2.394  19.518  0.7524  0.4362 -0.9594
 1556TIP3   OH228862   4.852   1.044  20.512 -0.1347  0.3607 -0.1015
 1556TIP3    H128863   4.931   1.096  20.526 -1.0070  1.9707 -0.8987
 1556TIP3    H228864   4.805   1.091  20.443 -1.5343 -0.8569 -0.0106
 1557TIP3   OH228865   1.246   5.356  18.306 -0.3596 -0.1008  0.2723
 1557TIP3    H128866   1.295   5.430  18.268 -0.4199  0.6949  1.6630
 1557TIP3    H228867   1.233   5.381  18.397 -2.6353 -0.6849  0.1599
 1558TIP3   OH228868   0.820   0.172  18.634 -0.4330  0.0119  0.0986
 1558TIP3    H128869   0.732   0.209  18.626 -0.0149  1.1478  0.6065
 1558TIP3    H228870   0.823   0.105  18.565 -1.6171  0.0837 -0.0597
 1559TIP3   OH228871   2.879   5.029  20.282  0.1086 -0.4881  0.3062
 1559TIP3    H128872   2.853   5.046  20.191  1.1922 -0.5016 -0.0337
 1559TIP3    H228873   2.940   5.101  20.302 -0.3943 -0.2927  1.1452
 1560TIP3   OH228874   1.746   5.668  19.941  0.2119 -0.0210  0.1237
 1560TIP3    H128875   1.822   5.715  19.977  1.1804 -1.6917  0.3722
 1560TIP3    H228876   1.673   5.694  19.997  0.9219  0.3738  0.8931
 1561TIP3   OH228877   3.498   3.450  19.748  0.0105 -0.1534  0.3798
 1561TIP3    H128878   3.421   3.429  19.802 -0.3250  0.6361  0.2234
 1561TIP3    H228879   3.466   3.441  19.658 -0.0137  0.5747  0.3126
 1562TIP3   OH228880   3.991   5.094  17.309 -0.6575 -0.4143  0.3799
 1562TIP3    H128881   3.923   5.151  17.345  0.5347  0.5785  1.1572
 1562TIP3    H228882   4.057   5.089  17.378 -0.1531 -1.7399 -0.1732
 1563TIP3   OH228883   3.607   0.814  19.529 -0.1893 -0.1911 -0.5650
 1563TIP3    H128884   3.657   0.734  19.545  0.6693  0.4755  0.1403
 1563TIP3    H228885   3.599   0.818  19.434 -0.5154 -1.2750 -0.5976
 1564TIP3   OH228886   1.752   0.687  19.036  0.1861  0.0905  0.0426
 1564TIP3    H128887   1.807   0.761  19.010 -0.9679  1.2481  0.7941
 1564TIP3    H228888   1.672   0.697  18.985 -0.9131  0.7061  1.8096
 1565TIP3   OH228889   5.389   2.293  17.489 -0.2583 -0.3232  0.0799
 1565TIP3    H128890   5.338   2.323  17.565 -0.2096  1.5631 -0.5633
 1565TIP3    H228891   5.347   2.212  17.463 -3.1203  1.1914 -0.5151
 1566TIP3   OH228892   0.961   1.295  19.756  0.2206 -0.6053 -0.2304
 1566TIP3    H128893   0.928   1.311  19.845  0.1271  0.2241 -0.4012
 1566TIP3    H228894   0.883   1.294  19.701  0.4007  0.6126 -0.5342
 1567TIP3   OH228895   0.507   6.639  18.775  0.2434 -0.7723 -0.4658
 1567TIP3    H128896   0.541   6.592  18.699 -0.6228 -0.6385 -0.9402
 1567TIP3    H228897   0.576   6.629  18.841  0.1051 -2.6364 -0.5654
 1568TIP3   OH228898   6.214   1.926  20.368 -0.5542  1.1210 -0.6842
 1568TIP3    H128899   6.276   1.909  20.439  0.1795  1.1672 -1.2990
 1568TIP3    H228900   6.144   1.861  20.381 -0.2443  0.8887 -0.1411
 1569TIP3   OH228901   6.659   2.328  19.874  0.1023 -0.5805  0.8502
 1569TIP3    H128902   6.639   2.296  19.786  0.4034  1.3253  0.0200
 1569TIP3    H228903   6.642   2.254  19.932 -0.8497 -1.6513 -0.7328
 1570TIP3   OH228904   0.344   0.335  17.584  0.1587  0.0088  0.1518
 1570TIP3    H128905   0.297   0.270  17.635 -0.3394 -0.9337 -1.4315
 1570TIP3    H228906   0.422   0.355  17.636 -0.3587 -0.8247  1.2912
 1571TIP3   OH228907   3.088   4.693  20.591  0.0380 -0.3695 -0.3493
 1571TIP3    H128908   3.165   4.676  20.644 -0.4539  0.4194  0.6487
 1571TIP3    H228909   3.085   4.789  20.583  0.3081 -0.4743 -2.1308
 1572TIP3   OH228910   0.799   4.964  20.016  0.5179  0.0073 -0.1545
 1572TIP3    H128911   0.738   5.037  20.026 -0.2631 -0.3930 -1.6446
 1572TIP3    H228912   0.883   5.004  19.995  0.0859  0.5085 -1.0053
 1573TIP3   OH228913   1.505   1.347  20.900 -0.2539 -0.4465 -0.1857
 1573TIP3    H128914   1.493   1.374  20.992  0.8930 -0.9182  0.1129
 1573TIP3    H228915   1.500   1.429  20.851 -0.7976 -0.1787  0.3037
 1574TIP3   OH228916   0.896   6.512  18.127 -0.2290 -0.3519  0.5375
 1574TIP3    H128917   0.838   6.500  18.052  0.2890  0.7769 -0.0856
 1574TIP3    H228918   0.866   6.449  18.192 -2.2991  0.3612  0.3347
 1575TIP3   OH228919   6.217   4.603  17.915 -0.0763 -0.4893  0.1797
 1575TIP3    H128920   6.250   4.685  17.879  1.4620 -1.2226 -0.1234
 1575TIP3    H228921   6.212   4.618  18.009 -3.0773  1.0636 -0.1044
 1576TIP3   OH228922   1.823   0.282  20.392 -0.2312  0.0799  0.0176
 1576TIP3    H128923   1.871   0.219  20.338  0.5475  0.6068  0.0868
 1576TIP3    H228924   1.791   0.230  20.466  1.3786 -0.0336  0.6727
 1577TIP3   OH228925   1.112   4.860  18.960  0.2671  0.0376 -0.1496
 1577TIP3    H128926   1.072   4.927  19.015 -0.3120 -0.0629 -0.4421
 1577TIP3    H228927   1.088   4.777  19.001  0.9108 -0.0039  0.1620
 1578TIP3   OH228928   2.128   4.862  18.872 -0.4609  0.2993 -0.1501
 1578TIP3    H128929   2.108   4.809  18.795 -1.8061  0.9246 -0.2634
 1578TIP3    H228930   2.169   4.941  18.837  1.8873 -0.7280  0.0434
 1579TIP3   OH228931   0.329   3.586  19.878 -0.5912 -0.1127 -0.4633
 1579TIP3    H128932   0.359   3.547  19.960 -2.1004  0.1130  0.2245
 1579TIP3    H228933   0.409   3.603  19.829  0.3352 -0.3745  0.9085
 1580TIP3   OH228934   0.895   3.237  18.936  0.2400 -0.2301 -0.2389
 1580TIP3    H128935   0.973   3.292  18.945 -1.3840  2.3112 -0.7051
 1580TIP3    H228936   0.846   3.254  19.017 -0.1738 -1.2349 -0.2810
 1581TIP3   OH228937   4.886   3.357  19.493 -0.1798  0.1620 -0.2550
 1581TIP3    H128938   4.908   3.440  19.535  1.0812  0.3224 -1.1956
 1581TIP3    H228939   4.950   3.348  19.422 -0.6819 -1.3226 -0.5455
 1582TIP3   OH228940   2.623   6.580  19.214  0.4788 -0.8283  0.1659
 1582TIP3    H128941   2.692   6.642  19.235 -0.2752 -0.2462  1.0136
 1582TIP3    H228942   2.587   6.554  19.300  0.3609 -1.9502 -0.2021
 1583TIP3   OH228943   1.169   0.663  18.776  0.0011 -0.5747  0.1930
 1583TIP3    H128944   1.187   0.579  18.817  0.4534 -1.8178 -2.3537
 1583TIP3    H228945   1.117   0.642  18.699  1.1455  1.3296 -1.1916
 1584TIP3   OH228946   2.618   0.493  20.188 -0.0742  0.3270 -0.3456
 1584TIP3    H128947   2.673   0.442  20.128 -0.6901  1.1176 -1.6168
 1584TIP3    H228948   2.649   0.468  20.275  2.6888  1.1523 -0.9945
 1585TIP3   OH228949   2.587   4.124  17.914  0.3415 -0.2393 -0.2442
 1585TIP3    H128950   2.569   4.193  17.978 -0.8249 -0.8351  0.0966
 1585TIP3    H228951   2.570   4.165  17.829  1.8061  0.5267 -0.2023
 1586TIP3   OH228952   5.285   6.529  17.566 -0.7020 -0.1082  0.2986
 1586TIP3    H128953   5.360   6.470  17.565 -0.5756  0.0335 -1.2009
 1586TIP3    H228954   5.322   6.616  17.580 -0.8863 -0.3170  2.4856
 1587TIP3   OH228955   1.335   4.738  19.306 -0.5475  0.3761  0.2314
 1587TIP3    H128956   1.260   4.789  19.277 -0.6849 -0.8061 -1.6730
 1587TIP3    H228957   1.302   4.649  19.317  0.5756 -0.2136 -0.8642
 1588TIP3   OH228958   3.451   3.239  20.774 -0.2481 -0.4051  0.9272
 1588TIP3    H128959   3.533   3.189  20.782 -0.3414 -0.5884  0.7639
 1588TIP3    H228960   3.477   3.330  20.789  0.2979 -0.2393 -0.7865
 1589TIP3   OH228961   3.226   3.296  20.924  0.7157 -0.4264  0.0162
 1589TIP3    H128962   3.161   3.227  20.914 -0.2956  0.6452 -1.3273
 1589TIP3    H228963   3.288   3.282  20.851  2.3947 -1.7745  1.6043
 1590TIP3   OH228964   4.278   4.418  19.768  0.1582 -0.0019 -0.8291
 1590TIP3    H128965   4.350   4.375  19.723  1.0511  1.2641 -0.6875
 1590TIP3    H228966   4.205   4.358  19.761  1.3254 -1.4911 -0.6785
 1591TIP3   OH228967   6.088   0.842  18.439  0.0443 -0.0268  0.0360
 1591TIP3    H128968   5.999   0.839  18.473 -0.4693  1.3341 -1.0821
 1591TIP3    H228969   6.125   0.756  18.461 -0.7993  0.1481  2.3993
 1592TIP3   OH228970   2.725   2.296  16.836  0.5890  0.9119  0.2387
 1592TIP3    H128971   2.809   2.341  16.825  0.1607  1.7469  0.3522
 1592TIP3    H228972   2.659   2.364  16.828 -0.0316  0.4976  1.5138
 1593TIP3   OH228973   3.108   4.643  18.972 -0.0784 -0.4461 -0.2872
 1593TIP3    H128974   3.107   4.551  18.948 -0.4093 -0.3972 -0.4576
 1593TIP3    H228975   3.081   4.645  19.064 -0.4062 -0.4880 -0.3830
 1594TIP3   OH228976   6.364   2.006  19.360  0.2340 -0.2639 -0.0022
 1594TIP3    H128977   6.402   1.960  19.434 -0.0251  0.0602  0.3332
 1594TIP3    H228978   6.411   1.972  19.284  0.8568 -0.2173  0.3606
 1595TIP3   OH228979   2.144   2.065  17.801 -0.5070  0.1690  0.1013
 1595TIP3    H128980   2.065   2.028  17.841 -0.8060 -0.3972 -0.9815
 1595TIP3    H228981   2.201   1.990  17.788 -1.2177 -0.0413 -2.3549
 1596TIP3   OH228982   0.523   0.178  19.564  0.3927  0.0351 -0.4540
 1596TIP3    H128983   0.516   0.141  19.652  2.7270  0.5747  0.0252
 1596TIP3    H228984   0.543   0.103  19.508  1.3513  0.0076 -0.0945
 1597TIP3   OH228985   4.942   3.932  18.433 -0.2338  0.2125 -0.6974
 1597TIP3    H128986   4.989   3.849  18.441  0.4761  0.6632 -0.1272
 1597TIP3    H228987   4.997   3.985  18.375 -0.5053  0.4119 -0.7725
 1598TIP3   OH228988   0.323   3.248  20.616 -0.4019  0.1066 -0.5380
 1598TIP3    H128989   0.407   3.278  20.650 -1.0728  1.0177  0.3823
 1598TIP3    H228990   0.314   3.292  20.532 -0.0347  0.1546 -0.5523
 1599TIP3   OH228991   3.235   0.978  20.118  0.3237 -0.3756 -1.0215
 1599TIP3    H128992   3.142   0.990  20.137  0.4847  0.3531 -0.6656
 1599TIP3    H228993   3.270   0.932  20.194  0.6852  1.3026 -0.1312
 1600TIP3   OH228994   4.484   2.704  17.558  0.7764 -0.2234 -0.4061
 1600TIP3    H128995   4.442   2.620  17.577  0.0235 -0.0920 -1.4190
 1600TIP3    H228996   4.541   2.686  17.484  0.7718  0.1093 -0.4915
 1601TIP3   OH228997   3.152   1.582  20.261  0.7522  0.2889 -0.0972
 1601TIP3    H128998   3.129   1.609  20.172  1.9536  1.4371 -0.0802
 1601TIP3    H228999   3.180   1.491  20.252  0.2832  0.2031 -0.7786
 1602TIP3   OH229000   5.006   0.897  18.706  0.1387 -0.3680 -0.0790
 1602TIP3    H129001   5.060   0.933  18.637  1.5605  0.6691  1.5067
 1602TIP3    H229002   5.064   0.889  18.782 -1.5400 -0.6869  1.2544
 1603TIP3   OH229003   0.899   4.385  20.547  0.3806  0.0861  0.5969
 1603TIP3    H129004   0.835   4.342  20.604  1.1447  0.7018  1.9430
 1603TIP3    H229005   0.845   4.432  20.483 -0.4996 -0.3132  1.0249
 1604TIP3   OH229006   2.914   1.531  19.721 -0.5724  0.0987  0.8574
 1604TIP3    H129007   2.895   1.622  19.698  0.7911  0.4109  0.8737
 1604TIP3    H229008   2.886   1.522  19.812 -0.4737  0.5708  0.9333
 1605TIP3   OH229009   0.322   6.516  20.199  0.3350 -0.3166  0.1607
 1605TIP3    H129010   0.367   6.572  20.136  0.3824 -0.9459 -0.3710
 1605TIP3    H229011   0.392   6.469  20.245  0.3488  0.7246  1.2639
 1606TIP3   OH229012   2.236   1.409  19.105 -0.5211 -0.1846 -0.4019
 1606TIP3    H129013   2.317   1.384  19.060 -0.0666  0.3592  0.0912
 1606TIP3    H229014   2.260   1.410  19.198 -1.6582 -2.1201 -0.0327
 1607TIP3   OH229015   5.856   4.829  18.400  0.6887 -0.0989  0.4876
 1607TIP3    H129016   5.876   4.835  18.306  0.0741  0.0725  0.3580
 1607TIP3    H229017   5.786   4.893  18.413 -0.1169 -1.0118  0.7970
 1608TIP3   OH229018   6.705   2.890  19.384 -0.3418  0.6890 -0.2882
 1608TIP3    H129019   6.797   2.865  19.392 -0.5036 -0.3259 -1.4186
 1608TIP3    H229020   6.698   2.970  19.436  1.4399  1.4190 -1.0711
 1609TIP3   OH229021   6.281   4.211  17.790 -0.0117  0.5325 -0.0094
 1609TIP3    H129022   6.302   4.126  17.829 -0.6078  0.3952  0.0259
 1609TIP3    H229023   6.216   4.249  17.849 -1.1073  0.2179 -0.9905
 1610TIP3   OH229024   1.087   3.104  17.967 -0.3923  0.5581  0.6046
 1610TIP3    H129025   1.161   3.164  17.959 -0.9480  1.2031  0.0583
 1610TIP3    H229026   1.058   3.090  17.876  0.0457 -0.9648  0.6739
 1611TIP3   OH229027   4.864   6.586  20.456  0.3415  0.5788 -0.0307
 1611TIP3    H129028   4.845   6.633  20.537  1.2144  1.6406 -0.3998
 1611TIP3    H229029   4.795   6.521  20.448 -1.0413  1.9419  0.4172
 1612TIP3   OH229030   6.096   5.687  17.765 -0.2337 -0.3524 -0.9113
 1612TIP3    H129031   6.033   5.733  17.710 -0.1994 -0.3302 -0.9319
 1612TIP3    H229032   6.177   5.686  17.713 -0.2863 -0.6008 -0.9914
 1613TIP3   OH229033   4.535   5.332  18.139 -0.1509 -0.1797  0.9432
 1613TIP3    H129034   4.572   5.344  18.051 -0.6787 -0.7505  0.6374
 1613TIP3    H229035   4.587   5.390  18.195 -0.5585  1.0669  0.0636
 1614TIP3   OH229036   5.611   4.162  20.272 -0.0833 -0.3855 -0.1018
 1614TIP3    H129037   5.561   4.217  20.213 -0.3801  0.2385  0.7062
 1614TIP3    H229038   5.569   4.076  20.269 -1.5858  0.2724  0.9884
 1615TIP3   OH229039   1.311   1.690  20.429 -0.2403  0.2944  0.0392
 1615TIP3    H129040   1.258   1.673  20.351  0.0321 -0.5796  0.0409
 1615TIP3    H229041   1.247   1.696  20.500 -0.2432 -3.0106  0.4301
 1616TIP3   OH229042   0.962   4.653  18.795 -0.5047 -0.5464 -0.1166
 1616TIP3    H129043   0.878   4.676  18.834 -0.4417 -0.4357 -0.0454
 1616TIP3    H229044   1.011   4.735  18.795  0.1259 -0.8977  1.1360
 1617TIP3   OH229045   1.636   2.123  18.444 -0.3018  0.2310 -0.2345
 1617TIP3    H129046   1.557   2.174  18.459 -0.0775 -0.0427  2.1280
 1617TIP3    H229047   1.708   2.185  18.454 -0.1314  0.4608 -2.2916
 1618TIP3   OH229048   3.133   6.168  17.911  0.0931  0.2873  0.0352
 1618TIP3    H129049   3.144   6.146  18.003 -1.1637  1.9166  0.6349
 1618TIP3    H229050   3.104   6.087  17.869  0.1311 -0.3333  1.1801
 1619TIP3   OH229051   6.583   6.690  18.046 -0.0632  0.4382  0.3425
 1619TIP3    H129052   6.508   6.702  18.104 -1.1200  0.9736 -1.0612
 1619TIP3    H229053   6.567   6.605  18.004  0.1801  0.4905  0.1417
 1620TIP3   OH229054   2.050   4.698  18.615 -0.2181  0.0702  0.0719
 1620TIP3    H129055   2.101   4.693  18.533 -0.9563  0.2880 -0.4094
 1620TIP3    H229056   1.959   4.700  18.586 -0.5964 -1.9940  0.9886
 1621TIP3   OH229057   0.870   1.036  17.668 -0.2522 -0.2919 -0.2378
 1621TIP3    H129058   0.807   1.003  17.731  0.5052 -2.1955 -0.4279
 1621TIP3    H229059   0.831   1.016  17.582  0.5347 -1.4148 -0.3561
 1622TIP3   OH229060   3.762   2.437  16.918  0.9084 -0.4776 -0.1897
 1622TIP3    H129061   3.691   2.481  16.965 -1.5485 -2.8316 -1.4443
 1622TIP3    H229062   3.804   2.382  16.983  0.8969  0.1334  0.3410
 1623TIP3   OH229063   0.695   0.715  18.028  0.9063 -0.3489 -0.0661
 1623TIP3    H129064   0.772   0.677  17.984 -0.1721 -1.7858 -0.7655
 1623TIP3    H229065   0.622   0.661  17.999 -0.2517  0.4241  1.3372
 1624TIP3   OH229066   3.083   5.900  20.438 -0.2430  0.4450 -0.2670
 1624TIP3    H129067   3.060   5.810  20.413 -0.7041  0.7380 -0.9410
 1624TIP3    H229068   3.122   5.892  20.524 -1.5683 -0.2568  0.2985
 1625TIP3   OH229069   3.531   5.252  18.586 -0.7245 -0.1356 -0.0846
 1625TIP3    H129070   3.472   5.231  18.658  1.4162  0.0556  1.8546
 1625TIP3    H229071   3.602   5.188  18.594  0.3344  0.8639 -1.0382
 1626TIP3   OH229072   5.838   0.771  17.855  0.1249  0.3082  0.1747
 1626TIP3    H129073   5.787   0.751  17.777  1.7149 -0.5521 -0.6845
 1626TIP3    H229074   5.778   0.754  17.928 -1.1869  0.5340 -0.8324
 1627TIP3   OH229075   1.803   5.274  18.662 -0.6717 -0.2404 -0.2042
 1627TIP3    H129076   1.843   5.196  18.622 -0.9895 -0.2173 -0.5718
 1627TIP3    H229077   1.742   5.306  18.596  1.0934  1.6543 -1.0094
 1628TIP3   OH229078   1.295   1.437  19.891  0.0937  0.2205  0.1298
 1628TIP3    H129079   1.366   1.428  19.828 -0.1998 -0.5480 -0.1042
 1628TIP3    H229080   1.256   1.522  19.872 -0.5998 -0.4036 -1.3785
 1629TIP3   OH229081   1.696   4.614  17.816 -0.8200  0.4199  0.0419
 1629TIP3    H129082   1.776   4.643  17.860 -1.1618  0.1232  0.8836
 1629TIP3    H229083   1.713   4.628  17.723  0.4957 -0.3230  0.1528
 1630TIP3   OH229084   1.152   0.019  17.883  0.2508 -0.3145  0.4060
 1630TIP3    H129085   1.176  -0.068  17.915 -1.2501 -0.8146  0.2147
 1630TIP3    H229086   1.152   0.011  17.788  2.0538  0.4624  0.2846
 1631TIP3   OH229087   6.642   2.965  20.387  0.0947  0.0099 -0.2938
 1631TIP3    H129088   6.719   2.998  20.433  0.9709 -3.1027  0.7394
 1631TIP3    H229089   6.579   2.945  20.457 -1.2820  1.4530 -1.0428
 1632TIP3   OH229090   1.077   3.972  18.212  0.8636  0.1382  0.3216
 1632TIP3    H129091   1.025   4.052  18.219 -3.6651 -2.1416 -2.2052
 1632TIP3    H229092   1.130   3.984  18.133 -1.1849  0.1590 -1.1468
 1633TIP3   OH229093   5.778   0.054  17.999 -0.1832  0.0183  0.0843
 1633TIP3    H129094   5.813  -0.009  18.063 -1.5211  0.4087  1.2468
 1633TIP3    H229095   5.805   0.139  18.032  2.5150  0.1197 -2.0324
 1634TIP3   OH229096   3.180   3.295  19.893 -0.6630  0.3106  0.1840
 1634TIP3    H129097   3.224   3.243  19.960 -0.4758 -0.4389 -0.5014
 1634TIP3    H229098   3.195   3.386  19.920 -0.0078  0.0361  0.7897
 1635TIP3   OH229099   4.035   2.074  20.739 -0.7408 -0.8149  0.3396
 1635TIP3    H129100   4.046   2.128  20.817 -1.0165 -0.4556  0.1326
 1635TIP3    H229101   4.032   2.136  20.666  2.2145 -1.2579 -0.2719
 1636TIP3   OH229102   0.374   1.887  18.326  0.3099  0.6955  0.4502
 1636TIP3    H129103   0.421   1.843  18.256 -1.4527  0.0831 -0.4062
 1636TIP3    H229104   0.347   1.816  18.385 -1.1150  0.7942 -0.0564
 1637TIP3   OH229105   1.170   5.618  19.928  0.9841 -0.3741 -0.0607
 1637TIP3    H129106   1.179   5.562  19.851 -0.1753  1.0865 -1.3290
 1637TIP3    H229107   1.193   5.706  19.897 -1.0074  0.5223  0.8332
 1638TIP3   OH229108   4.967   4.038  16.903 -0.1260 -0.4416  0.2883
 1638TIP3    H129109   4.901   4.106  16.889  0.1719 -0.2053  0.0225
 1638TIP3    H229110   5.030   4.051  16.833 -1.2733 -2.4761 -1.2178
 1639TIP3   OH229111   2.642   5.318  18.224 -0.3834  0.1275 -0.3736
 1639TIP3    H129112   2.717   5.365  18.260 -1.5109  0.5235  1.6301
 1639TIP3    H229113   2.570   5.382  18.227 -1.1456 -0.6867 -0.8137
 1640TIP3   OH229114   1.040   0.466  19.104  0.1534 -0.5341  0.1022
 1640TIP3    H129115   1.106   0.443  19.039 -0.3746  0.4060 -0.8109
 1640TIP3    H229116   1.003   0.382  19.132 -0.1983 -0.9449 -1.4813
 1641TIP3   OH229117   6.588   3.154  18.647  0.3011  0.3566 -0.0368
 1641TIP3    H129118   6.625   3.192  18.727 -0.2537 -2.8526  1.9033
 1641TIP3    H229119   6.665   3.135  18.593  0.9340  0.1681  0.8924
 1642TIP3   OH229120   3.907   5.006  19.636 -1.1164 -0.3770 -0.7980
 1642TIP3    H129121   3.965   4.956  19.578 -0.8423 -1.1184  0.0950
 1642TIP3    H229122   3.956   5.014  19.718 -1.4445  0.7814 -0.6918
 1643TIP3   OH229123   4.493   1.918  20.278  0.1613 -0.3223 -0.0808
 1643TIP3    H129124   4.403   1.906  20.308 -0.6827 -0.1619 -2.3382
 1643TIP3    H229125   4.492   1.888  20.187  2.9913 -2.5977  0.5083
 1644TIP3   OH229126   1.915   0.903  18.667 -0.3632 -0.0953  0.1825
 1644TIP3    H129127   1.866   0.849  18.605 -0.5869 -0.0258  0.2936
 1644TIP3    H229128   1.862   0.983  18.675 -0.8827 -0.5232  1.2374
 1645TIP3   OH229129   0.902   0.345  20.452  0.5187  0.1866  0.5354
 1645TIP3    H129130   0.900   0.439  20.468  0.0450  0.5451 -1.3966
 1645TIP3    H229131   0.974   0.332  20.391 -1.5061 -0.1566 -1.9604
 1646TIP3   OH229132   1.573   2.573  18.357  0.1110  0.5444  0.0522
 1646TIP3    H129133   1.624   2.651  18.379  0.3748  0.6016 -0.7310
 1646TIP3    H229134   1.498   2.575  18.417 -0.6384  2.1421 -0.8899
 1647TIP3   OH229135   0.692   2.466  20.679  0.0018 -0.6304  0.1618
 1647TIP3    H129136   0.630   2.393  20.680 -0.2475 -0.6034 -3.0685
 1647TIP3    H229137   0.649   2.534  20.730 -1.6249 -1.3799 -0.1382
 1648TIP3   OH229138   1.516   6.580  17.181  0.5234 -0.6238 -0.7771
 1648TIP3    H129139   1.530   6.522  17.107 -2.5036 -1.6804 -0.6504
 1648TIP3    H229140   1.580   6.552  17.246 -0.3396 -3.3954 -1.0134
 1649TIP3   OH229141   5.837   1.729  18.736  0.5126 -0.3043  0.3077
 1649TIP3    H129142   5.831   1.659  18.672  0.5294 -0.0850  0.0654
 1649TIP3    H229143   5.911   1.782  18.707  2.2391 -1.6575  1.9513
 1650TIP3   OH229144   5.883   1.192  19.108  0.5705 -0.1428  0.2510
 1650TIP3    H129145   5.930   1.274  19.124  0.4058 -0.1360  0.7130
 1650TIP3    H229146   5.945   1.137  19.061  1.2024 -0.2990  1.2409
 1651TIP3   OH229147   3.703   2.348  18.521  0.5731 -0.2274  0.0835
 1651TIP3    H129148   3.653   2.278  18.478  1.2245 -0.2417 -0.6812
 1651TIP3    H229149   3.676   2.428  18.476  1.3149 -0.2510 -0.4073
 1652TIP3   OH229150   5.159   4.766  20.744  0.2899 -0.5260  0.5034
 1652TIP3    H129151   5.099   4.746  20.673  0.7878  1.3261 -0.5096
 1652TIP3    H229152   5.127   4.850  20.779  1.7473  0.0498  0.5133
 1653TIP3   OH229153   0.454   5.291  19.966 -0.2603 -0.4417 -0.1860
 1653TIP3    H129154   0.388   5.357  19.945  0.5927  0.9895  1.3615
 1653TIP3    H229155   0.409   5.230  20.025 -0.8771 -0.9075 -1.1241
 1654TIP3   OH229156   4.061   0.655  18.417  0.2532 -0.3041  0.3111
 1654TIP3    H129157   4.093   0.597  18.348  0.1471 -0.8802  0.7462
 1654TIP3    H229158   3.989   0.607  18.458 -0.5202  0.5564  0.0062
 1655TIP3   OH229159   0.675   6.320  18.712  0.5925 -0.3178 -0.5039
 1655TIP3    H129160   0.635   6.373  18.643  0.9622 -1.0083 -1.2628
 1655TIP3    H229161   0.602   6.270  18.748  0.7798 -1.9856 -2.2523
 1656TIP3   OH229162   1.332   1.094  19.231 -0.0902 -0.0304  0.1400
 1656TIP3    H129163   1.331   1.115  19.325  0.5440  2.6867 -0.3742
 1656TIP3    H229164   1.246   1.056  19.214 -0.7775  0.8082  1.5640
 1657TIP3   OH229165   6.233   3.218  20.599  0.0084  0.6930  0.6265
 1657TIP3    H129166   6.277   3.159  20.661  0.6452  0.1805 -0.2873
 1657TIP3    H229167   6.281   3.300  20.606  0.1527  0.6015  0.7285
 1658TIP3   OH229168   2.227   1.698  18.276  0.1006  0.1273 -0.1672
 1658TIP3    H129169   2.234   1.668  18.186  1.3485 -1.9068  0.5342
 1658TIP3    H229170   2.138   1.732  18.283 -0.7485 -1.6365 -1.6214
 1659TIP3   OH229171   4.085   2.944  17.382  0.0107  0.4271 -0.1588
 1659TIP3    H129172   4.136   2.993  17.317  0.3882  0.2179 -0.0234
 1659TIP3    H229173   3.994   2.959  17.358  0.1214  1.2251 -0.1054
 1660TIP3   OH229174   0.731   0.966  18.673 -0.3678 -0.5608 -0.2262
 1660TIP3    H129175   0.760   0.894  18.616  0.6712 -0.5659  0.2982
 1660TIP3    H229176   0.746   1.045  18.621  2.3533 -0.3946  0.6500
 1661TIP3   OH229177   5.779   1.390  18.614  0.1564  0.7784 -0.0630
 1661TIP3    H129178   5.809   1.310  18.658  0.3589  0.5580 -0.5955
 1661TIP3    H229179   5.711   1.425  18.672 -0.5803 -0.2740 -0.2696
 1662TIP3   OH229180   6.548   0.465  19.805  0.5163 -0.0857 -0.6062
 1662TIP3    H129181   6.472   0.524  19.807  0.5510 -0.0386  1.4887
 1662TIP3    H229182   6.521   0.393  19.749 -1.3733 -0.4111  0.6307
 1663TIP3   OH229183   0.691   4.741  20.787 -0.5236 -0.4786  0.3368
 1663TIP3    H129184   0.617   4.795  20.761 -0.3838  0.2337  1.3605
 1663TIP3    H229185   0.767   4.799  20.778 -0.3560 -0.5304  1.3379
 1664TIP3   OH229186   4.183   4.359  18.397 -0.3375 -0.0153  0.5325
 1664TIP3    H129187   4.198   4.433  18.337  0.0267  0.6144  1.3813
 1664TIP3    H229188   4.151   4.399  18.477 -3.8617 -1.0834 -0.1689
 1665TIP3   OH229189   5.989   4.929  18.166  0.4140  0.1884 -0.3831
 1665TIP3    H129190   6.081   4.926  18.140 -0.0611 -0.2876 -2.1322
 1665TIP3    H229191   5.949   4.993  18.108 -0.6662 -0.7470 -0.7196
 1666TIP3   OH229192   5.955   5.559  19.927  0.1734 -0.0156  0.3169
 1666TIP3    H129193   5.955   5.585  19.835 -1.9974 -2.3216 -0.4452
 1666TIP3    H229194   6.047   5.565  19.953  0.8468  0.7162 -1.9948
 1667TIP3   OH229195   2.231   2.355  17.781  0.0309 -0.2441  0.1746
 1667TIP3    H129196   2.188   2.356  17.866  0.6280  0.3857  0.4765
 1667TIP3    H229197   2.158   2.355  17.718 -0.4086 -1.0983  0.6749
 1668TIP3   OH229198   2.281   3.961  18.406  0.1790  0.1426 -0.6212
 1668TIP3    H129199   2.346   3.891  18.400  0.0852  0.0956 -1.1283
 1668TIP3    H229200   2.224   3.948  18.330  0.2025  0.8178 -0.7599
 1669TIP3   OH229201   3.540   5.723  19.195  0.0131  0.1554  0.5746
 1669TIP3    H129202   3.540   5.628  19.209  0.0477 -0.1469 -1.2173
 1669TIP3    H229203   3.605   5.756  19.257  1.3658 -1.2171 -0.0635
 1670TIP3   OH229204   4.335   5.052  18.622  1.0656 -0.0049  0.3565
 1670TIP3    H129205   4.416   5.036  18.572  1.2110  0.7247  0.3406
 1670TIP3    H229206   4.340   5.145  18.645 -0.2176  0.2934 -0.4664
 1671TIP3   OH229207   3.869   1.681  20.395  0.2244 -0.0151  0.0728
 1671TIP3    H129208   3.962   1.656  20.395  0.5397  1.1185 -0.4500
 1671TIP3    H229209   3.866   1.761  20.448 -0.3965  0.1533 -0.2109
 1672TIP3   OH229210   6.695   5.151  18.181 -0.0416 -0.1831 -0.3361
 1672TIP3    H129211   6.754   5.078  18.165  0.7814  0.3989 -0.0182
 1672TIP3    H229212   6.752   5.224  18.205 -0.9193  0.2134  0.6592
 1673TIP3   OH229213   4.111   4.004  18.114 -0.4896  0.1066  0.7315
 1673TIP3    H129214   4.024   4.043  18.111 -0.8427 -0.5861  1.5751
 1673TIP3    H229215   4.100   3.925  18.167  1.0472  1.0242  2.5070
 1674TIP3   OH229216   2.021   3.229  20.195 -0.5110  0.6331  0.5704
 1674TIP3    H129217   1.992   3.137  20.191 -2.3812  1.2199 -0.6098
 1674TIP3    H229218   2.032   3.254  20.104  0.5415  1.4535  0.9068
 1675TIP3   OH229219   6.157   5.143  19.871  0.6206 -0.6589 -0.1214
 1675TIP3    H129220   6.166   5.067  19.813 -0.8826  0.0207 -1.3259
 1675TIP3    H229221   6.063   5.150  19.887  0.5039  1.8103 -1.3251
 1676TIP3   OH229222   1.247   4.921  20.092 -0.0235  0.1053 -0.0848
 1676TIP3    H129223   1.236   4.973  20.172  2.6790  0.4818  0.1195
 1676TIP3    H229224   1.309   4.853  20.117 -1.4293 -1.6443 -1.1106
 1677TIP3   OH229225   5.454   2.277  19.572  0.4567  0.1081 -0.3584
 1677TIP3    H129226   5.529   2.218  19.583  0.8815  0.5121 -1.0014
 1677TIP3    H229227   5.449   2.324  19.655  1.7895  1.0537 -0.7823
 1678TIP3   OH229228   0.608   0.897  20.389 -0.5479 -0.5176  0.6539
 1678TIP3    H129229   0.527   0.905  20.440  0.1743  0.8074  1.6515
 1678TIP3    H229230   0.671   0.859  20.450  0.5839  1.9283  1.1519
 1679TIP3   OH229231   5.832   0.593  18.795  0.2586  0.2242  0.1191
 1679TIP3    H129232   5.885   0.539  18.854 -0.7098 -0.9941 -0.0888
 1679TIP3    H229233   5.862   0.570  18.708  0.3815  0.6202  0.0541
 1680TIP3   OH229234   2.812   0.128  17.515  0.4138  0.3502  0.0972
 1680TIP3    H129235   2.872   0.182  17.566 -0.2869  1.7487 -0.4815
 1680TIP3    H229236   2.762   0.191  17.463 -2.0582 -0.6501  1.0729
 1681TIP3   OH229237   4.308   6.705  18.234 -0.0041  0.3222 -0.3672
 1681TIP3    H129238   4.292   6.655  18.153  1.0256 -1.3957  0.4281
 1681TIP3    H229239   4.271   6.651  18.303  1.5449  0.4158  0.5845
 1682TIP3   OH229240   4.204   6.681  18.500  0.6309 -0.4212  0.5690
 1682TIP3    H129241   4.265   6.686  18.574 -0.4809  1.4186  1.4173
 1682TIP3    H229242   4.182   6.772  18.481  0.2951 -0.8905 -1.5708
 1683TIP3   OH229243   6.659   1.343  20.823  0.8484 -0.1868 -0.1304
 1683TIP3    H129244   6.740   1.302  20.854  0.4466 -0.0688  1.1227
 1683TIP3    H229245   6.688   1.403  20.754  1.7977 -0.3314  0.1167
 1684TIP3   OH229246   6.106   1.454  20.835  0.9195 -0.3166 -0.0356
 1684TIP3    H129247   6.090   1.422  20.924 -0.2904 -0.0868 -0.1559
 1684TIP3    H229248   6.185   1.408  20.807  0.2571 -1.8245  0.4739
 1685TIP3   OH229249   0.479   5.187  20.909  0.5823 -0.6261 -0.3473
 1685TIP3    H129250   0.394   5.227  20.923  0.0823 -1.8766  0.3550
 1685TIP3    H229251   0.540   5.241  20.958  0.0277 -0.3606  0.0508
 1686TIP3   OH229252   0.487   5.958  19.419 -0.1228  0.3442  0.4001
 1686TIP3    H129253   0.481   5.911  19.502 -0.5781 -1.5412 -0.6133
 1686TIP3    H229254   0.402   6.001  19.409 -1.3625 -2.0690 -0.4654
 1687TIP3   OH229255   3.102   6.702  17.747  0.3223 -0.1489  0.3865
 1687TIP3    H129256   3.052   6.682  17.668  0.5138 -2.9550  0.8770
 1687TIP3    H229257   3.051   6.770  17.792 -0.8724 -0.0155 -1.0981
 1688TIP3   OH229258   4.418   2.731  17.222 -0.2444  0.0468 -0.4078
 1688TIP3    H129259   4.344   2.683  17.259 -0.1778 -2.0494 -2.7414
 1688TIP3    H229260   4.495   2.686  17.255  0.2710  3.0646  3.1570
 1689TIP3   OH229261   3.415   3.798  19.886  0.0952 -0.2124 -0.5066
 1689TIP3    H129262   3.511   3.798  19.888  0.1220 -0.9172 -1.3053
 1689TIP3    H229263   3.392   3.863  19.820  0.0983 -1.6394 -1.9637
 1690TIP3   OH229264   6.654   0.418  19.303 -0.3888 -0.2358  0.2795
 1690TIP3    H129265   6.644   0.391  19.212  1.0498  1.8997 -0.5818
 1690TIP3    H229266   6.648   0.513  19.302  2.1697  0.0746  1.9828
 1691TIP3   OH229267   5.902   5.499  18.629 -0.1969 -0.1710 -0.6364
 1691TIP3    H129268   5.906   5.472  18.721 -2.1257 -1.9848 -1.0162
 1691TIP3    H229269   5.991   5.486  18.597 -0.2067 -2.9396  0.1481
 1692TIP3   OH229270   1.183   4.499  17.481 -0.1162 -0.3306  0.0894
 1692TIP3    H129271   1.278   4.507  17.485 -0.2373  0.9666  1.2108
 1692TIP3    H229272   1.162   4.505  17.388  0.8908 -0.4524 -0.1503
 1693TIP3   OH229273   2.507   2.540  20.405 -0.3989 -0.6293 -0.3381
 1693TIP3    H129274   2.538   2.451  20.419  0.8332 -0.1069  0.4038
 1693TIP3    H229275   2.576   2.596  20.442  0.2550  0.7176 -3.2961
 1694TIP3   OH229276   2.419   4.307  19.529 -0.0217 -0.7072  0.2735
 1694TIP3    H129277   2.326   4.323  19.547 -0.4173 -2.0633 -0.3483
 1694TIP3    H229278   2.419   4.226  19.478  1.4725 -0.3919 -0.2774
 1695TIP3   OH229279   3.049   4.731  20.158 -0.1744 -0.0582 -0.1985
 1695TIP3    H129280   2.990   4.735  20.082  1.6976 -0.7891 -1.7641
 1695TIP3    H229281   3.104   4.809  20.149 -0.8034  0.5959  1.2348
 1696TIP3   OH229282   1.759   3.634  20.166 -0.5820 -0.0167  0.5696
 1696TIP3    H129283   1.783   3.569  20.100  0.3840 -0.1404  1.0295
 1696TIP3    H229284   1.832   3.635  20.227 -0.6059  1.4673  0.6096
 1697TIP3   OH229285   4.399   2.293  19.741  0.2151  0.2993 -0.3677
 1697TIP3    H129286   4.444   2.377  19.738 -0.0597  0.4784  0.2531
 1697TIP3    H229287   4.445   2.238  19.678 -1.3708  1.7382 -2.9365
 1698TIP3   OH229288   4.511   4.418  17.149 -0.0794 -0.6032 -0.1501
 1698TIP3    H129289   4.432   4.466  17.125 -0.0168  0.0152  0.8374
 1698TIP3    H229290   4.478   4.337  17.189 -0.2516 -0.0650  0.8471
 1699TIP3   OH229291   4.407   4.186  19.166 -0.3366  0.1949 -0.1562
 1699TIP3    H129292   4.422   4.182  19.261 -2.7562  1.2841  0.3725
 1699TIP3    H229293   4.481   4.236  19.132 -0.5519  1.8198  1.5561
 1700TIP3   OH229294   3.031   2.030  19.656  0.1946  0.0520  0.5640
 1700TIP3    H129295   2.984   2.095  19.605  1.4964 -0.0768 -0.8806
 1700TIP3    H229296   3.037   2.067  19.744 -1.3192  0.6962  0.4115
 1701TIP3   OH229297   5.978   2.794  17.997  0.0909 -0.6043  0.1519
 1701TIP3    H129298   5.890   2.792  18.036 -0.3324 -0.3389 -0.7718
 1701TIP3    H229299   6.005   2.886  18.003  0.0078 -0.5547 -0.2070
 1702TIP3   OH229300   1.155   2.135  18.521  0.1960  0.0925 -0.0387
 1702TIP3    H129301   1.153   2.043  18.497 -1.1466  0.1368 -0.1583
 1702TIP3    H229302   1.132   2.182  18.440 -1.2331  0.4011  0.5172
 1703TIP3   OH229303   5.640   0.878  20.015 -0.2447 -0.3476 -0.0018
 1703TIP3    H129304   5.655   0.842  19.928  1.7371 -0.8286  0.4849
 1703TIP3    H229305   5.727   0.880  20.055 -0.9390  0.9713  1.5443
 1704TIP3   OH229306   4.902   1.161  19.553  0.4140  0.1719  0.4572
 1704TIP3    H129307   4.900   1.166  19.457 -2.8105  2.6019  0.4624
 1704TIP3    H229308   4.961   1.231  19.580 -0.8976  1.4268  0.1828
 1705TIP3   OH229309   5.076   0.837  19.980  0.1698 -0.5604 -0.1187
 1705TIP3    H129310   5.120   0.752  19.977 -0.5115 -0.9247  0.0824
 1705TIP3    H229311   5.088   0.867  20.070  0.4950 -0.3884 -0.2140
 1706TIP3   OH229312   1.743   3.676  18.947  0.1175 -0.3298 -0.0774
 1706TIP3    H129313   1.811   3.719  19.001  0.7044  0.8510 -1.6766
 1706TIP3    H229314   1.681   3.746  18.927 -0.5963 -0.9771 -0.1754
 1707TIP3   OH229315   2.141   5.115  19.087  0.2579 -0.2514  0.5495
 1707TIP3    H129316   2.059   5.096  19.134  0.6515 -1.7824  0.6563
 1707TIP3    H229317   2.117   5.110  18.995 -0.3890  2.2108  0.4943
 1708TIP3   OH229318   6.481   4.523  19.668  0.2549 -0.0414  0.1728
 1708TIP3    H129319   6.546   4.503  19.735 -1.2725 -1.0489  1.4404
 1708TIP3    H229320   6.507   4.470  19.593  1.6524  0.6271  0.1631
 1709TIP3   OH229321   5.334   0.527  20.586  0.0849 -0.1503  0.1790
 1709TIP3    H129322   5.292   0.489  20.663  0.6695  0.5114  0.8475
 1709TIP3    H229323   5.328   0.621  20.599  2.1806 -0.0111  0.5758
 1710TIP3   OH229324   0.034   6.109  19.997 -0.1509  0.0612  0.1723
 1710TIP3    H129325  -0.054   6.143  19.983 -0.2552 -0.6300 -1.0212
 1710TIP3    H229326   0.053   6.058  19.918  0.5018 -1.5414  1.3056
 1711TIP3   OH229327   6.392   1.446  19.662  0.1722  0.4121  0.0494
 1711TIP3    H129328   6.335   1.474  19.590 -0.4141  1.1727  0.7804
 1711TIP3    H229329   6.384   1.516  19.727  0.9574 -0.0941  0.7077
 1712TIP3   OH229330   2.841   1.515  19.976 -0.3959 -0.2148 -0.3940
 1712TIP3    H129331   2.895   1.579  20.024  1.2555  0.1439 -2.5976
 1712TIP3    H229332   2.751   1.542  19.994  0.1974  1.0453  0.9284
 1713TIP3   OH229333   2.449   3.099  17.938 -0.1216 -0.3568 -0.5595
 1713TIP3    H129334   2.359   3.126  17.956  0.1038 -0.6351  1.1415
 1713TIP3    H229335   2.446   3.004  17.942  0.5421 -0.3309  1.1864
 1714TIP3   OH229336   6.610   6.258  18.657  0.8738  0.1408  0.3918
 1714TIP3    H129337   6.622   6.186  18.719 -0.8435 -0.7235 -0.2051
 1714TIP3    H229338   6.532   6.303  18.688  0.4718  0.1944 -0.6834
 1715TIP3   OH229339   2.793   4.763  20.334  0.0082 -0.1891 -0.3227
 1715TIP3    H129340   2.745   4.829  20.285 -0.2188 -0.0392  0.0977
 1715TIP3    H229341   2.885   4.781  20.315 -0.0988 -0.8258 -1.5877
 1716TIP3   OH229342   0.250   2.768  16.805 -0.1022 -0.2600  0.2101
 1716TIP3    H129343   0.335   2.808  16.823 -0.4418  0.2777  0.6567
 1716TIP3    H229344   0.186   2.833  16.835 -0.6771 -0.4253 -0.6019
 1717TIP3   OH229345   5.234   2.947  20.544  0.2828  0.1279 -0.2720
 1717TIP3    H129346   5.291   3.005  20.493 -1.9847  1.6316 -1.2729
 1717TIP3    H229347   5.186   3.007  20.602 -0.9389 -0.9441 -0.1371
 1718TIP3   OH229348   1.691   3.087  18.126 -0.0803 -0.2033 -0.0148
 1718TIP3    H129349   1.711   2.999  18.094 -0.2307 -0.4631  0.5843
 1718TIP3    H229350   1.663   3.073  18.217 -0.2710  0.4452  0.0288
 1719TIP3   OH229351   2.443   1.587  17.433 -0.5558 -0.3641  0.6925
 1719TIP3    H129352   2.390   1.627  17.502 -0.7670  2.3570 -0.8823
 1719TIP3    H229353   2.532   1.619  17.449 -0.6244  0.3847 -0.2971
 1720TIP3   OH229354   2.169   4.396  19.600  0.7605  0.7520  0.3894
 1720TIP3    H129355   2.138   4.476  19.643  0.2438  0.8927 -0.2211
 1720TIP3    H229356   2.099   4.374  19.538  1.1664  0.1577  0.1321
 1721TIP3   OH229357   4.481   6.599  18.668 -0.5844  0.0797  0.1028
 1721TIP3    H129358   4.487   6.521  18.613 -0.0150  1.4086 -1.7974
 1721TIP3    H229359   4.445   6.567  18.751  1.9248 -2.6469  0.3155
 1722TIP3   OH229360   5.768   2.043  18.392  0.6310  0.0797  0.1595
 1722TIP3    H129361   5.723   2.022  18.310  0.9770 -1.5125  0.3616
 1722TIP3    H229362   5.779   1.959  18.437  2.6179  0.5754  0.7220
 1723TIP3   OH229363   4.428   3.085  19.426  0.3604 -0.2831 -0.3910
 1723TIP3    H129364   4.510   3.097  19.475  0.0902  1.4364 -0.2830
 1723TIP3    H229365   4.451   3.109  19.336 -0.0250  0.2493 -0.3500
 1724TIP3   OH229366   0.851   3.918  20.891 -0.7211 -0.1126 -0.5586
 1724TIP3    H129367   0.892   3.940  20.975  0.3010 -0.0665 -1.0518
 1724TIP3    H229368   0.832   4.002  20.850  1.0977 -0.0785 -1.4457
 1725TIP3   OH229369   0.874   4.626  18.149 -0.1811 -0.2566 -0.2897
 1725TIP3    H129370   0.828   4.543  18.143 -0.9686  0.2486 -2.6366
 1725TIP3    H229371   0.960   4.608  18.111 -1.2007  0.4424 -3.1995
 1726TIP3   OH229372   1.324   5.545  20.591 -0.3268  0.5521 -0.5663
 1726TIP3    H129373   1.283   5.473  20.640 -3.2960  0.7763 -2.4508
 1726TIP3    H229374   1.395   5.504  20.542 -1.0206 -0.8293 -0.4636
 1727TIP3   OH229375   4.639   5.340  19.753  0.3635  0.4487  0.0378
 1727TIP3    H129376   4.676   5.339  19.665  0.0659  2.4160 -0.1732
 1727TIP3    H229377   4.711   5.313  19.810  0.7173 -0.3175 -0.7511
 1728TIP3   OH229378   6.570   2.349  19.260 -0.4775 -0.2271 -0.8264
 1728TIP3    H129379   6.618   2.432  19.252  1.1035 -0.8940  0.9887
 1728TIP3    H229380   6.513   2.362  19.336 -1.4732 -0.2552 -1.5576
 1729TIP3   OH229381   1.935   4.930  19.062  0.1340 -0.3578 -0.7176
 1729TIP3    H129382   1.903   5.010  19.020 -0.4545 -0.2108 -0.0017
 1729TIP3    H229383   1.977   4.882  18.991  0.5486  0.6039 -1.1508
 1730TIP3   OH229384   0.827   1.689  19.256  0.0729 -0.3372  0.6569
 1730TIP3    H129385   0.742   1.720  19.286 -0.3232 -1.2988  0.5291
 1730TIP3    H229386   0.838   1.730  19.170  0.3292  0.8100  1.2018
 1731TIP3   OH229387   4.389   4.062  18.153  0.3651  0.4927 -0.2638
 1731TIP3    H129388   4.402   4.119  18.228  0.2509 -0.0787  0.1916
 1731TIP3    H229389   4.294   4.056  18.143  0.3596 -0.1996  0.1432
 1732TIP3   OH229390   5.550   6.483  17.442  0.4697  0.3147 -0.4844
 1732TIP3    H129391   5.568   6.577  17.439  0.1741  0.3548 -1.3515
 1732TIP3    H229392   5.477   6.471  17.381 -0.9371 -0.1569  1.2053
 1733TIP3   OH229393   2.489   2.944  18.763 -1.1417 -0.5640  0.0062
 1733TIP3    H129394   2.470   2.903  18.848  1.5642 -1.7607  0.1206
 1733TIP3    H229395   2.557   2.889  18.724 -2.2141  0.0145 -2.9428
 1734TIP3   OH229396   3.093   6.116  18.407 -0.3375  0.5470 -0.6805
 1734TIP3    H129397   3.168   6.088  18.460 -0.4819 -0.9675 -1.2408
 1734TIP3    H229398   3.017   6.086  18.456 -0.5039  0.0982 -1.2044
 1735TIP3   OH229399   2.608   2.537  17.241 -0.0085 -0.7239  0.2144
 1735TIP3    H129400   2.677   2.514  17.178 -0.2714  0.8209 -0.6813
 1735TIP3    H229401   2.549   2.462  17.240  0.3729 -1.0298 -0.8737
 1736TIP3   OH229402   1.423   2.871  19.908 -0.2804 -0.1804  0.2885
 1736TIP3    H129403   1.423   2.831  19.821 -0.6124 -1.1584  0.7219
 1736TIP3    H229404   1.370   2.950  19.898  0.3429  0.1331 -0.5760
 1737TIP3   OH229405   5.194   1.222  19.117 -0.0690  0.2121  0.1699
 1737TIP3    H129406   5.214   1.130  19.132  0.3658  0.1117 -0.9313
 1737TIP3    H229407   5.237   1.243  19.034 -1.6393  0.9358 -0.5037
 1738TIP3   OH229408   0.815   0.477  19.453  0.2340  0.0728 -0.0494
 1738TIP3    H129409   0.858   0.392  19.462  0.5421  0.2135 -0.1847
 1738TIP3    H229410   0.723   0.459  19.471  0.6342  0.1293  2.3409
 1739TIP3   OH229411   5.971   0.265  19.730 -0.2012 -0.8710  0.4552
 1739TIP3    H129412   5.909   0.229  19.792 -2.5166 -0.6626 -1.5751
 1739TIP3    H229413   5.966   0.360  19.743  0.1574 -0.8819  0.6867
 1740TIP3   OH229414   1.609   6.190  18.973  0.0354 -0.2859 -0.6954
 1740TIP3    H129415   1.635   6.282  18.976 -0.5928 -0.1177  0.9279
 1740TIP3    H229416   1.539   6.186  18.909  1.6237 -0.1063 -2.5371
 1741TIP3   OH229417   4.050   4.419  20.955  0.0013  0.4409  0.4533
 1741TIP3    H129418   4.146   4.417  20.952  0.0152  1.4188 -0.0208
 1741TIP3    H229419   4.024   4.461  20.873 -0.6876  3.0659  1.8945
 1742TIP3   OH229420   3.456   6.588  18.239 -0.1500  0.1567  0.0911
 1742TIP3    H129421   3.538   6.611  18.284 -0.2335 -0.5905  0.6558
 1742TIP3    H229422   3.400   6.665  18.248 -0.3921 -0.1914  1.8258
 1743TIP3   OH229423   0.081   6.335  20.602 -1.0016  0.0473 -0.8440
 1743TIP3    H129424   0.039   6.315  20.518 -0.0825 -2.3064 -0.8361
 1743TIP3    H229425   0.175   6.321  20.586 -0.6806  0.7833  0.2651
 1744TIP3   OH229426   2.480   4.948  18.807  0.0918 -0.1785 -0.2158
 1744TIP3    H129427   2.430   5.009  18.753 -0.6528  1.0658  1.7501
 1744TIP3    H229428   2.571   4.962  18.784 -0.1748  0.7762 -0.6904
 1745TIP3   OH229429   3.569   0.543  20.411  0.5577 -0.5042 -0.2564
 1745TIP3    H129430   3.483   0.510  20.384  0.3534 -0.3689  0.2254
 1745TIP3    H229431   3.603   0.477  20.470  1.1015 -0.9048 -1.0083
 1746TIP3   OH229432   2.217   0.125  17.809  0.0320  0.2661  0.0046
 1746TIP3    H129433   2.217   0.033  17.834  1.2887  0.0509 -0.7338
 1746TIP3    H229434   2.236   0.125  17.715 -1.2582  1.2215 -0.2831
 1747TIP3   OH229435   0.671   2.064  19.773  0.1963  0.6995  0.1123
 1747TIP3    H129436   0.640   2.134  19.715  0.4108 -1.6596 -3.1750
 1747TIP3    H229437   0.756   2.040  19.736  0.0578 -1.3719  1.0475
 1748TIP3   OH229438   2.619   3.562  19.328  0.1025 -0.4058 -0.8660
 1748TIP3    H129439   2.627   3.587  19.236  0.9652  0.3310 -0.6025
 1748TIP3    H229440   2.634   3.643  19.377  3.5789 -1.4285  0.0492
 1749TIP3   OH229441   3.311   5.636  19.435  0.2230 -0.1574  0.8170
 1749TIP3    H129442   3.403   5.612  19.437  0.0468 -0.9106  0.2212
 1749TIP3    H229443   3.273   5.582  19.366 -0.7976 -0.3269  1.4860
 1750TIP3   OH229444   4.725   5.005  21.042  0.2605  0.1101  0.5601
 1750TIP3    H129445   4.811   5.021  21.003  0.2588  0.9003  0.8471
 1750TIP3    H229446   4.728   5.053  21.126  0.1000 -1.1652  1.3164
 1751TIP3   OH229447   0.880   0.100  18.083 -0.0635 -0.3140  0.1784
 1751TIP3    H129448   0.850   0.010  18.094 -0.8142 -0.1712 -0.6362
 1751TIP3    H229449   0.886   0.113  17.989 -2.2310  1.1914  0.1635
 1752TIP3   OH229450   4.251   2.511  18.269  0.0088  0.6866 -0.4061
 1752TIP3    H129451   4.275   2.540  18.357  0.7654  2.0641 -1.0338
 1752TIP3    H229452   4.181   2.571  18.242 -0.4482  0.0630 -0.6164
 1753TIP3   OH229453   5.242   4.647  17.356 -0.0124  0.4717 -0.0355
 1753TIP3    H129454   5.273   4.572  17.304  0.8694 -0.0765  1.2334
 1753TIP3    H229455   5.172   4.685  17.303  0.0482 -0.7809 -1.0712
 1754TIP3   OH229456   2.016   5.324  20.019 -0.0018  0.2793  0.5309
 1754TIP3    H129457   1.960   5.282  20.084 -0.2350 -0.0879  0.1026
 1754TIP3    H229458   1.964   5.324  19.939  0.8937 -0.8139 -0.0943
 1755TIP3   OH229459   0.502   4.039  18.319  0.0422  0.6145  0.2944
 1755TIP3    H129460   0.513   3.958  18.269 -1.4042  0.9912 -0.7152
 1755TIP3    H229461   0.440   4.016  18.388  1.1311  0.3945  1.2213
 1756TIP3   OH229462   0.271   3.508  18.700  0.3109 -0.0709 -0.0233
 1756TIP3    H129463   0.191   3.548  18.735 -0.6305 -2.3215  0.5410
 1756TIP3    H229464   0.242   3.462  18.621  1.6006  1.3047 -1.3717
 1757TIP3   OH229465   3.281   2.646  20.687  0.4312  0.1687 -0.4238
 1757TIP3    H129466   3.247   2.640  20.776  2.0890  1.0134  0.3218
 1757TIP3    H229467   3.325   2.562  20.672 -0.9557 -0.4833 -0.9678
 1758TIP3   OH229468   0.584   1.063  18.173 -0.2753  0.9507  0.2131
 1758TIP3    H129469   0.576   1.156  18.153  0.6116  0.5517 -2.3348
 1758TIP3    H229470   0.515   1.022  18.121  0.2286  0.0712  0.2250
 1759TIP3   OH229471   5.954   6.112  18.288  0.1281  0.2166  0.0364
 1759TIP3    H129472   6.027   6.064  18.250 -0.0222 -0.3112  0.4052
 1759TIP3    H229473   5.877   6.081  18.240 -0.0277 -0.2577  0.5754
 1760TIP3   OH229474   6.262   1.571  17.564  0.5130  0.2270  0.6912
 1760TIP3    H129475   6.191   1.524  17.520  1.1621 -0.9323  0.8519
 1760TIP3    H229476   6.331   1.506  17.575  1.2334  1.0846  1.4111
 1761TIP3   OH229477   1.433   1.910  19.985 -0.2434 -0.2374  0.0075
 1761TIP3    H129478   1.434   1.821  20.019  1.7032 -0.2905 -0.0635
 1761TIP3    H229479   1.525   1.938  19.987 -0.6675  1.3932 -0.9420
 1762TIP3   OH229480   2.595   0.305  19.043 -0.3447  0.0446 -0.8314
 1762TIP3    H129481   2.560   0.256  18.968 -0.7566 -2.8846  1.0996
 1762TIP3    H229482   2.522   0.309  19.104  0.9584 -0.8979  0.8668
 1763TIP3   OH229483   0.295   2.885  19.991  0.1520 -0.1471 -0.4965
 1763TIP3    H129484   0.238   2.899  19.915 -1.4414 -3.4796 -0.1207
 1763TIP3    H229485   0.240   2.909  20.066  0.9069  0.9359 -0.2725
 1764TIP3   OH229486   2.690   3.336  17.567  0.6429  0.0776  0.5062
 1764TIP3    H129487   2.665   3.363  17.478  0.3959  0.9508  0.8335
 1764TIP3    H229488   2.607   3.320  17.611  0.7776 -0.8486  0.4404
 1765TIP3   OH229489   3.999   3.029  19.848  0.3997 -0.1076  0.2173
 1765TIP3    H129490   3.911   2.993  19.857  0.0264  0.4651 -0.9115
 1765TIP3    H229491   4.025   3.007  19.758  1.2031  0.1700  0.3746
 1766TIP3   OH229492   0.448   2.637  20.282  0.6513  0.4037  0.3851
 1766TIP3    H129493   0.522   2.600  20.331  0.1930  0.8728  1.4700
 1766TIP3    H229494   0.449   2.590  20.198  1.5544 -0.3125  0.7738
 1767TIP3   OH229495   5.926   4.092  18.219  0.2797  0.5281  0.4276
 1767TIP3    H129496   5.905   3.999  18.231 -0.4684  0.8732  2.0737
 1767TIP3    H229497   5.994   4.109  18.284  2.3293  0.5700 -1.6159
 1768TIP3   OH229498   2.784   2.832  19.893 -0.1163  0.0003  0.3092
 1768TIP3    H129499   2.804   2.830  19.986  1.2340 -0.1345  0.0374
 1768TIP3    H229500   2.867   2.855  19.851 -1.2365  2.6840 -0.6948
 1769TIP3   OH229501   5.347   3.969  19.062 -0.3540  0.1059 -0.5577
 1769TIP3    H129502   5.274   4.026  19.039 -0.7629 -0.7612 -1.4551
 1769TIP3    H229503   5.421   4.030  19.073 -1.3344  1.0676  1.1074
 1770TIP3   OH229504   1.649   5.092  18.062 -0.0170 -0.6792  0.2256
 1770TIP3    H129505   1.625   5.075  18.153 -0.3482  0.2708  0.3204
 1770TIP3    H229506   1.708   5.019  18.039 -0.6717 -1.4360  0.8922
 1771TIP3   OH229507   2.576   3.822  18.874  0.1227 -0.5648  0.1724
 1771TIP3    H129508   2.621   3.803  18.792 -1.2092  2.1202 -1.2859
 1771TIP3    H229509   2.606   3.910  18.898 -1.0165 -0.4990  1.4936
 1772TIP3   OH229510   1.364   1.374  20.565 -0.4790  0.0062  0.3815
 1772TIP3    H129511   1.332   1.425  20.490  0.4237  1.2480  0.7969
 1772TIP3    H229512   1.307   1.399  20.637  0.4630  1.1236  0.7814
 1773TIP3   OH229513   2.443   1.694  19.254 -0.3464  0.9249 -0.1760
 1773TIP3    H129514   2.481   1.612  19.221  0.1237  1.4546 -0.9939
 1773TIP3    H229515   2.509   1.760  19.234 -0.3053  1.3648  1.3536
 1774TIP3   OH229516   0.733   1.028  19.574 -0.4787  0.2428 -0.2709
 1774TIP3    H129517   0.660   1.040  19.513 -1.1882  3.1207  0.9864
 1774TIP3    H229518   0.698   0.971  19.643 -2.1536  2.6804  1.0507
 1775TIP3   OH229519   2.662   5.242  18.581 -0.0378 -0.1574 -0.3090
 1775TIP3    H129520   2.700   5.175  18.638  0.7656  0.3434 -0.2425
 1775TIP3    H229521   2.594   5.196  18.532  0.8390 -1.1455 -0.6296
 1776TIP3   OH229522   1.511   6.413  17.895  0.1021 -0.4993  0.3316
 1776TIP3    H129523   1.490   6.320  17.902 -0.7588 -0.2370  1.4876
 1776TIP3    H229524   1.444   6.449  17.837 -0.4570 -0.3420  1.0621
 1777TIP3   OH229525   4.490   5.696  19.502 -0.0091 -0.1707  0.7522
 1777TIP3    H129526   4.547   5.707  19.426 -2.0964  2.1816 -0.6445
 1777TIP3    H229527   4.421   5.637  19.471 -1.3116  1.4339  0.4458
 1778TIP3   OH229528   5.044   5.392  19.634 -0.4335  0.4303 -0.1091
 1778TIP3    H129529   5.100   5.348  19.570  0.0140  0.2574  0.3971
 1778TIP3    H229530   5.090   5.475  19.652  1.1682 -0.8823  2.3922
 1779TIP3   OH229531   1.967   0.650  20.024  0.0367 -0.3631  0.8252
 1779TIP3    H129532   2.017   0.708  20.081  0.3905  0.9897 -0.7824
 1779TIP3    H229533   1.883   0.693  20.013  0.4193  0.0767 -0.6493
 1780TIP3   OH229534   1.695   6.557  19.688 -0.1153 -0.1724  0.0150
 1780TIP3    H129535   1.624   6.620  19.701 -0.5333 -0.6853  0.2554
 1780TIP3    H229536   1.732   6.545  19.775 -0.4296 -0.7155  0.0738
 1781TIP3   OH229537   5.932   2.602  20.045  0.5754  0.7319 -0.3540
 1781TIP3    H129538   5.875   2.647  19.983  0.1313  0.4371 -0.1609
 1781TIP3    H229539   5.911   2.640  20.130 -1.4880 -1.3970  0.1882
 1782TIP3   OH229540   2.931   5.276  18.076 -0.4603 -0.3049 -0.0220
 1782TIP3    H129541   2.938   5.298  18.169  0.0717 -0.0740 -0.1157
 1782TIP3    H229542   2.992   5.202  18.065  0.5663  0.5796 -0.4755
 1783TIP3   OH229543   0.902   6.520  18.463 -0.1974 -0.4384 -0.3741
 1783TIP3    H129544   0.833   6.560  18.410  0.9977  0.1430 -1.5508
 1783TIP3    H229545   0.901   6.428  18.439 -3.3004 -1.3833  2.7142
 1784TIP3   OH229546   1.035   2.918  19.669  0.2841 -0.0333 -0.5775
 1784TIP3    H129547   1.088   2.967  19.732  0.6053 -0.1197 -0.7781
 1784TIP3    H229548   0.945   2.926  19.702  0.4255  0.0838 -0.2143
 1785TIP3   OH229549   0.249   6.370  18.782 -0.3714  0.4549  0.6618
 1785TIP3    H129550   0.189   6.442  18.764 -0.1659  0.8469  1.4689
 1785TIP3    H229551   0.307   6.404  18.850  0.7660  0.0777 -0.0962
 1786TIP3   OH229552   4.751   5.704  19.413 -0.0387 -0.2245  0.0386
 1786TIP3    H129553   4.817   5.665  19.471  1.3369 -0.9578 -1.9082
 1786TIP3    H229554   4.712   5.775  19.465  0.5791 -1.2938  2.0923
 1787TIP3   OH229555   3.340   2.969  19.469 -0.1960 -0.8577 -0.1675
 1787TIP3    H129556   3.301   2.999  19.552  0.2734  1.5516 -0.7548
 1787TIP3    H229557   3.277   2.995  19.402  1.1102  0.5911 -0.8779
 1788TIP3   OH229558   4.528   6.127  17.528 -0.1549 -0.4012  0.2070
 1788TIP3    H129559   4.510   6.045  17.574 -1.5397  0.1377  0.6730
 1788TIP3    H229560   4.550   6.100  17.439 -3.8811 -1.2406 -0.6539
 1789TIP3   OH229561   5.860   0.626  18.306 -0.0414  0.5752  0.5201
 1789TIP3    H129562   5.887   0.535  18.321  0.3982  0.8288  1.3360
 1789TIP3    H229563   5.926   0.660  18.246  0.0655  0.4869  0.5852
 1790TIP3   OH229564   2.170   0.977  18.620  0.2279 -0.1446  0.2759
 1790TIP3    H129565   2.082   0.944  18.640 -0.9730  2.5418 -0.0664
 1790TIP3    H229566   2.163   1.008  18.530  1.1919  1.0567  0.5938
 1791TIP3   OH229567   2.839   0.030  19.742  0.5115  0.1274 -0.4996
 1791TIP3    H129568   2.926   0.055  19.711  0.3093  0.1496 -1.0640
 1791TIP3    H229569   2.824  -0.057  19.706  0.3302  0.0886 -0.3374
 1792TIP3   OH229570   4.937   6.135  17.620  0.0028  0.1988 -0.2917
 1792TIP3    H129571   4.887   6.161  17.542  0.5714  0.5875 -0.5249
 1792TIP3    H229572   5.028   6.152  17.597  0.1166  1.0601  0.7489
 1793TIP3   OH229573   0.263   5.931  19.721  0.1773 -0.6639  0.1246
 1793TIP3    H129574   0.358   5.919  19.717  0.4106  0.7698  0.8891
 1793TIP3    H229575   0.245   6.000  19.658  0.0708  1.1558  2.0409
 1794TIP3   OH229576   2.429   0.720  19.609  0.1548  0.4525 -0.5662
 1794TIP3    H129577   2.506   0.671  19.638 -0.5993 -0.7565 -0.5503
 1794TIP3    H229578   2.403   0.772  19.685 -1.2352 -1.9603  0.7037
 1795TIP3   OH229579   2.241   0.804  17.921  0.2242 -0.1223  0.3697
 1795TIP3    H129580   2.330   0.837  17.936  0.1917  0.8514 -1.4059
 1795TIP3    H229581   2.194   0.827  18.001  0.8935  1.8302  0.2637
 1796TIP3   OH229582   6.262   0.212  18.289 -0.6641 -0.0716  0.2853
 1796TIP3    H129583   6.289   0.189  18.378  0.4630 -2.2737 -0.5482
 1796TIP3    H229584   6.167   0.203  18.290 -0.4820 -3.2337  0.5829
 1797TIP3   OH229585   0.859   2.271  20.351 -0.4962  0.1880 -0.0407
 1797TIP3    H129586   0.871   2.297  20.260 -1.7829  2.2881  0.3133
 1797TIP3    H229587   0.768   2.240  20.355  0.0838 -1.6129  0.2077
 1798TIP3   OH229588   4.207   4.613  19.280 -0.6675 -0.0691 -0.1906
 1798TIP3    H129589   4.199   4.533  19.229  2.5112 -0.9708  0.4593
 1798TIP3    H229590   4.219   4.682  19.215  0.5078 -0.7742 -0.7644
 1799TIP3   OH229591   3.966   6.702  20.117 -0.0256  0.2463  0.1756
 1799TIP3    H129592   3.911   6.718  20.040  0.4651  2.0988  0.1583
 1799TIP3    H229593   4.014   6.784  20.130  1.9327 -0.9264  0.8494
 1800TIP3   OH229594   2.938   3.485  18.584  0.0889  0.2120  0.3026
 1800TIP3    H129595   3.010   3.543  18.558 -1.4108  1.3863 -1.4543
 1800TIP3    H229596   2.932   3.422  18.512  1.3043 -1.8641  1.9090
 1801TIP3   OH229597   3.730   1.053  20.474 -0.8542 -0.2312 -0.6334
 1801TIP3    H129598   3.681   0.971  20.470 -0.9753 -0.1169 -1.8183
 1801TIP3    H229599   3.822   1.026  20.465 -0.7110 -0.3939  1.0124
 1802TIP3   OH229600   6.678   4.513  18.870 -0.2988 -0.0211 -0.2456
 1802TIP3    H129601   6.682   4.504  18.965 -0.6059 -1.0588 -0.3162
 1802TIP3    H229602   6.658   4.425  18.838  0.3675  0.1932 -1.3126
 1803TIP3   OH229603   3.888   6.430  19.539 -0.3264  0.1726  0.0966
 1803TIP3    H129604   3.798   6.448  19.567 -0.1851 -0.0643  0.7111
 1803TIP3    H229605   3.910   6.347  19.582  0.4824  0.6635  0.6507
 1804TIP3   OH229606   1.388   4.387  20.096 -0.3336 -0.0223  0.0235
 1804TIP3    H129607   1.372   4.322  20.027  0.7886 -0.0054 -0.2651
 1804TIP3    H229608   1.331   4.460  20.074  0.7408  0.4062 -1.4760
 1805TIP3   OH229609   1.391   6.548  17.667  0.6318 -0.3367 -0.3039
 1805TIP3    H129610   1.472   6.574  17.621  1.1460 -0.3803  0.5553
 1805TIP3    H229611   1.324   6.548  17.599  0.5256  3.4549 -0.4223
 1806TIP3   OH229612   1.318   4.627  18.186  0.7159  0.1177 -0.2753
 1806TIP3    H129613   1.384   4.649  18.120  1.0567  1.6971  0.5513
 1806TIP3    H229614   1.254   4.573  18.140  1.7130 -0.0383 -1.5117
 1807TIP3   OH229615   4.454   4.624  18.528  0.4800  0.3416  0.5272
 1807TIP3    H129616   4.411   4.557  18.581  3.6088 -0.8617  1.8247
 1807TIP3    H229617   4.526   4.656  18.583  0.2533  3.4761 -0.7740
 1808TIP3   OH229618   0.446   3.552  20.129 -0.1639 -0.4709 -0.1100
 1808TIP3    H129619   0.425   3.644  20.144 -1.7400 -0.8045 -0.1206
 1808TIP3    H229620   0.419   3.508  20.209 -2.9984 -1.4145 -1.4480
 1809TIP3   OH229621   4.244   2.443  20.327 -0.3383  0.2271  0.5109
 1809TIP3    H129622   4.157   2.478  20.347 -0.6088  0.7970 -1.4126
 1809TIP3    H229623   4.289   2.514  20.282  1.0049 -0.1942  1.1288
 1810TIP3   OH229624   5.076   1.266  18.728  0.0729 -0.2243 -0.2156
 1810TIP3    H129625   5.140   1.329  18.760 -0.0824 -1.4064  2.7360
 1810TIP3    H229626   5.128   1.204  18.676  1.6414 -1.6386  2.7996
 1811TIP3   OH229627   6.247   4.944  19.695 -0.1417 -0.2596 -0.2786
 1811TIP3    H129628   6.203   4.987  19.622 -0.3433 -0.5002 -0.2985
 1811TIP3    H229629   6.257   4.853  19.666  0.8680 -0.0863 -0.5057
 1812TIP3   OH229630   0.617   2.924  20.434 -0.4152  0.1369 -0.1297
 1812TIP3    H129631   0.567   2.909  20.354 -3.0284  0.9159  1.2657
 1812TIP3    H229632   0.647   3.015  20.427 -0.0731  0.0015 -0.4802
 1813TIP3   OH229633   5.943   6.134  17.445  0.1452 -0.1369 -0.1538
 1813TIP3    H129634   5.866   6.087  17.415  0.2830 -0.3078 -0.2396
 1813TIP3    H229635   5.924   6.226  17.425  0.6314 -0.3361 -1.6455
 1814TIP3   OH229636   4.579   2.573  19.460 -0.6315  0.1527 -0.2579
 1814TIP3    H129637   4.544   2.641  19.402 -1.4819  1.1006  1.3035
 1814TIP3    H229638   4.666   2.605  19.485 -0.4796 -0.0010 -0.5824
 1815TIP3   OH229639   1.209   6.387  20.866 -0.4729 -0.0929  0.1009
 1815TIP3    H129640   1.287   6.348  20.906  0.7321 -0.0159 -2.0105
 1815TIP3    H229641   1.243   6.462  20.817 -1.5513 -1.0945 -2.3349
 1816TIP3   OH229642   4.676   3.183  18.683  0.6323  0.7370  0.0009
 1816TIP3    H129643   4.689   3.206  18.591 -0.8525 -0.2072 -0.4731
 1816TIP3    H229644   4.622   3.255  18.717 -2.7518 -1.0578 -1.1084
 1817TIP3   OH229645   2.556   0.391  18.362 -0.2414 -0.1795 -0.3013
 1817TIP3    H129646   2.649   0.397  18.344  0.4603 -0.2205  2.8445
 1817TIP3    H229647   2.544   0.307  18.406 -1.5124  0.3876  0.5171
 1818TIP3   OH229648   6.356   5.310  19.788  0.2172  0.0859  0.2842
 1818TIP3    H129649   6.328   5.383  19.842  0.0976  0.5639 -0.4063
 1818TIP3    H229650   6.279   5.253  19.781  0.3141 -0.1194  0.8313
 1819TIP3   OH229651   2.558   5.651  20.135  0.0104  0.1130 -0.4788
 1819TIP3    H129652   2.501   5.576  20.153  0.4985  0.3047  2.3765
 1819TIP3    H229653   2.584   5.640  20.044 -1.6640 -1.9808 -0.7843
 1820TIP3   OH229654   1.253   0.044  19.510  0.1818  0.2274  0.1126
 1820TIP3    H129655   1.247  -0.050  19.527 -0.3099  0.6220  2.3287
 1820TIP3    H229656   1.163   0.072  19.497  0.0391  0.8030  2.0895
 1821TIP3   OH229657   1.380   2.776  17.108  0.1875 -0.6490 -0.5443
 1821TIP3    H129658   1.292   2.814  17.114  0.1606 -0.8283  0.4672
 1821TIP3    H229659   1.427   2.811  17.184  0.7568 -1.1239 -0.6663
 1822TIP3   OH229660   6.506   5.218  17.866 -0.3314 -0.4221 -0.4235
 1822TIP3    H129661   6.456   5.195  17.788 -0.0754  2.1298 -1.4441
 1822TIP3    H229662   6.594   5.183  17.850 -1.2051 -3.4093  0.6168
 1823TIP3   OH229663   4.179   6.522  17.971  0.1763  0.1933  0.0988
 1823TIP3    H129664   4.161   6.438  17.928  0.6425 -0.5876  1.3772
 1823TIP3    H229665   4.225   6.573  17.905 -1.3518 -0.0032 -1.1767
 1824TIP3   OH229666   3.087   6.412  20.345  0.0286  0.2828  0.0593
 1824TIP3    H129667   3.132   6.333  20.374  1.7002  1.8139  2.0238
 1824TIP3    H229668   3.151   6.457  20.289 -0.2408  1.0176  0.3216
 1825TIP3   OH229669   2.420   2.521  18.519  0.1037  0.3624  0.0061
 1825TIP3    H129670   2.366   2.599  18.532  0.4265  0.6015 -0.0811
 1825TIP3    H229671   2.358   2.453  18.490 -0.3113  0.3546  0.8780
 1826TIP3   OH229672   0.913   3.882  19.740 -0.1423 -0.1008  0.1569
 1826TIP3    H129673   0.904   3.860  19.647 -1.1066 -1.3713  0.5236
 1826TIP3    H229674   0.824   3.904  19.767  0.2183  0.7450  0.6790
 1827TIP3   OH229675   2.202   0.750  20.641  0.2969  0.3754  0.2883
 1827TIP3    H129676   2.209   0.734  20.547 -1.2434  1.5569 -0.0660
 1827TIP3    H229677   2.125   0.701  20.669  1.2410 -0.6880  1.1518
 1828TIP3   OH229678   5.201   1.814  18.798  0.4637 -0.4598 -0.1158
 1828TIP3    H129679   5.272   1.879  18.790  0.2856 -0.3813 -1.2500
 1828TIP3    H229680   5.161   1.833  18.882  1.9977 -0.7237  0.7086
 1829TIP3   OH229681   2.410   5.769  17.644  0.1940 -0.1068 -0.3937
 1829TIP3    H129682   2.499   5.802  17.656  0.3910 -1.5896  3.4641
 1829TIP3    H229683   2.358   5.812  17.712 -1.2094 -1.9257 -0.2348
 1830TIP3   OH229684   2.321   1.836  18.517 -0.1574 -0.5194  0.0173
 1830TIP3    H129685   2.367   1.910  18.478 -2.5879  1.2472  0.2395
 1830TIP3    H229686   2.285   1.788  18.442  1.7565 -1.8011 -0.1471
 1831TIP3   OH229687   4.219   0.328  19.417 -0.2226 -0.3089 -0.1582
 1831TIP3    H129688   4.179   0.276  19.348 -1.2986  0.0782  0.1613
 1831TIP3    H229689   4.162   0.404  19.426  1.3192  0.9677 -0.6393
 1832TIP3   OH229690   4.831   6.470  20.912  0.3096  0.1400  0.2611
 1832TIP3    H129691   4.802   6.428  20.832 -0.3232  0.4775  0.3059
 1832TIP3    H229692   4.831   6.564  20.892  0.1764  0.2244  0.6420
 1833TIP3   OH229693   2.497   5.623  19.050  0.4766 -0.0107  0.3922
 1833TIP3    H129694   2.491   5.645  19.143  2.2626 -2.4475  1.1854
 1833TIP3    H229695   2.485   5.707  19.005 -0.5849  1.2291  2.7733
 1834TIP3   OH229696   2.664   5.370  19.629  0.1763 -0.3555  0.1730
 1834TIP3    H129697   2.595   5.332  19.574  0.9656  0.7893 -1.6910
 1834TIP3    H229698   2.745   5.334  19.594  0.6947  0.1234  0.8456
 1835TIP3   OH229699   1.769   6.024  20.131  0.0454 -0.6491  0.0606
 1835TIP3    H129700   1.811   5.952  20.178 -1.1953 -1.0323  0.6150
 1835TIP3    H229701   1.739   6.083  20.200  2.1514  1.1137 -0.3996
 1836TIP3   OH229702   0.610   1.745  19.911  0.0741  0.0037  0.1317
 1836TIP3    H129703   0.532   1.750  19.967  0.6155 -1.5501  1.0507
 1836TIP3    H229704   0.579   1.778  19.826 -1.5842 -0.5485  0.4763
 1837TIP3   OH229705   1.942   3.404  18.112  0.2672 -0.3633  0.3572
 1837TIP3    H129706   2.037   3.392  18.119  0.3062 -0.6731 -0.6074
 1837TIP3    H229707   1.930   3.461  18.036 -0.2827  0.3783  0.9857
 1838TIP3   OH229708   6.088   3.216  20.355  0.1237 -0.0652 -0.0905
 1838TIP3    H129709   6.060   3.306  20.337 -0.9638 -0.3300  0.1980
 1838TIP3    H229710   6.133   3.221  20.440  1.1938  0.4082 -0.6703
 1839TIP3   OH229711   3.130   1.382  17.838 -0.5984  0.1112 -0.0679
 1839TIP3    H129712   3.123   1.397  17.743  1.4248  1.1147 -0.1222
 1839TIP3    H229713   3.123   1.287  17.847 -0.6323 -0.0221 -1.2485
 1840TIP3   OH229714   6.702   0.558  18.077 -0.2732 -0.0682 -0.0393
 1840TIP3    H129715   6.624   0.575  18.024  0.5355 -0.6135 -1.4528
 1840TIP3    H229716   6.668   0.541  18.164 -1.7286 -0.2137 -0.6082
 1841TIP3   OH229717   5.199   3.608  20.238  0.2936  0.2626 -0.1631
 1841TIP3    H129718   5.147   3.674  20.284 -0.9873 -0.6568 -0.2525
 1841TIP3    H229719   5.159   3.602  20.151 -0.1761 -1.2590  0.1411
 1842TIP3   OH229720   0.599   6.009  18.129  0.0737 -0.4760 -0.6590
 1842TIP3    H129721   0.686   5.980  18.159 -0.8319  0.2394  3.2502
 1842TIP3    H229722   0.554   5.929  18.104  0.4497 -1.5059  1.6733
 1843TIP3   OH229723   0.571   5.203  19.725  0.6163 -0.5659  0.0795
 1843TIP3    H129724   0.513   5.233  19.794 -1.3655 -1.7341 -0.9858
 1843TIP3    H229725   0.615   5.282  19.693  0.7810  0.1263  1.9055
 1844TIP3   OH229726   5.737   0.702  17.603 -0.4705  0.0585 -0.4289
 1844TIP3    H129727   5.697   0.615  17.611  0.2545 -0.3299 -0.8860
 1844TIP3    H229728   5.701   0.737  17.522 -0.7581  0.1786 -0.2485
 1845TIP3   OH229729   4.940   6.639  20.211  0.0519 -0.3741 -0.2428
 1845TIP3    H129730   4.870   6.581  20.181 -0.6820  0.2801  0.1675
 1845TIP3    H229731   4.928   6.644  20.305  1.6488 -1.5140  0.0651
 1846TIP3   OH229732   2.916   1.273  19.693  0.3195 -0.8077 -0.0645
 1846TIP3    H129733   2.836   1.247  19.739  1.6039 -0.5903  2.4767
 1846TIP3    H229734   2.914   1.369  19.695  1.6689 -0.7544  2.1338
 1847TIP3   OH229735   2.428   5.129  19.108 -0.0799 -0.1825 -0.3309
 1847TIP3    H129736   2.437   5.034  19.098 -0.8624 -0.2868 -0.1066
 1847TIP3    H229737   2.334   5.144  19.106  0.0137  0.5250  0.2680
 1848TIP3   OH229738   1.653   4.230  19.256 -0.2597  0.3741 -0.0558
 1848TIP3    H129739   1.661   4.174  19.333  1.1255 -0.8194 -1.0208
 1848TIP3    H229740   1.562   4.220  19.229 -0.7782  0.8447  1.4099
 1849TIP3   OH229741   5.726   0.836  19.039  0.3328  0.3751 -0.0400
 1849TIP3    H129742   5.662   0.772  19.070  0.9301  0.2516  0.9568
 1849TIP3    H229743   5.709   0.843  18.945 -1.0508  0.2333  0.1744
 1850TIP3   OH229744   1.868   1.158  18.404  0.1153 -0.7115 -0.4158
 1850TIP3    H129745   1.807   1.136  18.474  0.7979 -1.1263  0.0679
 1850TIP3    H229746   1.819   1.217  18.347 -1.2044 -2.1402 -0.8250
 1851TIP3   OH229747   0.052   3.890  18.801  0.4062 -0.0587 -0.0859
 1851TIP3    H129748   0.095   3.918  18.882 -1.5760 -0.7962  1.2945
 1851TIP3    H229749   0.034   3.797  18.814  0.3449 -0.2638 -1.5224
 1852TIP3   OH229750   0.520   5.830  19.688  0.1559 -0.2186  0.0488
 1852TIP3    H129751   0.541   5.920  19.713 -0.8394 -0.3314  1.3942
 1852TIP3    H229752   0.558   5.776  19.757 -0.0018 -0.7757 -0.2942
 1853TIP3   OH229753   6.302   4.247  19.441 -0.1331 -0.4690 -0.1492
 1853TIP3    H129754   6.291   4.162  19.399  0.7868 -1.1164  0.8902
 1853TIP3    H229755   6.274   4.233  19.531 -2.5096  1.0106 -0.5596
 1854TIP3   OH229756   6.221   1.870  18.256 -0.0984 -0.0959 -0.5960
 1854TIP3    H129757   6.276   1.865  18.179 -0.8902  1.0215 -1.2738
 1854TIP3    H229758   6.134   1.843  18.226 -0.4470  0.4939 -0.1609
 1855TIP3   OH229759   5.282   1.431  20.539 -0.2253  0.3831  0.4464
 1855TIP3    H129760   5.199   1.405  20.500  0.8638 -1.4545 -0.7675
 1855TIP3    H229761   5.261   1.450  20.631 -2.0908  0.7360 -0.0207
 1856TIP3   OH229762   4.976   5.969  18.728 -0.3904  0.0220 -0.0416
 1856TIP3    H129763   4.944   6.058  18.713 -1.4579 -0.4906 -0.9246
 1856TIP3    H229764   5.067   5.971  18.699 -0.8487  0.4471 -1.5277
 1857TIP3   OH229765   3.097   3.508  20.473  0.6672  0.4895 -0.5170
 1857TIP3    H129766   3.127   3.474  20.557 -0.3295  1.5923  0.3181
 1857TIP3    H229767   3.150   3.462  20.408  0.6347 -1.2671  0.6413
 1858TIP3   OH229768   6.313   3.081  19.915  0.0606  0.1415  0.0692
 1858TIP3    H129769   6.304   3.070  20.010 -0.5800  1.2230  0.1452
 1858TIP3    H229770   6.285   3.171  19.898 -1.3776 -0.5099 -1.3312
 1859TIP3   OH229771   1.594   0.547  20.024 -0.1662 -0.1921 -0.2186
 1859TIP3    H129772   1.626   0.490  19.954  0.4146 -0.8110  0.5272
 1859TIP3    H229773   1.636   0.513  20.103 -1.7438 -0.2882  0.6200
 1860TIP3   OH229774   0.180   6.101  19.506 -0.0047 -0.1881 -0.3805
 1860TIP3    H129775   0.154   6.168  19.443 -1.4735 -0.7481 -0.4043
 1860TIP3    H229776   0.113   6.033  19.499  0.3908 -0.7715  1.0120
 1861TIP3   OH229777   4.644   4.317  19.071 -0.0087 -0.0144  0.0410
 1861TIP3    H129778   4.679   4.394  19.114  0.9145  0.1714 -0.9801
 1861TIP3    H229779   4.702   4.246  19.098  0.4707  0.0723 -0.6932
 1862TIP3   OH229780   6.226   4.347  18.214  0.2518 -0.1071  0.0667
 1862TIP3    H129781   6.239   4.272  18.272  1.7864  1.5447  2.0154
 1862TIP3    H229782   6.144   4.386  18.243  0.4656  0.0877  0.4254
 1863TIP3   OH229783   4.445   6.636  19.133 -0.3849  0.0924 -0.3577
 1863TIP3    H129784   4.488   6.622  19.218 -0.7285 -0.8859 -0.3246
 1863TIP3    H229785   4.356   6.661  19.156 -1.2994 -2.7613 -0.3457
 1864TIP3   OH229786   0.756   0.814  20.621 -0.4285  0.6550 -0.0752
 1864TIP3    H129787   0.833   0.791  20.673 -0.4991  2.0040  0.6667
 1864TIP3    H229788   0.683   0.812  20.683 -0.4711  2.5658 -0.0002
 1865TIP3   OH229789   0.339   0.675  18.606  0.8762 -0.2399 -0.0113
 1865TIP3    H129790   0.412   0.645  18.552  2.1691  0.5218  1.2408
 1865TIP3    H229791   0.369   0.662  18.696 -0.3727  0.4743  0.5378
 1866TIP3   OH229792   4.177   3.687  17.211  0.0378 -1.1914  0.4861
 1866TIP3    H129793   4.093   3.698  17.167 -0.2467 -1.1781  1.0255
 1866TIP3    H229794   4.172   3.744  17.287  0.8192 -0.6393  0.1326
 1867TIP3   OH229795   4.308   0.935  19.221  0.3151  0.0998  0.4440
 1867TIP3    H129796   4.271   0.999  19.160  0.1306 -1.5271 -1.2319
 1867TIP3    H229797   4.392   0.973  19.248  1.7986 -0.3567 -3.0964
 1868TIP3   OH229798   1.770   3.427  17.456 -0.1997 -0.0379 -0.3876
 1868TIP3    H129799   1.832   3.380  17.401 -0.5699  0.5023 -1.2820
 1868TIP3    H229800   1.713   3.473  17.395  0.2769  1.7601  0.4423
 1869TIP3   OH229801   5.583   4.969  19.150 -0.4764 -0.0309 -0.5719
 1869TIP3    H129802   5.498   4.953  19.192  0.2756 -0.8632  0.6738
 1869TIP3    H229803   5.622   4.882  19.143  1.1119  0.5474  0.6769
 1870TIP3   OH229804   3.413   6.079  20.575 -0.3655  0.0337 -0.0234
 1870TIP3    H129805   3.380   6.168  20.589  0.1780  0.1534  0.5578
 1870TIP3    H229806   3.431   6.074  20.481 -0.6551  0.4493 -0.1029
 1871TIP3   OH229807   5.663   6.174  20.024 -0.1108  0.1951  0.4322
 1871TIP3    H129808   5.680   6.186  19.931 -1.4948  0.3802  0.1802
 1871TIP3    H229809   5.664   6.079  20.036 -0.4071  0.1491  0.1226
 1872TIP3   OH229810   1.653   4.069  17.838  0.0296 -0.1490  0.6072
 1872TIP3    H129811   1.587   4.136  17.817 -0.1383 -0.9530 -1.6947
 1872TIP3    H229812   1.719   4.116  17.888 -0.6079  1.5058 -0.0222
 1873TIP3   OH229813   3.451   1.379  18.650  0.5119 -0.7180 -0.5596
 1873TIP3    H129814   3.390   1.441  18.690  1.3223 -0.9868  1.1884
 1873TIP3    H229815   3.397   1.303  18.626 -0.1292 -0.1956 -0.7969
 1874TIP3   OH229816   6.156   2.170  19.438 -0.0882 -0.5910  0.4783
 1874TIP3    H129817   6.171   2.257  19.401  1.1023 -1.1171 -0.3475
 1874TIP3    H229818   6.231   2.119  19.408 -1.5107 -2.3016 -0.3161
 1875TIP3   OH229819   5.776   0.195  20.259  0.1962  0.5375  0.1068
 1875TIP3    H129820   5.847   0.149  20.214  0.6620 -0.5575  1.8387
 1875TIP3    H229821   5.711   0.128  20.277  0.6893  0.5592  2.3083
 1876TIP3   OH229822   0.986   2.351  20.061  0.4807 -0.0715 -0.5897
 1876TIP3    H129823   1.014   2.267  20.023  0.1924 -0.3921 -0.1009
 1876TIP3    H229824   1.066   2.386  20.101  0.2587 -0.8750  0.6024
 1877TIP3   OH229825   0.316   5.334  20.419  0.6560 -0.1367 -0.4423
 1877TIP3    H129826   0.222   5.324  20.404  0.1920 -1.0541  2.3464
 1877TIP3    H229827   0.345   5.395  20.352 -0.7825 -3.8269 -4.9054
 1878TIP3   OH229828   4.593   3.681  17.941  0.0212 -0.1996  0.1241
 1878TIP3    H129829   4.574   3.646  18.028 -0.7086 -0.6271 -0.2072
 1878TIP3    H229830   4.517   3.736  17.920 -0.3211 -0.9818 -0.7111
 1879TIP3   OH229831   2.242   0.024  19.475 -0.4105 -0.0287 -0.2612
 1879TIP3    H129832   2.198  -0.055  19.507  1.5712 -1.0421  0.1184
 1879TIP3    H229833   2.251   0.009  19.381  0.3134 -0.4420 -0.1283
 1880TIP3   OH229834   3.688   6.328  18.359  0.0778 -0.1901  0.0968
 1880TIP3    H129835   3.664   6.385  18.286 -1.5622  0.1326  0.8381
 1880TIP3    H229836   3.741   6.259  18.320  0.9473  1.0727 -1.0448
 1881TIP3   OH229837   4.097   6.351  17.742 -0.1637 -0.0979 -0.1259
 1881TIP3    H129838   4.188   6.356  17.716 -0.2324  0.8599 -0.2392
 1881TIP3    H229839   4.054   6.302  17.672  0.1107  0.1900 -0.4977
 1882TIP3   OH229840   5.731   4.520  18.001 -0.0321  0.2943 -0.0991
 1882TIP3    H129841   5.787   4.541  17.926 -1.5623  1.5403 -0.9728
 1882TIP3    H229842   5.749   4.428  18.019  1.3371  0.3193 -1.1622
 1883TIP3   OH229843   3.918   6.267  19.265 -0.1245  0.0967 -0.2663
 1883TIP3    H129844   4.007   6.262  19.229  0.5007  0.2553  1.1888
 1883TIP3    H229845   3.925   6.331  19.336 -0.8275 -1.5899  1.4204
 1884TIP3   OH229846   4.343   3.552  17.661  0.5639  0.1558 -0.0646
 1884TIP3    H129847   4.313   3.539  17.751 -0.9485  0.1621 -0.5449
 1884TIP3    H229848   4.361   3.645  17.655 -1.5441  0.5863 -0.3801
 1885TIP3   OH229849   5.596   6.695  20.321  0.7705  0.4068  0.7057
 1885TIP3    H129850   5.509   6.699  20.360 -0.4176  1.2425 -1.8078
 1885TIP3    H229851   5.640   6.624  20.368 -1.3035 -0.1352  1.9657
 1886TIP3   OH229852   1.763   4.814  19.700  0.3097  0.6443  0.3035
 1886TIP3    H129853   1.717   4.730  19.691  0.7537  0.3005  1.1577
 1886TIP3    H229854   1.839   4.806  19.641  1.1132 -0.1123  1.4034
 1887TIP3   OH229855   6.419   0.462  18.612  0.4868 -0.1202  0.0305
 1887TIP3    H129856   6.324   0.453  18.606  0.3630  1.0466  0.0435
 1887TIP3    H229857   6.453   0.379  18.579 -0.5566 -1.2006  1.5035
 1888TIP3   OH229858   0.300   3.296  16.891 -0.3466  0.1947 -0.0419
 1888TIP3    H129859   0.273   3.353  16.963 -0.2408 -1.6034  1.4835
 1888TIP3    H229860   0.351   3.227  16.933 -0.2601 -0.8952 -1.8588
 1889TIP3   OH229861   3.950   4.437  18.572 -0.5110 -0.3668 -0.5645
 1889TIP3    H129862   3.987   4.493  18.641  0.9935 -0.0902 -1.5550
 1889TIP3    H229863   3.895   4.496  18.521  1.1139  0.3171 -1.6396
 1890TIP3   OH229864   6.012   4.788  19.362 -0.2996  0.0221  0.2621
 1890TIP3    H129865   6.102   4.807  19.389  0.1142 -2.2473  0.6591
 1890TIP3    H229866   6.014   4.795  19.267 -0.3135  2.1975  0.3626
 1891TIP3   OH229867   1.899   1.004  19.917  0.3159 -0.0921 -0.1649
 1891TIP3    H129868   1.854   1.073  19.966 -0.0011  0.8820 -1.7713
 1891TIP3    H229869   1.843   0.927  19.927 -1.2567  0.8544 -1.3425
 1892TIP3   OH229870   3.599   3.925  20.108 -0.1875 -0.0279 -0.0471
 1892TIP3    H129871   3.585   3.837  20.144 -0.4753  0.2465  0.5080
 1892TIP3    H229872   3.548   3.983  20.164  0.5060  0.5764 -0.0240
 1893TIP3   OH229873   3.891   6.438  18.569  0.0303 -0.6235 -0.0736
 1893TIP3    H129874   3.917   6.384  18.494  0.4926 -0.6438  0.1007
 1893TIP3    H229875   3.804   6.470  18.546  0.4237 -0.1272 -0.9037
 1894TIP3   OH229876   5.482   0.738  19.131 -0.0903  0.5590 -0.0093
 1894TIP3    H129877   5.435   0.675  19.185  1.0410 -1.3435 -1.1555
 1894TIP3    H229878   5.511   0.688  19.055  0.4288  2.5949 -1.2259
 1895TIP3   OH229879   1.641   6.646  18.643  0.2435 -0.1970  0.4853
 1895TIP3    H129880   1.637   6.742  18.644  0.5918 -0.1379  2.8780
 1895TIP3    H229881   1.559   6.619  18.683  0.3718 -0.8728  0.2926
 1896TIP3   OH229882   2.301   5.440  18.500  0.8063  0.0186  0.4638
 1896TIP3    H129883   2.280   5.528  18.531 -0.1613  0.0548 -0.2467
 1896TIP3    H229884   2.323   5.391  18.579  0.9275  0.7791  0.9080
 1897TIP3   OH229885   4.299   3.596  19.434  0.5413 -0.6802  0.8347
 1897TIP3    H129886   4.226   3.653  19.460 -0.0000  0.0273 -1.8287
 1897TIP3    H229887   4.290   3.519  19.489 -0.1893  0.7776  2.8793
 1898TIP3   OH229888   2.337   1.674  20.618 -0.3807 -0.1993 -0.0076
 1898TIP3    H129889   2.424   1.646  20.591 -0.0793  0.1455  0.6053
 1898TIP3    H229890   2.290   1.592  20.635  0.5415 -0.3661  1.9363
 1899TIP3   OH229891   2.086   5.277  20.494  0.0616 -0.3091  0.0198
 1899TIP3    H129892   2.030   5.319  20.561 -1.3880  0.2329 -1.4587
 1899TIP3    H229893   2.134   5.350  20.455 -1.2487 -0.1667 -1.4424
 1900TIP3   OH229894   0.512   1.657  19.558 -0.1727  0.4432 -0.2200
 1900TIP3    H129895   0.515   1.744  19.597 -3.1185  0.1858  0.8342
 1900TIP3    H229896   0.452   1.666  19.484 -0.1540 -0.5945 -0.3752
 1901TIP3   OH229897   1.560   3.430  20.619  0.0634  0.4527  0.1347
 1901TIP3    H129898   1.645   3.398  20.649 -0.3475  0.8650  1.8230
 1901TIP3    H229899   1.581   3.487  20.545  1.3657  1.3656  1.1686
 1902TIP3   OH229900   1.413   0.200  19.729 -0.3616 -0.1789 -0.9268
 1902TIP3    H129901   1.471   0.276  19.722 -0.1302 -0.2968 -0.3373
 1902TIP3    H229902   1.381   0.186  19.640 -0.2455  0.4846 -1.0749
 1903TIP3   OH229903   0.797   6.074  19.219 -0.1729 -0.1242  0.0815
 1903TIP3    H129904   0.856   6.000  19.230 -0.0709  0.0510  0.7970
 1903TIP3    H229905   0.853   6.146  19.192  0.0314  0.1480  1.1563
 1904TIP3   OH229906   2.685   4.457  17.531 -0.6833  0.1153 -0.0542
 1904TIP3    H129907   2.746   4.408  17.475 -0.6261  0.8131 -0.6187
 1904TIP3    H229908   2.635   4.510  17.469  0.2319  1.8549  0.6372
 1905TIP3   OH229909   0.687   0.387  18.860 -0.1844  0.3155 -0.6542
 1905TIP3    H129910   0.727   0.335  18.930  0.9910  0.5391 -1.1368
 1905TIP3    H229911   0.751   0.455  18.841 -0.5373  0.3302 -1.8714
 1906TIP3   OH229912   5.808   0.690  20.321  0.0433 -0.4609  0.6013
 1906TIP3    H129913   5.789   0.600  20.347  0.2040 -0.7073 -0.1128
 1906TIP3    H229914   5.872   0.681  20.251 -2.6335  0.0080 -2.0973
 1907TIP3   OH229915   1.569   1.865  19.155 -1.1017 -0.3901  0.1489
 1907TIP3    H129916   1.532   1.802  19.217 -1.7211 -0.7950 -0.6118
 1907TIP3    H229917   1.647   1.899  19.199 -0.8563 -1.5521  0.6589
 1908TIP3   OH229918   2.895   3.172  19.075  0.5507 -0.3444  0.1973
 1908TIP3    H129919   2.881   3.219  18.993  1.3589 -1.0269 -0.3442
 1908TIP3    H229920   2.977   3.207  19.110  1.1242 -1.2648 -0.1762
 1909TIP3   OH229921   5.273   2.658  19.099  0.5229  0.0083 -0.9129
 1909TIP3    H129922   5.321   2.651  19.016  0.1426 -1.1128 -1.0528
 1909TIP3    H229923   5.276   2.570  19.136  0.6434  0.4814  0.2534
 1910TIP3   OH229924   0.606   2.170  20.368  0.0741  0.2097 -0.6996
 1910TIP3    H129925   0.567   2.216  20.442 -0.0715  1.6064 -1.6196
 1910TIP3    H229926   0.559   2.202  20.291 -1.0495 -2.5652 -1.2898
 1911TIP3   OH229927   5.355   0.794  20.622  0.0669 -0.3825  0.0742
 1911TIP3    H129928   5.371   0.845  20.543 -0.8818 -2.0220 -1.2592
 1911TIP3    H229929   5.350   0.859  20.692 -1.8701  1.4685 -1.6277
 1912TIP3   OH229930   3.027   5.970  19.875  0.0837 -0.2639 -0.3051
 1912TIP3    H129931   3.105   5.949  19.824  0.6783 -0.0395  0.4931
 1912TIP3    H229932   2.972   5.892  19.868  0.5928 -0.6154 -0.4881
 1913TIP3   OH229933   5.495   2.190  18.222 -0.1407  0.3283 -0.0403
 1913TIP3    H129934   5.557   2.181  18.150 -0.0165  1.6609 -0.1255
 1913TIP3    H229935   5.459   2.278  18.212 -1.1459  0.0310  0.7255
 1914TIP3   OH229936   2.810   5.754  18.374 -0.4261 -0.0350 -0.1296
 1914TIP3    H129937   2.832   5.694  18.446 -2.9550 -2.6023 -1.2792
 1914TIP3    H229938   2.855   5.717  18.298 -0.5930  0.5867 -0.5317
 1915TIP3   OH229939   0.960   5.425  20.896 -0.6533 -0.0185 -0.4187
 1915TIP3    H129940   0.956   5.506  20.948  0.4763  0.3139 -0.8395
 1915TIP3    H229941   0.916   5.360  20.951  1.7642 -0.0315  1.6594
 1916TIP3   OH229942   6.200   0.794  20.384  0.0802 -0.0375 -0.5132
 1916TIP3    H129943   6.167   0.711  20.350  1.9444 -0.8154 -0.5240
 1916TIP3    H229944   6.213   0.848  20.306 -0.5456  0.0715 -0.5534
 1917TIP3   OH229945   6.302   4.189  19.706  0.0302 -0.2023  0.3796
 1917TIP3    H129946   6.379   4.208  19.759  0.4250  0.8767 -0.5309
 1917TIP3    H229947   6.231   4.237  19.749  0.4235  0.9755 -0.2306
 1918TIP3   OH229948   2.306   6.454  18.825 -0.0974  0.3393  0.3159
 1918TIP3    H129949   2.317   6.401  18.745  3.3907 -0.5059  1.1565
 1918TIP3    H229950   2.300   6.390  18.895 -0.7912  1.0947  0.9656
 1919TIP3   OH229951   1.600   1.940  17.993 -0.1466  0.5446  0.2757
 1919TIP3    H129952   1.562   1.889  18.064  0.5137 -0.7029 -0.2333
 1919TIP3    H229953   1.645   2.012  18.038  0.2658 -0.2216  1.1398
 1920TIP3   OH229954   2.747   1.628  18.049  0.3803 -0.0622  0.0670
 1920TIP3    H129955   2.803   1.596  18.120 -0.3787  1.2788  1.3307
 1920TIP3    H229956   2.662   1.642  18.090 -0.6626 -1.1675 -1.6020
 1921TIP3   OH229957   0.682   0.953  17.841  1.0578  0.0285  0.0771
 1921TIP3    H129958   0.696   0.877  17.898  1.0326 -0.5544 -0.6830
 1921TIP3    H229959   0.631   0.919  17.768 -0.0309  1.0487  0.3267
 1922TIP3   OH229960   6.254   3.934  19.624 -0.0720  0.4917 -0.2271
 1922TIP3    H129961   6.280   4.022  19.651  2.7640  0.1015 -1.3166
 1922TIP3    H229962   6.251   3.938  19.528  0.7506 -0.7204 -0.3252
 1923TIP3   OH229963   3.533   5.206  20.448 -0.5623  0.0585  0.3263
 1923TIP3    H129964   3.500   5.205  20.537 -0.3589 -1.1763  0.4088
 1923TIP3    H229965   3.629   5.201  20.458 -0.3711  2.3792  0.0714
 1924TIP3   OH229966   5.539   4.245  19.402  0.1910 -0.1125  0.3502
 1924TIP3    H129967   5.471   4.270  19.340 -0.1573  0.1921  0.8450
 1924TIP3    H229968   5.512   4.159  19.435  0.3795 -0.2770  0.0751
 1925TIP3   OH229969   0.246   5.351  19.158 -0.0851 -0.1616 -0.2375
 1925TIP3    H129970   0.233   5.439  19.195 -0.5377  0.3646 -1.5797
 1925TIP3    H229971   0.172   5.340  19.097  0.6287 -0.9794 -0.9780
 1926TIP3   OH229972   2.249   0.528  19.903 -0.0262 -0.3220 -0.0315
 1926TIP3    H129973   2.235   0.449  19.851  2.2287  0.4309 -1.9596
 1926TIP3    H229974   2.270   0.496  19.990  0.3700 -1.8479 -0.6530
 1927TIP3   OH229975   3.065   5.314  19.599  0.4987  0.0172  0.4261
 1927TIP3    H129976   2.977   5.285  19.574  0.7135  0.3102 -0.7306
 1927TIP3    H229977   3.112   5.319  19.516  1.2366  1.1219  0.9030
 1928TIP3   OH229978   0.409   3.031  18.034  0.1668  0.2114 -0.0204
 1928TIP3    H129979   0.457   3.098  17.985 -0.4586  0.6219 -0.0854
 1928TIP3    H229980   0.345   2.997  17.972  1.3654 -1.4276 -0.4101
 1929TIP3   OH229981   0.648   3.375  18.654 -0.4394 -0.4135 -0.4880
 1929TIP3    H129982   0.601   3.348  18.575 -0.5496  0.1644 -0.6226
 1929TIP3    H229983   0.588   3.353  18.726 -0.0753 -1.5411 -0.5030
 1930TIP3   OH229984   0.586   3.652  20.672 -0.2857 -0.3179 -0.5645
 1930TIP3    H129985   0.681   3.645  20.670 -0.1236  0.9753  0.7629
 1930TIP3    H229986   0.563   3.697  20.590  0.3922  0.6508 -0.2395
 1931TIP3   OH229987   0.749   0.946  19.159 -0.2823  0.3175 -0.1315
 1931TIP3    H129988   0.756   0.986  19.072  1.4094 -0.6945 -0.4957
 1931TIP3    H229989   0.838   0.949  19.194 -0.7695 -0.1417  1.1897
 1932TIP3   OH229990   4.581   5.359  20.797 -0.6052  0.3646 -0.0939
 1932TIP3    H129991   4.543   5.445  20.778  0.1666  1.0882  1.5187
 1932TIP3    H229992   4.673   5.377  20.815 -0.6687 -0.6490  1.3364
 1933TIP3   OH229993   1.493   0.446  19.589 -0.4354 -1.1645 -0.2400
 1933TIP3    H129994   1.402   0.423  19.568 -0.3418 -0.6951 -1.2472
 1933TIP3    H229995   1.496   0.542  19.581  0.5133 -1.2932 -1.8785
 1934TIP3   OH229996   0.586   0.643  18.476  0.1026 -0.0365  0.8948
 1934TIP3    H129997   0.610   0.681  18.391 -2.0374 -1.2106 -0.3099
 1934TIP3    H229998   0.660   0.664  18.533  0.9749  2.0464 -0.8568
 1935TIP3   OH229999   4.302   1.985  19.840  0.1575  0.6971 -0.4368
 1935TIP3    H130000   4.212   2.007  19.865 -0.3027 -2.7051  1.5404
 1935TIP3    H230001   4.356   2.039  19.897 -0.8159 -0.6051  1.8869
 1936TIP3   OH230002   2.774   0.423  18.823 -0.1803  0.4805  0.3738
 1936TIP3    H130003   2.741   0.418  18.733  1.0528  0.6981 -0.1189
 1936TIP3    H230004   2.725   0.357  18.871 -0.8852  0.3868 -0.4553
 1937TIP3   OH230005   0.047   2.812  18.010 -0.1359 -0.2832 -0.3320
 1937TIP3    H130006   0.049   2.795  17.915 -0.5926  0.0930 -0.4172
 1937TIP3    H230007  -0.002   2.894  18.018 -0.4292 -0.5118  0.2629
 1938TIP3   OH230008   4.996   0.075  18.388  0.0551 -0.2541  0.3218
 1938TIP3    H130009   4.958   0.118  18.465  0.5681  0.2833  0.2798
 1938TIP3    H230010   4.953   0.117  18.313  0.9169  0.5537  0.2650
 1939TIP3   OH230011   5.248   2.696  18.189 -0.4124 -0.0847 -0.2388
 1939TIP3    H130012   5.242   2.656  18.276  1.2373  3.4469  1.7390
 1939TIP3    H230013   5.171   2.753  18.184  0.9913  1.9725  0.3098
 1940TIP3   OH230014   0.641   2.055  21.015 -0.5792 -0.0147  0.4401
 1940TIP3    H130015   0.697   2.085  20.943 -1.3716 -1.1598 -0.6936
 1940TIP3    H230016   0.634   2.131  21.073  1.0112  0.5830 -0.0827
 1941TIP3   OH230017   3.561   2.332  17.667 -0.5338 -0.1500 -0.2824
 1941TIP3    H130018   3.562   2.240  17.691  0.4073 -0.0378  0.1663
 1941TIP3    H230019   3.616   2.375  17.733  1.6620  0.2605 -2.2374
 1942TIP3   OH230020   0.371   6.407  19.050 -0.1779 -0.1070 -0.6595
 1942TIP3    H130021   0.355   6.498  19.077 -5.2878 -0.7590 -0.4777
 1942TIP3    H230022   0.466   6.400  19.044  0.5993  4.5684  1.5756
 1943TIP3   OH230023   6.259   4.983  19.304  0.1807 -0.9110  0.2205
 1943TIP3    H130024   6.302   4.898  19.320 -0.5760 -1.2576  0.4454
 1943TIP3    H230025   6.260   4.993  19.209  1.8191 -0.3500  0.2589
 1944TIP3   OH230026   1.698   4.192  18.345 -0.4297  0.0473 -0.6595
 1944TIP3    H130027   1.756   4.262  18.377 -0.3405  0.2043 -1.1615
 1944TIP3    H230028   1.611   4.232  18.343 -0.1754  0.5655 -2.2132
 1945TIP3   OH230029   0.830   5.516  20.620  0.3264 -0.0439 -0.1454
 1945TIP3    H130030   0.765   5.446  20.619  0.7245 -0.7054 -4.7777
 1945TIP3    H230031   0.899   5.484  20.678 -1.0459 -1.8482  0.5904
 1946TIP3   OH230032   4.045   0.530  19.478 -0.0725 -0.3121  0.0175
 1946TIP3    H130033   4.089   0.615  19.477 -0.2472 -0.2083  0.5800
 1946TIP3    H230034   3.990   0.531  19.399  0.6385 -0.2951 -0.4895
 1947TIP3   OH230035   6.015   5.395  20.153  0.7032 -0.3454 -0.0411
 1947TIP3    H130036   6.016   5.434  20.066  0.3845 -0.6820 -0.1988
 1947TIP3    H230037   6.020   5.469  20.213  0.2868 -0.0719 -0.3388
 1948TIP3   OH230038   4.627   2.041  19.139 -0.0684  0.1502 -0.1870
 1948TIP3    H130039   4.687   2.082  19.076 -1.2260  0.8003 -0.9134
 1948TIP3    H230040   4.658   1.951  19.146  1.5750  0.7069  0.2086
 1949TIP3   OH230041   0.217   5.813  19.965  0.0004  0.0192 -0.7471
 1949TIP3    H130042   0.129   5.776  19.961  0.4775 -1.4663  1.1540
 1949TIP3    H230043   0.226   5.862  19.883 -2.5760  0.2319 -0.9807
 1950TIP3   OH230044   1.915   2.641  19.992  0.3002 -0.0445  0.0094
 1950TIP3    H130045   1.950   2.661  20.079  1.3466 -2.3920  0.1814
 1950TIP3    H230046   1.864   2.719  19.969  0.4857  0.8900  2.4497
 1951TIP3   OH230047   0.505   4.640  17.231  0.4517  0.0608 -0.1941
 1951TIP3    H130048   0.462   4.679  17.155  1.9490  2.6042  0.1458
 1951TIP3    H230049   0.581   4.595  17.195 -0.5681 -1.5654 -0.4468
 1952TIP3   OH230050   3.723   2.840  18.655 -0.3318  0.0799 -0.1715
 1952TIP3    H130051   3.684   2.879  18.577 -0.4904  0.9227  0.3154
 1952TIP3    H230052   3.649   2.827  18.715 -0.0638  0.5494  0.2826
 1953TIP3   OH230053   2.635   2.752  20.119 -0.0801 -0.0607 -0.2531
 1953TIP3    H130054   2.576   2.777  20.048 -0.5389  1.3196  0.5761
 1953TIP3    H230055   2.600   2.797  20.196  0.8609 -0.8951  0.6841
 1954TIP3   OH230056   1.691   1.738  17.365 -0.9262 -0.0929  0.4452
 1954TIP3    H130057   1.655   1.760  17.279 -1.3966 -1.4807  0.2635
 1954TIP3    H230058   1.786   1.744  17.353 -0.9914 -0.1362 -0.1335
 1955TIP3   OH230059   0.732   0.126  18.342 -0.5944  0.6884  0.2384
 1955TIP3    H130060   0.677   0.200  18.315 -1.7625 -0.4395 -0.5710
 1955TIP3    H230061   0.808   0.131  18.284 -0.2275  1.7269  0.7652
 1956TIP3   OH230062   2.508   4.565  19.460 -0.2159  0.2924  0.3707
 1956TIP3    H130063   2.444   4.537  19.394  0.9869 -1.3234 -0.1766
 1956TIP3    H230064   2.510   4.494  19.523  1.1947  0.1962  0.2475
 1957TIP3   OH230065   2.876   2.983  20.552 -0.4536 -0.6153 -0.2520
 1957TIP3    H130066   2.839   2.954  20.468 -0.0114 -0.4729 -0.4974
 1957TIP3    H230067   2.807   2.964  20.616 -1.5041  0.8598 -0.8879
 1958TIP3   OH230068   5.873   3.432  19.770 -0.0906 -0.0040  0.3181
 1958TIP3    H130069   5.939   3.411  19.704  0.9695  3.3630  0.1266
 1958TIP3    H230070   5.886   3.366  19.839  1.7357 -0.9472 -0.8384
 1959TIP3   OH230071   1.585   2.262  19.828 -0.4054 -0.4063  0.3620
 1959TIP3    H130072   1.506   2.316  19.819 -0.0426  0.0782 -0.0081
 1959TIP3    H230073   1.652   2.324  19.858  0.4256 -0.2795 -1.6085
 1960TIP3   OH230074   3.993   0.921  18.161 -0.5620 -0.2413  0.0042
 1960TIP3    H130075   3.992   0.887  18.072 -1.3187  1.7685 -0.8092
 1960TIP3    H230076   4.001   1.016  18.151  0.6116 -0.0528  2.1221
 1961TIP3   OH230077   2.575   1.544  20.023  0.6060 -0.7156  0.1665
 1961TIP3    H130078   2.585   1.470  20.083  0.4581 -1.3989 -0.6339
 1961TIP3    H230079   2.507   1.516  19.961 -0.6438  0.7461  0.8184
 1962TIP3   OH230080   6.558   3.972  19.938 -0.0818 -0.0400  0.4833
 1962TIP3    H130081   6.570   4.014  19.853 -1.6522  2.0962  1.2069
 1962TIP3    H230082   6.537   4.045  19.997  0.8163 -1.4648  2.6845
 1963TIP3   OH230083   2.546   3.690  18.020 -0.0154  0.2703  0.6065
 1963TIP3    H130084   2.511   3.765  17.972  0.6842  0.8157  0.9273
 1963TIP3    H230085   2.640   3.692  18.001 -0.0690 -0.8645  0.1598
 1964TIP3   OH230086   3.345   4.691  18.091  0.2429  0.1585 -0.0692
 1964TIP3    H130087   3.259   4.701  18.133  0.3991 -0.7239  0.5051
 1964TIP3    H230088   3.328   4.632  18.017  0.3557 -0.0724  0.0862
 1965TIP3   OH230089   5.236   0.948  19.421  0.4076  0.0827 -0.7593
 1965TIP3    H130090   5.283   0.888  19.479  1.3534 -0.9288 -2.4950
 1965TIP3    H230091   5.251   1.034  19.459  1.0806 -0.5341  0.4417
 1966TIP3   OH230092   3.024   2.628  17.816 -0.3248  0.0356 -0.0183
 1966TIP3    H130093   2.980   2.556  17.862  0.6934 -0.1394  0.7300
 1966TIP3    H230094   3.050   2.590  17.732 -0.3741 -0.2724  0.1035
 1967TIP3   OH230095   3.911   5.818  17.770  0.3491 -0.3099  0.3746
 1967TIP3    H130096   3.914   5.774  17.685 -1.0335 -2.2383  1.2560
 1967TIP3    H230097   3.989   5.787  17.815 -0.7926 -2.3525  1.1282
 1968TIP3   OH230098   1.888   6.050  20.382  0.2937  0.0968  0.1879
 1968TIP3    H130099   1.825   6.043  20.455 -0.1424  1.3794 -0.0253
 1968TIP3    H230100   1.953   5.982  20.400  0.1452  0.3077  1.7347
 1969TIP3   OH230101   0.425   4.276  17.725  0.0096  0.3353 -0.2338
 1969TIP3    H130102   0.500   4.216  17.727  0.3799  0.8018  0.2092
 1969TIP3    H230103   0.453   4.348  17.669  0.1939  0.8889  0.5556
 1970TIP3   OH230104   1.708   2.110  20.713  0.2619  0.6038  0.1241
 1970TIP3    H130105   1.683   2.029  20.757  1.1416  0.1247 -0.2522
 1970TIP3    H230106   1.644   2.119  20.641 -0.7681  1.0477  1.0635
 1971TIP3   OH230107   4.263   2.227  19.417 -0.0103  0.0051 -0.4575
 1971TIP3    H130108   4.194   2.192  19.473 -0.3643 -0.8122 -1.3783
 1971TIP3    H230109   4.305   2.149  19.380  0.0709  0.5263 -1.4901
 1972TIP3   OH230110   5.684   1.159  19.671  0.3000 -0.1735  0.4090
 1972TIP3    H130111   5.728   1.096  19.728 -0.2837 -1.4627 -0.4916
 1972TIP3    H230112   5.590   1.144  19.686  0.1205  1.7144  1.4419
 1973TIP3   OH230113   5.750   4.643  18.703  0.1976  0.1642  0.4027
 1973TIP3    H130114   5.682   4.620  18.767 -0.9154  2.0000 -0.0361
 1973TIP3    H230115   5.702   4.686  18.632  1.7291  0.5765 -0.4215
 1974TIP3   OH230116   2.396   2.735  19.933 -0.0618  0.0476 -0.3002
 1974TIP3    H130117   2.309   2.699  19.916  0.3083 -0.7414 -0.5489
 1974TIP3    H230118   2.456   2.680  19.883  0.7017 -0.1482  0.7780
 1975TIP3   OH230119   0.202   1.756  19.987  0.1808  0.1135  0.4577
 1975TIP3    H130120   0.274   1.794  20.037 -0.4469  1.1446  0.5946
 1975TIP3    H230121   0.246   1.704  19.919  1.0488  0.3807  0.7960
 1976TIP3   OH230122   1.851   0.592  19.488  0.3719  0.2553  0.1642
 1976TIP3    H130123   1.841   0.666  19.547 -0.1280  0.0409  0.3572
 1976TIP3    H230124   1.827   0.626  19.402  0.5519  0.4236  0.1797
 1977TIP3   OH230125   4.703   3.490  17.759  0.1385  0.6934 -0.2467
 1977TIP3    H130126   4.778   3.470  17.816 -0.1642 -0.5969 -0.2740
 1977TIP3    H230127   4.654   3.557  17.808  0.0238 -0.1976  0.9215
 1978TIP3   OH230128   2.779   0.957  18.734  0.1479 -0.6770 -0.4038
 1978TIP3    H130129   2.825   0.877  18.758 -0.6902 -0.5667  1.8726
 1978TIP3    H230130   2.686   0.938  18.750  0.0584  1.1876  1.8840
 1979TIP3   OH230131   1.560   2.548  20.474  0.5148  0.3800  0.5883
 1979TIP3    H130132   1.634   2.503  20.514 -0.6243 -0.9086  1.2981
 1979TIP3    H230133   1.558   2.634  20.516 -0.3360 -0.7383  2.9972
 1980TIP3   OH230134   5.253   1.648  18.595  0.1893 -0.1041  0.5415
 1980TIP3    H130135   5.242   1.557  18.625  0.2297 -0.2393  0.1470
 1980TIP3    H230136   5.248   1.700  18.676  1.8581 -0.5860  1.0147
 1981TIP3   OH230137   4.474   2.794  18.435  0.3476  0.2951 -0.3290
 1981TIP3    H130138   4.453   2.781  18.342  0.5938  1.0322 -0.4926
 1981TIP3    H230139   4.542   2.861  18.436 -1.1049  1.8566  0.4669
 1982TIP3   OH230140   0.079   0.210  20.453  0.1233 -0.1672  0.1269
 1982TIP3    H130141   0.108   0.120  20.438  1.4975  0.2155  0.3561
 1982TIP3    H230142   0.159   0.257  20.476 -0.4028  1.3218 -0.9367
 1983TIP3   OH230143   2.390   3.213  18.854 -0.4516 -0.5777  0.5612
 1983TIP3    H130144   2.294   3.216  18.861 -0.4970 -1.9589  0.7923
 1983TIP3    H230145   2.409   3.123  18.825  0.7186  0.0048 -0.5611
 1984TIP3   OH230146   4.264   0.734  19.406 -0.2427 -0.2831  0.9026
 1984TIP3    H130147   4.273   0.815  19.356  2.7453  1.0793  3.3198
 1984TIP3    H230148   4.328   0.674  19.367  0.6591  0.0728  1.8302
 1985TIP3   OH230149   4.914   5.580  18.070  0.2149  0.6557  0.2077
 1985TIP3    H130150   5.007   5.596  18.053  0.2056  0.1518 -0.3878
 1985TIP3    H230151   4.913   5.503  18.126  0.1235 -2.1081 -3.1965
 1986TIP3   OH230152   2.034   2.351  20.011 -0.1110 -0.3578 -0.1134
 1986TIP3    H130153   2.048   2.403  19.932 -0.3999 -2.9524 -2.0289
 1986TIP3    H230154   1.939   2.352  20.024 -0.0213  0.4724  0.5209
 1987TIP3   OH230155   5.097   0.379  18.738 -0.3919  0.2485 -0.1057
 1987TIP3    H130156   5.041   0.453  18.714 -0.9222  0.0400  0.4673
 1987TIP3    H230157   5.038   0.318  18.783  0.5313  0.5691  1.6281
 1988TIP3   OH230158   0.058   2.310  18.731  0.0460  0.2807  0.1496
 1988TIP3    H130159   0.013   2.381  18.684 -2.3981 -1.5090 -0.3859
 1988TIP3    H230160   0.007   2.298  18.811 -0.1096 -1.3487 -0.1490
 1989TIP3   OH230161   3.391   5.525  18.008 -0.7804 -0.0844 -0.4296
 1989TIP3    H130162   3.463   5.588  18.003 -2.1242  1.6124  0.5747
 1989TIP3    H230163   3.401   5.471  17.929  1.5041  0.1471 -0.3631
 1990TIP3   OH230164   5.914   2.040  19.424 -0.3458 -0.5765  0.6395
 1990TIP3    H130165   5.954   2.007  19.343 -0.7320  2.0600 -0.7456
 1990TIP3    H230166   5.975   2.107  19.455 -1.4763  0.2841  1.0590
 1991TIP3   OH230167   4.254   3.514  17.967 -0.5128 -0.2036  0.2276
 1991TIP3    H130168   4.220   3.439  17.918 -0.2468 -1.3948  1.7732
 1991TIP3    H230169   4.177   3.568  17.986 -0.6087  0.3142 -1.5017
 1992TIP3   OH230170   5.254   3.187  19.695 -0.0863 -0.3973  0.0113
 1992TIP3    H130171   5.340   3.162  19.728 -0.8143  0.7850  3.1710
 1992TIP3    H230172   5.206   3.105  19.688  0.8356 -0.9209 -0.3848
 1993TIP3   OH230173   2.189   2.790  20.572 -0.0985 -0.3244 -0.0031
 1993TIP3    H130174   2.094   2.785  20.580 -0.1290 -0.3916 -0.3941
 1993TIP3    H230175   2.221   2.708  20.609 -0.2203 -0.5019 -0.2896
 1994TIP3   OH230176   5.439   1.944  20.125 -0.2137  0.3119  0.2290
 1994TIP3    H130177   5.390   1.874  20.168  0.9738  0.1993  1.5035
 1994TIP3    H230178   5.474   1.904  20.046 -0.4849 -0.2022  0.3655
 1995TIP3   OH230179   1.220   1.890  17.594  0.4557 -0.4912 -0.0560
 1995TIP3    H130180   1.141   1.944  17.587  0.7013  0.1850  1.7589
 1995TIP3    H230181   1.227   1.846  17.510 -0.0019  1.9925 -1.4878
 1996TIP3   OH230182   5.634   2.258  20.140  0.6437  0.2059  0.1289
 1996TIP3    H130183   5.553   2.238  20.185 -0.6241  1.1265 -1.5991
 1996TIP3    H230184   5.640   2.192  20.071  0.3732  1.1892 -0.8766
 1997TIP3   OH230185   5.467   5.183  20.000  0.1242  0.4662  0.1851
 1997TIP3    H130186   5.483   5.129  20.078  2.1587  0.3050 -0.2932
 1997TIP3    H230187   5.481   5.123  19.927  1.7161  1.4164 -0.3447
 1998TIP3   OH230188   3.200   1.308  20.148 -0.0361  0.1281  0.4730
 1998TIP3    H130189   3.228   1.224  20.112  2.0192  0.2107  1.7265
 1998TIP3    H230190   3.199   1.368  20.073 -3.8604 -1.3897 -0.9428
 1999TIP3   OH230191   0.935   1.991  18.289 -0.0780  0.4480  0.5901
 1999TIP3    H130192   1.020   2.001  18.246 -0.4675 -1.6679 -0.8558
 1999TIP3    H230193   0.902   2.080  18.299  0.3380  1.1530 -3.0469
 2000TIP3   OH230194   5.593   1.868  18.582  0.0718  0.6558  0.4062
 2000TIP3    H130195   5.572   1.805  18.651 -1.1926  0.3260 -0.2345
 2000TIP3    H230196   5.590   1.818  18.501 -1.3383  1.5687 -0.1582
 2001TIP3   OH230197   1.312   2.920  19.204 -0.1458 -0.3089 -0.6815
 2001TIP3    H130198   1.379   2.937  19.271 -0.7580  3.3004 -0.7827
 2001TIP3    H230199   1.306   2.825  19.200  0.6785 -0.7775  3.6420
 2002TIP3   OH230200   6.463   5.649  19.584  0.2171  0.6004 -0.2774
 2002TIP3    H130201   6.517   5.570  19.591 -0.0608  0.1691 -2.3792
 2002TIP3    H230202   6.462   5.685  19.673 -0.4944 -2.3003  1.0094
 2003TIP3   OH230203   4.481   2.733  18.170  0.1351  0.2372 -0.6488
 2003TIP3    H130204   4.460   2.651  18.125 -1.3646  1.0652 -1.5053
 2003TIP3    H230205   4.509   2.792  18.101  1.6599  0.3353  0.0276
 2004TIP3   OH230206   5.785   0.533  19.987 -0.2643  0.0622 -0.7228
 2004TIP3    H130207   5.791   0.506  20.079  0.2426 -0.8965 -1.0316
 2004TIP3    H230208   5.853   0.600  19.978  1.0138 -1.2034 -0.8508
 2005TIP3   OH230209   5.459   1.700  20.424 -0.1864 -0.4844  0.4627
 2005TIP3    H130210   5.390   1.685  20.360  0.1385  0.0105 -0.0083
 2005TIP3    H230211   5.425   1.768  20.481  0.5501  0.9700 -0.7711
 2006TIP3   OH230212   1.365   0.807  20.398 -0.4857 -0.2882  0.5422
 2006TIP3    H130213   1.459   0.790  20.408 -0.4357  0.0885  0.6921
 2006TIP3    H230214   1.348   0.885  20.450 -0.5248  0.7756 -0.9970
 2007TIP3   OH230215   4.154   1.349  18.453  0.6948  0.0324  0.6863
 2007TIP3    H130216   4.184   1.423  18.399  1.8291 -1.2067 -0.4652
 2007TIP3    H230217   4.167   1.378  18.543 -0.1119  1.7130  0.2998
 2008TIP3   OH230218   2.188   3.986  19.687 -0.3479  0.0137  0.4693
 2008TIP3    H130219   2.110   3.933  19.703 -0.4815  0.4272  1.2587
 2008TIP3    H230220   2.168   4.071  19.727 -0.6690  1.1520 -1.9212
 2009TIP3   OH230221   5.293   5.548  17.394  0.5803  0.0286  0.0121
 2009TIP3    H130222   5.282   5.559  17.300 -1.2331 -0.4338  0.1407
 2009TIP3    H230223   5.384   5.519  17.405  0.4908 -0.9662 -1.6717
 2010TIP3   OH230224   6.071   1.125  18.923 -0.3915 -0.0710  0.1787
 2010TIP3    H130225   6.029   1.095  18.842 -0.2132 -3.7865  1.3212
 2010TIP3    H230226   6.163   1.099  18.913 -0.4617 -0.9922  1.7285
 2011TIP3   OH230227   4.045   0.186  20.505  0.4873 -0.2491 -0.0004
 2011TIP3    H130228   3.980   0.250  20.478  0.6017 -0.2607 -0.3093
 2011TIP3    H230229   4.021   0.163  20.595  0.1888 -0.1003 -0.0419
 2012TIP3   OH230230   6.423   5.773  18.295 -0.3873  0.4189  0.2179
 2012TIP3    H130231   6.509   5.785  18.335  0.0171 -1.2774 -0.0572
 2012TIP3    H230232   6.403   5.858  18.256  1.5368  0.6448 -0.4160
 2013TIP3   OH230233   2.631   5.742  18.682 -0.0257  0.2689  0.0286
 2013TIP3    H130234   2.648   5.665  18.629 -0.1746  0.4449 -0.2735
 2013TIP3    H230235   2.537   5.758  18.672 -0.1343  0.0586  0.6693
 2014TIP3   OH230236   0.585   1.908  20.786 -0.0539 -0.2233  0.0913
 2014TIP3    H130237   0.595   1.952  20.870 -0.4798 -0.1605  0.1114
 2014TIP3    H230238   0.675   1.889  20.758  0.0738 -1.4512  1.1980
 2015TIP3   OH230239   1.950   2.440  18.392 -0.3963 -0.2056 -0.1246
 2015TIP3    H130240   1.905   2.473  18.315  0.4048 -0.1763 -0.5825
 2015TIP3    H230241   1.963   2.517  18.447 -0.8529 -0.2079 -0.0005
 2016TIP3   OH230242   6.642   6.038  18.805 -0.0376 -0.3450 -0.2931
 2016TIP3    H130243   6.604   6.017  18.891 -0.1478  0.3299 -0.1681
 2016TIP3    H230244   6.616   5.966  18.749 -0.5927 -0.4322  0.0645
 2017TIP3   OH230245   0.201   2.990  17.816 -0.1163 -0.0053 -0.0307
 2017TIP3    H130246   0.114   3.028  17.833  0.2444 -0.0062  2.0067
 2017TIP3    H230247   0.199   2.969  17.723 -2.2702  0.0970 -0.0651
 2018TIP3   OH230248   0.478   4.849  18.966 -0.0550  0.0876  0.3487
 2018TIP3    H130249   0.509   4.931  19.003  0.7455  0.2335 -0.6054
 2018TIP3    H230250   0.393   4.872  18.927 -1.5680 -0.3574  3.1182
 2019TIP3   OH230251   0.054   5.918  17.664  0.7354  0.0521  0.3129
 2019TIP3    H130252   0.036   5.858  17.591  1.7797  0.0142  0.0809
 2019TIP3    H230253   0.129   5.970  17.635  1.4153 -0.2291  1.5014
 2020TIP3   OH230254   4.911   5.272  20.753  0.5289 -0.7206 -0.3334
 2020TIP3    H130255   4.943   5.281  20.664 -0.5184 -2.3070 -0.9096
 2020TIP3    H230256   4.978   5.314  20.807  0.5250  1.5455 -1.9247
 2021TIP3   OH230257   2.387   6.601  18.470 -0.0707 -0.6302  0.3050
 2021TIP3    H130258   2.460   6.590  18.531 -0.7428 -1.9571  0.9112
 2021TIP3    H230259   2.429   6.610  18.384  0.8028 -1.6527  0.5995
 2022TIP3   OH230260   2.847   5.379  20.396  0.0764 -0.0546 -0.3055
 2022TIP3    H130261   2.822   5.402  20.486 -0.8738 -0.5207 -0.4322
 2022TIP3    H230262   2.764   5.352  20.355  0.8423 -2.0756 -0.6377
 2023TIP3   OH230263   6.126   4.514  20.396  0.3792 -0.2362  0.4139
 2023TIP3    H130264   6.162   4.435  20.436  1.6217 -0.2821 -0.7415
 2023TIP3    H230265   6.093   4.485  20.311  0.3637  0.4000  0.1983
 2024TIP3   OH230266   2.231   0.992  19.044 -0.9383  0.4869  0.1389
 2024TIP3    H130267   2.199   0.986  19.134 -0.0706  0.4375  0.4491
 2024TIP3    H230268   2.211   0.906  19.006 -4.0233  1.4317 -0.6697
 2025TIP3   OH230269   6.389   4.940  18.282 -0.2696 -0.2810  0.0644
 2025TIP3    H130270   6.340   4.899  18.353  0.9413  0.6134  1.4822
 2025TIP3    H230271   6.349   5.027  18.272 -2.0707 -1.2486 -2.1353
 2026TIP3   OH230272   0.822   0.228  19.073  0.7650 -0.1512 -0.0470
 2026TIP3    H130273   0.754   0.168  19.102  0.0347  0.8046  0.2795
 2026TIP3    H230274   0.891   0.220  19.139  0.9322 -1.0357 -0.3155
 2027TIP3   OH230275   2.122   1.917  18.675 -0.1527  0.1628  0.1783
 2027TIP3    H130276   2.145   1.832  18.639  0.8256 -0.3318  1.8567
 2027TIP3    H230277   2.169   1.980  18.619 -1.7868 -0.2544 -1.7787
 2028TIP3   OH230278   0.534   1.884  20.382 -0.0981 -0.5180 -0.0025
 2028TIP3    H130279   0.447   1.895  20.421 -0.7308  0.5509 -1.6140
 2028TIP3    H230280   0.577   1.968  20.395  1.6060 -1.6862  2.7285
 2029TIP3   OH230281   2.375   0.910  20.796  0.0872  0.0175 -0.6646
 2029TIP3    H130282   2.403   0.843  20.859  0.0711 -1.0178 -1.7253
 2029TIP3    H230283   2.313   0.865  20.739 -2.4354  1.7465  0.4858
 2030TIP3   OH230284   5.603   6.472  18.708 -0.4530 -0.2211  0.3991
 2030TIP3    H130285   5.526   6.420  18.684 -1.0170 -1.1237  3.6247
 2030TIP3    H230286   5.668   6.407  18.735 -0.3183  0.6078  2.2293
 2031TIP3   OH230287   2.233   3.793  18.187 -0.1097 -0.1754 -0.7678
 2031TIP3    H130288   2.310   3.844  18.162 -0.9311  0.7465 -1.4849
 2031TIP3    H230289   2.188   3.775  18.105 -0.4800 -1.0225 -0.3932
 2032TIP3   OH230290   6.045   6.057  17.666  0.9348  1.0648 -0.8349
 2032TIP3    H130291   5.994   6.101  17.598 -1.9706 -0.5628  0.0975
 2032TIP3    H230292   6.009   5.968  17.670  1.2959  0.9181  2.4204
 2033TIP3   OH230293   2.466   3.250  17.702 -0.0560  0.1890  0.1659
 2033TIP3    H130294   2.444   3.186  17.769  1.4054 -2.5542 -1.8109
 2033TIP3    H230295   2.391   3.248  17.642 -0.6655  1.5076  0.8306
 2034TIP3   OH230296   3.686   1.719  18.682  0.3721 -1.1894 -0.4399
 2034TIP3    H130297   3.696   1.647  18.620 -0.2841 -1.6081 -0.0739
 2034TIP3    H230298   3.750   1.701  18.751 -0.0924 -1.6829 -0.1226
 2035TIP3   OH230299   0.989   4.286  20.211  0.3007  0.7192  0.5527
 2035TIP3    H130300   0.998   4.224  20.139  1.0790  0.4582  0.8717
 2035TIP3    H230301   1.024   4.241  20.287 -1.2898  0.6802  1.2886
 2036TIP3   OH230302   0.900   0.710  19.525  0.2804  0.4599  0.3298
 2036TIP3    H130303   0.967   0.677  19.584  1.2322  0.7424 -0.5684
 2036TIP3    H230304   0.855   0.631  19.494  0.4790  0.2403  0.5982
 2037TIP3   OH230305   2.654   0.642  19.269 -0.1623 -0.6925  0.4167
 2037TIP3    H130306   2.566   0.635  19.232 -0.9972  0.6181  1.9793
 2037TIP3    H230307   2.665   0.562  19.321 -0.2707 -1.0368 -0.0872
 2038TIP3   OH230308   1.586   3.628  20.399  0.3231  0.3965  0.4275
 2038TIP3    H130309   1.520   3.688  20.366 -0.7303 -1.6772 -1.5344
 2038TIP3    H230310   1.648   3.618  20.326  1.3875  0.3482  1.3116
 2039TIP3   OH230311   4.287   5.831  20.749  0.2791  0.4245  0.2946
 2039TIP3    H130312   4.236   5.751  20.762  0.3347  0.4116  0.4315
 2039TIP3    H230313   4.222   5.898  20.729  0.3601 -0.1350 -2.2202
 2040TIP3   OH230314   2.370   0.632  18.324  0.3096  0.2997  0.2590
 2040TIP3    H130315   2.412   0.717  18.337  0.7588  0.4106 -1.5967
 2040TIP3    H230316   2.439   0.569  18.339  0.1306  0.2806  1.0359
 2041TIP3   OH230317   1.881   5.213  19.540  0.2874 -0.2832 -0.4307
 2041TIP3    H130318   1.796   5.258  19.544  0.8496  0.7261  1.5574
 2041TIP3    H230319   1.905   5.215  19.448 -1.2330  0.6129 -0.8494
 2042TIP3   OH230320   2.070   2.394  17.556 -0.9080  0.7490 -0.0887
 2042TIP3    H130321   2.127   2.413  17.481 -0.9355  0.8185 -0.0906
 2042TIP3    H230322   1.993   2.351  17.517 -1.0830  1.1030 -0.1391
 2043TIP3   OH230323   1.220   4.611  17.235  0.3081 -0.0191 -0.2843
 2043TIP3    H130324   1.143   4.605  17.178  1.4162  0.2130 -1.8755
 2043TIP3    H230325   1.285   4.554  17.193  1.5581  1.1069  0.0694
 2044TIP3   OH230326   1.607   4.660  20.679  0.5053 -0.4798  0.1224
 2044TIP3    H130327   1.696   4.694  20.670  0.6585 -0.0796  2.4912
 2044TIP3    H230328   1.618   4.565  20.681  0.8950 -0.4349  0.3777
 2045TIP3   OH230329   4.245   2.749  20.344 -0.1291 -0.2887  0.1766
 2045TIP3    H130330   4.224   2.814  20.411 -1.5721 -0.5079 -0.0388
 2045TIP3    H230331   4.173   2.686  20.348 -0.3378 -0.2143 -1.6925
 2046TIP3   OH230332   1.290   5.714  17.480 -0.8339  0.4159  0.1272
 2046TIP3    H130333   1.319   5.658  17.552 -0.4730 -2.4108 -2.0683
 2046TIP3    H230334   1.194   5.706  17.480 -0.7524 -0.7522 -0.5340
 2047TIP3   OH230335   1.822   6.644  18.856 -0.5854 -0.1444  0.3882
 2047TIP3    H130336   1.754   6.645  18.789  0.7293  0.9236 -1.0058
 2047TIP3    H230337   1.794   6.708  18.920 -0.7979  0.4435 -0.2845
 2048TIP3   OH230338   1.642   5.989  19.205  0.0484  0.2608  0.0441
 2048TIP3    H130339   1.650   5.981  19.300 -1.0517  0.9249  0.2213
 2048TIP3    H230340   1.668   6.080  19.187  0.2870  0.1258 -0.2925
 2049TIP3   OH230341   0.950   5.238  18.644 -0.0162 -0.3171  0.0313
 2049TIP3    H130342   0.973   5.152  18.610  0.9569 -0.6501  1.4665
 2049TIP3    H230343   1.033   5.284  18.653 -0.5173  0.7918 -0.6946
 2050TIP3   OH230344   5.513   6.376  19.344  0.5700  0.1689  0.5043
 2050TIP3    H130345   5.574   6.319  19.391  0.1196  0.7121  1.8022
 2050TIP3    H230346   5.497   6.449  19.405 -2.3355 -0.5818  0.7754
 2051TIP3   OH230347   0.695   2.950  19.415 -0.6280  0.5621 -0.0060
 2051TIP3    H130348   0.781   2.910  19.428 -0.6340 -0.0075 -1.5214
 2051TIP3    H230349   0.639   2.908  19.480 -0.6376 -2.0007 -1.5490
 2052TIP3   OH230350   2.964   4.762  19.517 -0.1490 -0.1473 -0.2089
 2052TIP3    H130351   2.923   4.718  19.443 -0.3923  0.0003 -0.1629
 2052TIP3    H230352   3.054   4.777  19.489 -0.2687  0.0019 -0.5158
 2053TIP3   OH230353   3.369   3.624  20.373 -0.1305  0.0845  0.0947
 2053TIP3    H130354   3.324   3.709  20.369 -0.5090 -0.1488 -2.0999
 2053TIP3    H230355   3.328   3.573  20.303  2.6301 -0.6065 -1.1506
 2054TIP3   OH230356   2.499   1.070  19.661  0.2076 -0.0374  0.0649
 2054TIP3    H130357   2.532   1.035  19.578 -0.0422  1.7678 -0.8678
 2054TIP3    H230358   2.443   1.143  19.635 -1.8520 -0.9239  1.7634
 2055TIP3   OH230359   1.731   3.407  19.591  0.0816  0.3067 -0.3507
 2055TIP3    H130360   1.790   3.411  19.515  2.2488  1.9680  1.2814
 2055TIP3    H230361   1.774   3.346  19.651  0.7126  2.2044  1.2373
 2056TIP3   OH230362   5.872   3.935  20.764 -0.0645 -0.1787 -0.2957
 2056TIP3    H130363   5.946   3.992  20.745 -0.9606  0.6134 -1.6141
 2056TIP3    H230364   5.795   3.989  20.744 -0.9846 -1.2201  0.3142
 2057TIP3   OH230365   0.601   3.868  18.893 -0.1756 -0.5895 -0.1638
 2057TIP3    H130366   0.628   3.783  18.929 -1.6793 -2.0379 -2.2440
 2057TIP3    H230367   0.575   3.849  18.803 -0.0215  2.2149 -0.8798
 2058TIP3   OH230368   1.510   3.606  18.611 -0.1782 -0.2373 -1.0600
 2058TIP3    H130369   1.583   3.545  18.619  1.3412  1.7292  2.6164
 2058TIP3    H230370   1.515   3.638  18.521  1.9481 -1.9526 -1.6368
 2059TIP3   OH230371   1.360   0.497  18.039 -0.5295  0.2048  0.2783
 2059TIP3    H130372   1.280   0.504  18.091 -2.1198 -3.2915 -1.3566
 2059TIP3    H230373   1.334   0.529  17.952 -0.2472 -1.1041 -0.3020
 2060TIP3   OH230374   5.011   4.250  18.720  0.0635 -0.4209 -0.0426
 2060TIP3    H130375   4.982   4.160  18.708  0.5794 -0.5591 -0.3034
 2060TIP3    H230376   4.935   4.296  18.756  0.2455 -1.3020  1.5623
 2061TIP3   OH230377   1.852   1.278  17.548  0.8932 -0.2575 -0.6504
 2061TIP3    H130378   1.868   1.372  17.538 -0.8713  0.4975  2.3299
 2061TIP3    H230379   1.805   1.253  17.468  2.3964  1.0659 -2.0176
 2062TIP3   OH230380   3.593   6.533  20.304 -0.1694 -0.3654 -0.1068
 2062TIP3    H130381   3.661   6.495  20.247  0.5597  0.6671  0.0378
 2062TIP3    H230382   3.621   6.624  20.316 -0.6682 -0.3815  1.3588
 2063TIP3   OH230383   3.405   5.860  19.993 -0.8598  0.1177  0.3307
 2063TIP3    H130384   3.385   5.953  20.005 -0.6933  0.3030 -0.7276
 2063TIP3    H230385   3.428   5.829  20.081  3.2386  2.0598  0.1766
 2064TIP3   OH230386   1.553   2.403  20.792  0.0440 -0.1601  0.9098
 2064TIP3    H130387   1.629   2.430  20.742  0.0810 -1.9866 -0.0905
 2064TIP3    H230388   1.583   2.329  20.844 -1.1065 -1.1787  0.1943
 2065TIP3   OH230389   0.607   1.547  19.117  0.3078 -0.0259 -0.2099
 2065TIP3    H130390   0.612   1.591  19.202  2.0585  2.4137 -1.4713
 2065TIP3    H230391   0.696   1.551  19.083  0.0343 -2.5867 -1.4479
 2066TIP3   OH230392   2.303   3.968  18.694  0.3599  0.3364  0.2402
 2066TIP3    H130393   2.297   4.005  18.606 -3.7348 -1.4633 -0.4679
 2066TIP3    H230394   2.262   4.033  18.750  0.7401  0.4369  0.4000
 2067TIP3   OH230395   4.099   5.996  20.943 -0.1627  0.2958 -0.5735
 2067TIP3    H130396   4.089   5.909  20.904 -0.6382  0.7464 -1.4973
 2067TIP3    H230397   4.021   6.044  20.916  0.7342  1.4331 -1.2543
 2068TIP3   OH230398   5.962   0.987  19.516 -0.0636 -0.0182 -0.2926
 2068TIP3    H130399   5.921   0.973  19.430  1.0672 -2.0496 -0.5803
 2068TIP3    H230400   6.056   0.991  19.497  0.0692  2.1934  0.5940
 2069TIP3   OH230401   2.145   2.677  19.842 -0.1671 -0.3147 -0.1030
 2069TIP3    H130402   2.100   2.696  19.760 -0.5914  1.4374  0.4875
 2069TIP3    H230403   2.076   2.654  19.904  0.1958 -2.1364 -0.3408
 2070TIP3   OH230404   5.916   6.087  19.345  0.0385  0.5315  0.0547
 2070TIP3    H130405   5.868   6.143  19.285  0.8769  1.4590  0.2115
 2070TIP3    H230406   6.003   6.128  19.351  0.4205 -0.3544  0.7765
 2071TIP3   OH230407   0.562   3.288  18.413 -0.2367 -0.1711 -0.0344
 2071TIP3    H130408   0.486   3.337  18.381  0.4733  0.5507 -0.6748
 2071TIP3    H230409   0.555   3.203  18.369 -0.2562  0.1742 -0.7223
 2072TIP3   OH230410   0.385   4.621  20.885 -0.5958 -0.5088 -0.3932
 2072TIP3    H130411   0.388   4.710  20.921 -2.9779 -0.7629  0.6616
 2072TIP3    H230412   0.447   4.622  20.813  0.2601  1.6867  0.2905
 2073TIP3   OH230413   2.058   1.633  19.283  0.0913  0.0160  0.0385
 2073TIP3    H130414   2.111   1.557  19.259  0.1317 -0.1972  0.8018
 2073TIP3    H230415   2.090   1.659  19.369 -1.0514 -0.1265  0.5173
 2074TIP3   OH230416   1.468   3.424  19.983  0.0137  0.2024  0.1549
 2074TIP3    H130417   1.538   3.375  19.940  0.4316  0.4833  0.5111
 2074TIP3    H230418   1.477   3.405  20.076 -1.0916 -0.6555  0.1123
 2075TIP3   OH230419   2.265   0.585  17.755  0.9359  0.2657  0.1270
 2075TIP3    H130420   2.253   0.642  17.831  0.1322 -0.1689  0.3328
 2075TIP3    H230421   2.193   0.523  17.760  0.5688  0.5528 -1.2764
 2076TIP3   OH230422   4.310   1.691  20.060  0.4933 -0.3213  0.7924
 2076TIP3    H130423   4.370   1.763  20.041  0.9050 -0.2496  2.2481
 2076TIP3    H230424   4.224   1.723  20.031  0.9135  0.1108 -0.0297
 2077TIP3   OH230425   5.115   6.485  20.430  0.3404  0.1584 -0.6133
 2077TIP3    H130426   5.121   6.434  20.511  0.3643  0.7275 -0.2518
 2077TIP3    H230427   5.022   6.507  20.423  0.3896  0.3771 -0.5763
 2078TIP3   OH230428   5.072   6.561  17.007  0.3758 -0.0813  0.2528
 2078TIP3    H130429   5.136   6.615  17.053 -0.3704  0.6695  0.4546
 2078TIP3    H230430   5.081   6.586  16.915 -0.6299  1.1674  0.4509
 2079TIP3   OH230431   4.365   3.640  19.915 -0.1892  0.0051 -0.2963
 2079TIP3    H130432   4.337   3.711  19.857 -1.4991  1.7949  2.3203
 2079TIP3    H230433   4.353   3.561  19.864  0.1039  1.5521 -2.9259
 2080TIP3   OH230434   5.698   5.156  19.333 -0.2384  0.2488 -0.1473
 2080TIP3    H130435   5.659   5.089  19.277  1.6424 -0.4584 -0.6937
 2080TIP3    H230436   5.767   5.196  19.279 -0.5542  1.8404  0.5709
 2081TIP3   OH230437   2.632   4.406  17.994  0.0701 -0.6081  0.2982
 2081TIP3    H130438   2.680   4.423  18.075  2.7170 -0.5465 -1.1676
 2081TIP3    H230439   2.658   4.478  17.936 -2.8631  0.1535 -0.2517
 2082TIP3   OH230440   6.315   5.822  20.061 -0.4967  0.1049 -0.2654
 2082TIP3    H130441   6.391   5.850  20.113 -0.1043 -1.7532  0.2352
 2082TIP3    H230442   6.259   5.776  20.124  0.3892 -2.9615 -1.5349
 2083TIP3   OH230443   4.364   3.992  20.015 -0.0120  0.1497  0.2731
 2083TIP3    H130444   4.319   3.919  20.058 -1.9649  1.0560 -0.1327
 2083TIP3    H230445   4.364   4.062  20.080  0.8495  0.1746  0.2606
 2084TIP3   OH230446   1.817   5.583  18.917 -0.1597  0.1946  0.1285
 2084TIP3    H130447   1.732   5.569  18.876  0.0326  2.6258 -1.2889
 2084TIP3    H230448   1.799   5.640  18.991  0.0469 -0.7880  0.9619
 2085TIP3   OH230449   1.151   0.131  19.758  0.0940  0.1466  0.0062
 2085TIP3    H130450   1.244   0.128  19.780  0.0273  2.0642  0.7330
 2085TIP3    H230451   1.108   0.084  19.829  0.5421 -2.1622 -1.1229
 2086TIP3   OH230452   5.270   3.123  19.997 -0.5233  0.2667  0.3727
 2086TIP3    H130453   5.253   3.144  19.905 -0.3395  1.6929  0.6391
 2086TIP3    H230454   5.290   3.030  19.998 -0.5211  0.2428 -1.0316
 2087TIP3   OH230455   3.392   4.155  18.358 -0.0829 -0.9131  0.4743
 2087TIP3    H130456   3.326   4.221  18.335  0.0693 -0.6621  0.7444
 2087TIP3    H230457   3.346   4.072  18.352  0.0039 -0.8732 -0.9017
 2088TIP3   OH230458   0.165   6.117  18.574  0.1801 -0.9452 -0.8433
 2088TIP3    H130459   0.124   6.124  18.487 -0.6384 -0.1540 -0.4199
 2088TIP3    H230460   0.144   6.201  18.616  0.0592 -1.5436  0.3313
 2089TIP3   OH230461   4.578   2.267  18.936 -0.1220 -0.0628  0.2703
 2089TIP3    H130462   4.667   2.264  18.900 -0.5128  0.9594 -0.8355
 2089TIP3    H230463   4.585   2.328  19.009  0.6827 -2.1801  2.0939
 2090TIP3   OH230464   6.321   1.572  20.161 -0.0143  0.3270  0.0150
 2090TIP3    H130465   6.252   1.548  20.223 -0.0352  0.4729  0.0492
 2090TIP3    H230466   6.365   1.647  20.203  1.3528 -0.9149  0.8786
 2091TIP3   OH230467   6.584   3.168  20.613 -0.1992 -0.1175 -0.3627
 2091TIP3    H130468   6.533   3.087  20.621  1.4890 -1.2256 -0.3391
 2091TIP3    H230469   6.665   3.150  20.661  0.4728  1.3855 -0.8718
 2092TIP3   OH230470   6.002   5.838  18.496 -0.0446 -0.6334  0.2732
 2092TIP3    H130471   6.073   5.817  18.556  1.2858  0.1911 -0.9457
 2092TIP3    H230472   6.015   5.780  18.421 -0.5417 -0.3359 -0.0547
 2093TIP3   OH230473   6.183   1.664  20.637  0.0796 -0.2395  0.2291
 2093TIP3    H130474   6.259   1.617  20.604  0.7408  0.6320  0.4885
 2093TIP3    H230475   6.156   1.614  20.714 -0.1540 -1.0420 -0.3567
 2094TIP3   OH230476   1.134   5.494  18.931  0.1637 -0.2310 -0.5072
 2094TIP3    H130477   1.041   5.490  18.949 -0.2844  0.9070 -2.3117
 2094TIP3    H230478   1.146   5.575  18.882  2.6158  1.3526  2.3796
 2095TIP3   OH230479   2.479   0.358  16.961  0.3219  0.4766 -0.1401
 2095TIP3    H130480   2.571   0.332  16.965 -0.1497 -1.3367 -0.3195
 2095TIP3    H230481   2.433   0.279  16.932 -1.2963  1.3492 -0.0457
 2096TIP3   OH230482   3.190   5.592  18.983  0.1253  0.5145  0.0528
 2096TIP3    H130483   3.258   5.540  18.941  0.5785 -0.3540  1.7571
 2096TIP3    H230484   3.234   5.672  19.011  0.1289  0.5469 -0.0482
 2097TIP3   OH230485   5.592   4.287  19.862 -0.7755 -0.4824  0.4295
 2097TIP3    H130486   5.568   4.232  19.787 -1.0043 -1.0671  0.9314
 2097TIP3    H230487   5.531   4.262  19.931  0.4871 -1.1398  1.3431
 2098TIP3   OH230488   3.075   0.009  18.798  0.0556 -0.2213 -0.0748
 2098TIP3    H130489   3.036  -0.057  18.855 -1.7863  1.3768  0.6382
 2098TIP3    H230490   3.137   0.055  18.854 -0.3707  0.1319  0.1147
 2099TIP3   OH230491   3.632   3.967  18.604  0.0833  0.3897  0.0806
 2099TIP3    H130492   3.619   4.060  18.624  1.6661  0.2991  1.8950
 2099TIP3    H230493   3.638   3.963  18.509 -2.9729  1.6689 -0.2983
 2100TIP3   OH230494   3.599   2.217  19.609 -0.2183 -0.1596  0.2442
 2100TIP3    H130495   3.579   2.250  19.521 -2.1363 -1.0661  0.2920
 2100TIP3    H230496   3.678   2.164  19.596  0.0193  0.3931 -0.7534
 2101TIP3   OH230497   3.331   2.197  20.044 -0.1014  0.0811 -0.0669
 2101TIP3    H130498   3.386   2.220  19.970 -0.6852  2.2613  0.0972
 2101TIP3    H230499   3.389   2.203  20.120  0.0553 -0.2685 -0.1603
 2102TIP3   OH230500   2.983   3.457  20.063  0.0535  0.2061  0.2128
 2102TIP3    H130501   2.925   3.509  20.007 -0.2887 -0.7102 -0.3003
 2102TIP3    H230502   2.927   3.432  20.137 -0.1284 -0.4513 -0.1467
 2103TIP3   OH230503   4.602   0.825  19.290  0.2555 -0.0677  0.4921
 2103TIP3    H130504   4.578   0.806  19.200  2.3241  0.0122 -0.1490
 2103TIP3    H230505   4.648   0.909  19.284  0.0003  0.1724  1.7055
 2104TIP3   OH230506   5.202   1.288  19.768  0.1401 -0.2373 -0.9200
 2104TIP3    H130507   5.172   1.309  19.680  0.5609  0.9497 -0.8064
 2104TIP3    H230508   5.157   1.207  19.791 -0.0088 -0.5381 -2.2031
 2105TIP3   OH230509   4.691   1.260  18.408 -0.0770  0.2639  0.4208
 2105TIP3    H130510   4.757   1.232  18.471 -1.0344 -1.2526  0.7707
 2105TIP3    H230511   4.610   1.219  18.437 -0.9852  1.2761 -0.5874
 2106TIP3   OH230512   0.038   3.131  18.025  0.2283 -0.2058 -0.3952
 2106TIP3    H130513  -0.032   3.133  17.959 -1.5723 -1.1023  1.4052
 2106TIP3    H230514   0.095   3.204  18.001 -1.5759  0.8656 -1.6685
 2107TIP3   OH230515   4.982   2.177  20.435  0.3024 -0.1601  0.3064
 2107TIP3    H130516   4.941   2.256  20.471  1.5553  0.4702  0.3803
 2107TIP3    H230517   4.988   2.117  20.509 -0.2106 -0.1564  0.3572
 2108TIP3   OH230518   1.117   3.532  17.911  0.6408 -0.0972 -0.2721
 2108TIP3    H130519   1.202   3.575  17.925  0.7868 -0.8230  1.2678
 2108TIP3    H230520   1.140   3.443  17.882  0.4329 -0.4331  0.5652
 2109TIP3   OH230521   4.802   5.089  19.935 -0.9880  0.5827 -0.2734
 2109TIP3    H130522   4.861   5.040  19.878 -2.7229  0.1929 -1.8264
 2109TIP3    H230523   4.859   5.149  19.983  0.6288  0.5021 -1.9915
 2110TIP3   OH230524   1.405   0.447  20.293  0.6029  0.2994 -0.3249
 2110TIP3    H130525   1.494   0.466  20.322  0.9115 -0.4528 -0.7580
 2110TIP3    H230526   1.408   0.357  20.261 -0.4241  0.0903  0.0984
 2111TIP3   OH230527   1.101   0.065  17.625 -0.5245  0.2943 -0.1769
 2111TIP3    H130528   1.175   0.119  17.597 -0.3012  0.6460  1.0567
 2111TIP3    H230529   1.024   0.117  17.602 -0.4243 -0.1217 -1.5704
 2112TIP3   OH230530   2.262   5.443  17.924 -0.2356  0.2755  0.3097
 2112TIP3    H130531   2.273   5.405  17.836  2.4157 -0.1080  0.7425
 2112TIP3    H230532   2.167   5.457  17.931 -0.8683 -2.2721 -1.5177
 2113TIP3   OH230533   3.573   5.398  20.705 -0.8549  0.0933 -0.1692
 2113TIP3    H130534   3.575   5.438  20.618  0.7867  0.2211 -0.0980
 2113TIP3    H230535   3.661   5.413  20.740 -0.7140 -2.1403  0.5348
 2114TIP3   OH230536   3.779   1.540  20.140 -0.8742 -0.4185  0.1161
 2114TIP3    H130537   3.821   1.578  20.217 -1.2705 -0.6241  0.4385
 2114TIP3    H230538   3.687   1.563  20.149 -0.7619  0.5232 -0.8765
 2115TIP3   OH230539   4.858   3.774  19.669 -0.1769  0.3134  0.5344
 2115TIP3    H130540   4.913   3.833  19.617 -2.1674  4.6583  2.8247
 2115TIP3    H230541   4.776   3.822  19.680 -3.4272 -4.4035 -0.0051
 2116TIP3   OH230542   4.075   4.630  19.741 -0.1770 -0.0887 -0.0864
 2116TIP3    H130543   4.144   4.565  19.728 -1.1055 -1.1300  0.0882
 2116TIP3    H230544   4.001   4.598  19.690 -0.4801  1.1320 -0.4449
 2117TIP3   OH230545   2.735   0.436  20.446  0.2887  0.2384 -0.0176
 2117TIP3    H130546   2.807   0.394  20.492  0.7239 -0.3260 -1.1732
 2117TIP3    H230547   2.760   0.528  20.442 -0.5828  0.6435  2.3634
 2118TIP3   OH230548   1.494   5.769  18.769 -0.1019 -0.6623  0.1365
 2118TIP3    H130549   1.454   5.821  18.838  0.4182 -0.6634  0.4444
 2118TIP3    H230550   1.523   5.834  18.705  1.0823 -0.5109  0.8019
 2119TIP3   OH230551   3.072   6.543  19.240  0.4171 -0.4379  0.1394
 2119TIP3    H130552   3.049   6.450  19.230  0.5813 -0.5760  0.9169
 2119TIP3    H230553   3.162   6.542  19.271  0.8536  0.0368 -1.0723
 2120TIP3   OH230554   2.504   6.156  19.096  0.7995 -1.4472 -0.0352
 2120TIP3    H130555   2.534   6.115  19.177  1.5957 -0.5702  0.1302
 2120TIP3    H230556   2.575   6.216  19.071  0.9087 -2.2117 -1.7589
 2121TIP3   OH230557   5.000   1.470  18.335 -0.4114 -0.2852 -0.2009
 2121TIP3    H130558   4.996   1.507  18.247  0.0348 -1.7860 -0.8807
 2121TIP3    H230559   5.066   1.402  18.330 -1.2177 -1.2091  0.9897
 2122TIP3   OH230560   1.230   5.661  18.437 -0.3091  0.1557  0.4444
 2122TIP3    H130561   1.291   5.654  18.364 -0.3773 -1.6608  0.5135
 2122TIP3    H230562   1.179   5.740  18.418  0.9630  0.7897 -0.4496
 2123TIP3   OH230563   3.692   0.572  19.493  0.3759  0.1357 -0.1424
 2123TIP3    H130564   3.724   0.575  19.402  2.9256 -1.0443  0.6378
 2123TIP3    H230565   3.645   0.489  19.498 -1.1456  0.9233 -0.7501
 2124TIP3   OH230566   0.473   1.878  19.692  0.3335 -0.1274 -0.4807
 2124TIP3    H130567   0.378   1.880  19.700  0.3101 -0.0862 -0.7765
 2124TIP3    H230568   0.499   1.970  19.696  0.3479 -0.1281 -0.5567
 2125TIP3   OH230569   1.383   2.418  18.858 -1.1651  0.2863  0.3855
 2125TIP3    H130570   1.439   2.421  18.935 -0.4824 -3.2612  0.2069
 2125TIP3    H230571   1.436   2.456  18.788 -0.7199  0.9749  1.0792
 2126TIP3   OH230572   5.683   2.986  19.435 -0.2699 -0.0060 -0.6411
 2126TIP3    H130573   5.591   3.012  19.435  0.3294  2.4201 -2.3879
 2126TIP3    H230574   5.698   2.952  19.523 -2.5544  0.6279  0.0602
 2127TIP3   OH230575   4.584   5.394  19.292  0.4917  0.1592  0.3540
 2127TIP3    H130576   4.536   5.440  19.361  0.0739  0.1869  0.0495
 2127TIP3    H230577   4.664   5.364  19.334  1.6132  2.6407  0.1511
 2128TIP3   OH230578   5.070   6.381  21.043  0.4636 -0.1219 -0.3795
 2128TIP3    H130579   5.069   6.401  21.136  0.7060 -0.2650 -0.3449
 2128TIP3    H230580   4.987   6.415  21.010  0.3410 -0.1451 -0.0968
 2129TIP3   OH230581   2.268   1.574  18.032  0.8689  0.0539  0.1349
 2129TIP3    H130582   2.287   1.481  18.019  0.0681 -0.0154 -0.6918
 2129TIP3    H230583   2.174   1.582  18.013  0.8030  0.9358  0.7596
 2130TIP3   OH230584   2.537   0.828  18.873  0.1997 -0.0238 -0.1599
 2130TIP3    H130585   2.523   0.734  18.862 -0.6775  0.1664 -0.8365
 2130TIP3    H230586   2.450   0.867  18.858  0.4421  0.8573  0.6044
 2131TIP3   OH230587   6.088   0.915  19.939 -0.0285 -0.0526  0.2378
 2131TIP3    H130588   6.068   0.826  19.912 -0.9701  0.1329  0.2817
 2131TIP3    H230589   6.059   0.969  19.865 -1.4028  0.3607  1.0499
 2132TIP3   OH230590   3.348   4.686  18.829  0.4750  0.5316  0.6419
 2132TIP3    H130591   3.381   4.599  18.854  0.7481  0.9973  1.9920
 2132TIP3    H230592   3.260   4.689  18.865  0.6901  1.0404  1.1361
 2133TIP3   OH230593   6.632   0.861  18.992  0.2982 -0.0434 -0.2258
 2133TIP3    H130594   6.637   0.812  19.073  1.1542 -3.5052 -2.1604
 2133TIP3    H230595   6.714   0.910  18.989  0.5897 -0.4596  0.6436
 2134TIP3   OH230596   6.530   5.402  19.233  0.2376 -0.0112  0.5257
 2134TIP3    H130597   6.524   5.307  19.240  1.5581 -0.2115 -0.5481
 2134TIP3    H230598   6.447   5.434  19.266  0.1714 -1.4778  1.9067
 2135TIP3   OH230599   3.830   3.999  17.291  0.1782  0.2304 -0.8239
 2135TIP3    H130600   3.818   3.933  17.360 -2.7082  0.4989 -0.9557
 2135TIP3    H230601   3.925   4.008  17.284  0.6960 -3.0045  0.0433
 2136TIP3   OH230602   1.409   0.388  19.288  0.5202  0.4397 -0.0382
 2136TIP3    H130603   1.499   0.382  19.320  0.2814 -0.4972  0.5122
 2136TIP3    H230604   1.356   0.402  19.367 -0.1533 -2.6319  0.1917
 2137TIP3   OH230605   1.206   4.345  17.825 -0.7793  0.0868 -0.3198
 2137TIP3    H130606   1.281   4.343  17.886  0.3707  1.3007 -1.6070
 2137TIP3    H230607   1.200   4.256  17.791  0.0583 -0.0496 -0.1357
 2138TIP3   OH230608   6.328   3.514  19.007 -0.0297  0.0412 -0.0639
 2138TIP3    H130609   6.343   3.491  19.099  1.3985  0.7383 -0.0841
 2138TIP3    H230610   6.335   3.431  18.960  1.5890 -0.0265  0.2294
 2139TIP3   OH230611   4.165   6.121  18.272  0.4382 -0.1807  0.0223
 2139TIP3    H130612   4.234   6.069  18.312  2.5031  1.5298 -1.1344
 2139TIP3    H230613   4.137   6.071  18.196  0.9330 -0.5445  0.0784
 2140TIP3   OH230614   4.595   3.398  20.011 -0.3894 -0.0154  0.3259
 2140TIP3    H130615   4.509   3.429  20.039 -0.1930  1.5583 -0.7207
 2140TIP3    H230616   4.586   3.303  20.005 -1.4398 -0.0680  2.2232
 2141TIP3   OH230617   6.189   1.798  19.856  0.0291  0.5508  0.6517
 2141TIP3    H130618   6.184   1.843  19.772 -0.6610  0.8003  0.8165
 2141TIP3    H230619   6.098   1.773  19.875  0.2826 -0.1509  0.9754
 2142TIP3   OH230620   5.518   4.993  18.107 -0.2678  0.0666  0.4203
 2142TIP3    H130621   5.511   4.923  18.172  0.0603 -0.6830 -0.3350
 2142TIP3    H230622   5.432   4.995  18.065  0.0333 -0.5928 -0.2545
 2143TIP3   OH230623   5.458   4.536  18.010  0.5772 -0.2366 -0.0142
 2143TIP3    H130624   5.551   4.542  18.033  0.9682 -2.8063 -0.5468
 2143TIP3    H230625   5.412   4.538  18.094  0.9651  2.0732  0.2070
 2144TIP3   OH230626   5.798   6.545  17.803  0.0040 -0.3815  0.1362
 2144TIP3    H130627   5.786   6.627  17.852  3.0665  0.9663 -1.1345
 2144TIP3    H230628   5.810   6.572  17.713 -1.2166 -2.4992 -0.7459
 2145TIP3   OH230629   0.594   3.391  20.373  0.4540  0.4683  0.2188
 2145TIP3    H130630   0.502   3.408  20.397  0.7765  2.2058  0.3906
 2145TIP3    H230631   0.644   3.434  20.442  1.3897  1.0309 -0.7817
 2146TIP3   OH230632   2.346   2.134  18.655  0.0903 -0.1511  0.0575
 2146TIP3    H130633   2.388   2.121  18.740 -0.2732 -1.2794  0.0824
 2146TIP3    H230634   2.413   2.110  18.591 -0.6648 -2.7330  0.1051
 2147TIP3   OH230635   2.258   2.288  18.449  0.6294 -0.2864 -0.7309
 2147TIP3    H130636   2.171   2.255  18.425  0.4103 -0.0266 -0.2965
 2147TIP3    H230637   2.282   2.239  18.527  0.3583  0.4793 -0.1553
 2148TIP3   OH230638   1.772   4.198  18.052 -0.3790 -0.1443  0.2094
 2148TIP3    H130639   1.756   4.190  18.147 -0.0305  2.1083  0.5286
 2148TIP3    H230640   1.864   4.223  18.045 -0.3424 -0.5176 -0.7451
 2149TIP3   OH230641   3.101   1.438  20.508  0.0134  0.2208  0.0984
 2149TIP3    H130642   3.132   1.477  20.426  0.2845 -1.4621 -0.6409
 2149TIP3    H230643   3.156   1.360  20.520 -1.9227 -1.1559  0.3567
 2150TIP3   OH230644   3.177   6.132  20.339  0.2924 -0.5936  0.0545
 2150TIP3    H130645   3.123   6.062  20.377 -0.7497 -0.0017 -0.2902
 2150TIP3    H230646   3.165   6.122  20.244  1.4659 -0.9690 -0.0643
 2151TIP3   OH230647   5.470   1.547  20.107 -0.0478  0.5021 -0.4435
 2151TIP3    H130648   5.470   1.535  20.012 -0.8733  1.1748 -0.5353
 2151TIP3    H230649   5.413   1.622  20.122  0.9195  1.0727  0.5103
 2152TIP3   OH230650   1.325   0.278  20.068  0.1815 -0.4542 -0.1183
 2152TIP3    H130651   1.317   0.351  20.007 -0.2602 -2.6738 -2.9308
 2152TIP3    H230652   1.413   0.244  20.055  0.4010 -0.4534  1.1819
 2153TIP3   OH230653   1.184   1.738  20.687 -0.1073 -0.0780  0.0693
 2153TIP3    H130654   1.151   1.822  20.654  0.0386  0.0147  0.1586
 2153TIP3    H230655   1.108   1.679  20.683 -0.4443  0.2941  0.8480
 2154TIP3   OH230656   1.248   1.124  17.980  0.0979 -0.4547 -0.0566
 2154TIP3    H130657   1.216   1.201  17.933 -1.8459 -0.6059  0.9217
 2154TIP3    H230658   1.242   1.053  17.916 -0.4610 -0.2441 -0.2509
 2155TIP3   OH230659   6.622   4.866  18.569 -0.5617 -0.0678 -0.3231
 2155TIP3    H130660   6.656   4.816  18.495  0.5430  0.0558  0.0854
 2155TIP3    H230661   6.673   4.836  18.644  1.9400  3.3561 -0.4396
 2156TIP3   OH230662   3.901   2.353  19.260  0.0627  0.2778 -0.1379
 2156TIP3    H130663   3.846   2.418  19.217  1.4188  2.5082  1.2858
 2156TIP3    H230664   3.989   2.371  19.229  0.8478  0.9278  2.2726
 2157TIP3   OH230665   3.786   6.442  19.856  0.2260 -0.8786  0.5722
 2157TIP3    H130666   3.747   6.390  19.786  0.4392 -2.3235  1.5058
 2157TIP3    H230667   3.768   6.533  19.830 -0.2718 -1.3881 -1.0116
 2158TIP3   OH230668   1.953   3.588  19.214  0.6590 -0.5425  0.3381
 2158TIP3    H130669   1.917   3.676  19.209  1.9077 -0.0794 -1.9347
 2158TIP3    H230670   1.926   3.546  19.132  3.0808 -1.0070 -0.3106
 2159TIP3   OH230671   1.272   3.689  19.577 -0.2259 -0.0867  0.1620
 2159TIP3    H130672   1.252   3.752  19.646  0.9401 -0.4265  0.8363
 2159TIP3    H230673   1.368   3.685  19.575 -0.2597 -0.7250 -0.8940
 2160TIP3   OH230674   4.072   4.908  19.026 -0.1413 -0.0595  0.0304
 2160TIP3    H130675   4.107   4.968  19.093 -0.9401 -0.7724  1.1277
 2160TIP3    H230676   4.122   4.827  19.038  0.0238 -0.0476 -0.5556
 2161TIP3   OH230677   4.091   2.863  18.812  0.2693 -0.2090  0.1879
 2161TIP3    H130678   4.046   2.794  18.861 -1.2208 -0.5568 -1.5603
 2161TIP3    H230679   4.182   2.834  18.809  0.1100 -0.9289  1.4408
 2162TIP3   OH230680   6.205   1.393  18.824 -0.3474  0.3740  0.4728
 2162TIP3    H130681   6.147   1.340  18.770  0.5813 -0.2730  0.0980
 2162TIP3    H230682   6.177   1.483  18.807  0.1150  0.2161 -1.3224
 2163TIP3   OH230683   3.310   5.813  18.212 -0.5204 -0.0508 -0.1182
 2163TIP3    H130684   3.394   5.837  18.174 -1.8951 -1.5327 -4.7148
 2163TIP3    H230685   3.318   5.721  18.235 -0.7626 -0.1215 -0.3023
 2164TIP3   OH230686   1.747   5.752  17.854  0.1450 -0.0818  0.0051
 2164TIP3    H130687   1.766   5.831  17.906 -0.9513  0.5181 -0.4714
 2164TIP3    H230688   1.704   5.693  17.916 -0.2222  0.2237  0.0482
 2165TIP3   OH230689   3.530   0.055  20.599 -0.3071 -0.1373  0.9314
 2165TIP3    H130690   3.471   0.129  20.612  0.2016  0.7488 -1.2702
 2165TIP3    H230691   3.609   0.078  20.649 -0.2138  0.7521  0.3909
 2166TIP3   OH230692   0.382   1.200  19.154 -0.1975 -0.4783  0.2914
 2166TIP3    H130693   0.353   1.141  19.085  1.6775 -0.2519 -0.7559
 2166TIP3    H230694   0.476   1.186  19.159 -0.1261  0.3680  2.0220
 2167TIP3   OH230695   0.535   0.964  19.328  0.0273 -0.1652  0.0000
 2167TIP3    H130696   0.607   0.946  19.268  0.5936  0.0565  0.6056
 2167TIP3    H230697   0.508   0.878  19.359 -0.3927 -0.2983 -0.6979
 2168TIP3   OH230698   0.195   6.675  18.009  0.0552  0.0520  0.3067
 2168TIP3    H130699   0.127   6.616  17.976  1.4976  0.4307 -3.9394
 2168TIP3    H230700   0.154   6.761  18.009  0.1730  0.1284 -1.2418
 2169TIP3   OH230701   0.544   4.750  17.678 -0.2227  0.2009  0.4153
 2169TIP3    H130702   0.476   4.804  17.637  0.8673  2.0567  0.9387
 2169TIP3    H230703   0.536   4.768  17.772  1.4759  1.1225  0.4266
 2170TIP3   OH230704   0.897   2.194  19.024 -0.2408 -0.0799 -0.2868
 2170TIP3    H130705   0.972   2.189  18.965  0.3702  0.4651  0.4316
 2170TIP3    H230706   0.909   2.120  19.084 -1.1614 -0.9743 -1.1645
 2171TIP3   OH230707   5.323   0.632  18.068 -0.2521  0.3919  0.5658
 2171TIP3    H130708   5.340   0.647  17.976 -0.5950 -1.8145  0.0971
 2171TIP3    H230709   5.333   0.538  18.080 -0.8754  0.5337  2.6405
 2172TIP3   OH230710   6.529   3.334  17.935  0.1362 -0.4667 -0.5597
 2172TIP3    H130711   6.470   3.325  18.010  0.2417 -0.8731 -0.5217
 2172TIP3    H230712   6.521   3.425  17.908  1.4979  0.2175  1.1359
 2173TIP3   OH230713   5.152   0.063  20.823  0.2501 -0.6155 -0.2041
 2173TIP3    H130714   5.192  -0.024  20.821 -0.4450 -0.9181 -1.3490
 2173TIP3    H230715   5.201   0.114  20.759 -0.0566 -0.4764 -0.3278
 2174TIP3   OH230716   2.447   2.762  17.194 -0.3784  0.3576 -0.1213
 2174TIP3    H130717   2.403   2.779  17.277 -1.4121 -1.0937 -0.3195
 2174TIP3    H230718   2.507   2.690  17.212  0.9574  1.4277 -0.1751
 2175TIP3   OH230719   0.295   5.263  20.692 -0.5252  0.0233 -0.2416
 2175TIP3    H130720   0.318   5.299  20.607  1.2462  1.4913  0.7700
 2175TIP3    H230721   0.221   5.316  20.722 -1.5131 -0.8631 -1.0797
 2176TIP3   OH230722   3.011   0.202  18.614 -0.0457 -0.2282 -0.1737
 2176TIP3    H130723   3.004   0.174  18.705  1.7749 -1.7988 -0.4552
 2176TIP3    H230724   3.103   0.227  18.603 -0.2246 -0.0891 -1.5853
 2177TIP3   OH230725   2.494   6.317  19.935  0.3120  0.3693 -0.1165
 2177TIP3    H130726   2.459   6.363  20.011 -0.4655 -0.9891  0.3954
 2177TIP3    H230727   2.557   6.255  19.971  1.0238  0.7216 -0.7370
 2178TIP3   OH230728   4.892   1.455  19.770 -0.7160 -0.3622 -0.2038
 2178TIP3    H130729   4.937   1.422  19.847 -0.1836  1.8871  0.5265
 2178TIP3    H230730   4.956   1.447  19.699 -0.4166 -0.4160  0.0713
 2179TIP3   OH230731   3.131   2.556  19.281 -0.0873  0.5058 -0.5015
 2179TIP3    H130732   3.188   2.631  19.298  1.9499 -1.2793  1.2618
 2179TIP3    H230733   3.174   2.509  19.209  0.6157 -0.7007  0.6491
 2180TIP3   OH230734   3.064   5.163  18.500  0.5152  0.1384 -0.2710
 2180TIP3    H130735   3.037   5.081  18.460 -0.3271 -0.3519  1.2272
 2180TIP3    H230736   3.159   5.167  18.484  0.3205 -0.3602 -1.6606
 2181TIP3   OH230737   4.783   5.546  18.965  0.3659 -0.1790 -0.1292
 2181TIP3    H130738   4.693   5.522  18.943  0.1873 -1.4654  1.7863
 2181TIP3    H230739   4.780   5.640  18.983 -0.5102 -0.1442 -0.4197
 2182TIP3   OH230740   2.860   6.689  19.290 -0.8421 -0.2779  0.4629
 2182TIP3    H130741   2.936   6.633  19.277  0.8173  1.7151  0.9502
 2182TIP3    H230742   2.870   6.758  19.224 -1.7461  0.4696  1.0906
 2183TIP3   OH230743   6.193   4.697  18.162 -0.5591  0.9614  0.0268
 2183TIP3    H130744   6.191   4.740  18.248  0.0817  1.9018 -0.4112
 2183TIP3    H230745   6.101   4.692  18.136 -0.6663  2.0120  0.1369
 2184TIP3   OH230746   5.825   5.582  19.654  0.1332 -0.8849 -0.0628
 2184TIP3    H130747   5.780   5.614  19.576  2.3243  0.2735 -0.9341
 2184TIP3    H230748   5.912   5.558  19.624  0.0936 -3.3402  1.4997
 2185TIP3   OH230749   1.498   0.917  19.688  0.2548 -0.2272  0.3434
 2185TIP3    H130750   1.420   0.881  19.730 -0.5326 -0.2456 -1.0709
 2185TIP3    H230751   1.522   0.853  19.621 -0.0288  0.9454 -0.9231
 2186TIP3   OH230752   1.703   1.521  19.572 -0.1816  0.2200  0.3939
 2186TIP3    H130753   1.664   1.469  19.502  2.3202  1.1270 -1.8312
 2186TIP3    H230754   1.795   1.492  19.575  0.2907  1.7115  1.8151
 2187TIP3   OH230755   6.393   3.395  19.259  0.8766 -0.2907 -0.3747
 2187TIP3    H130756   6.435   3.324  19.209  1.0805 -0.1890 -0.3488
 2187TIP3    H230757   6.350   3.350  19.332  2.6662 -0.2082  0.7730
 2188TIP3   OH230758   2.392   4.005  18.123 -0.0469  0.3415 -0.2240
 2188TIP3    H130759   2.368   4.058  18.047  1.5039  1.7261  0.1781
 2188TIP3    H230760   2.411   4.069  18.192  0.9066 -0.7747  0.5953
 2189TIP3   OH230761   3.677   6.212  19.965 -0.7345 -0.2562  0.6456
 2189TIP3    H130762   3.753   6.163  19.933 -0.0896 -0.6205  2.5573
 2189TIP3    H230763   3.696   6.303  19.943  0.6854 -0.2391  1.7989
 2190TIP3   OH230764   1.051   3.513  18.451 -0.0417  0.7415  1.0541
 2190TIP3    H130765   1.118   3.452  18.483  0.3875 -1.5523 -3.4923
 2190TIP3    H230766   0.970   3.462  18.451 -0.1364  0.8290 -0.6876
 2191TIP3   OH230767   6.025   6.505  19.519  0.1328 -0.5899 -0.6429
 2191TIP3    H130768   6.112   6.546  19.519 -0.3449  0.5090 -1.9792
 2191TIP3    H230769   5.974   6.558  19.581 -0.0899 -0.0291 -1.2916
 2192TIP3   OH230770   4.149   1.109  18.660  0.6480 -0.4333  0.6075
 2192TIP3    H130771   4.161   1.203  18.672 -0.6262  0.1529 -1.8256
 2192TIP3    H230772   4.090   1.102  18.584  2.3440 -3.2173 -0.6272
 2193TIP3   OH230773   6.531   4.001  18.684 -0.1705 -0.4984 -0.1932
 2193TIP3    H130774   6.586   3.928  18.716 -1.1035 -0.9280  0.4759
 2193TIP3    H230775   6.582   4.079  18.704  0.2846 -0.9006  0.2716
 2194TIP3   OH230776   1.149   4.060  20.291  0.9207  1.1732  0.0107
 2194TIP3    H130777   1.135   4.000  20.365  1.1448  0.7273 -0.3031
 2194TIP3    H230778   1.203   4.010  20.230  1.5810  1.9003 -0.0101
 2195TIP3   OH230779   4.644   3.040  19.809  0.4777 -0.3991  0.0863
 2195TIP3    H130780   4.722   2.988  19.830 -0.1474 -1.1760  0.5281
 2195TIP3    H230781   4.655   3.064  19.717  0.5203 -1.7805 -0.2856
 2196TIP3   OH230782   6.523   5.120  19.003 -0.0477  0.3496 -0.1474
 2196TIP3    H130783   6.566   5.049  18.956 -1.1611  1.0226 -2.3459
 2196TIP3    H230784   6.594   5.179  19.028  0.5518  0.4134 -1.8618
 2197TIP3   OH230785   0.925   2.062  20.155  0.1416  0.9599 -0.0324
 2197TIP3    H130786   1.004   2.009  20.145 -0.7780 -0.5115  0.2761
 2197TIP3    H230787   0.894   2.044  20.243 -0.7090  1.2939 -0.2495
 2198TIP3   OH230788   2.111   0.598  18.422  0.4001 -0.8151  0.3041
 2198TIP3    H130789   2.042   0.585  18.357 -0.0370  0.1478  0.5493
 2198TIP3    H230790   2.192   0.603  18.370  0.1152 -0.5573 -0.1290
 2199TIP3   OH230791   4.718   0.353  19.350 -0.1744 -0.4966  0.4479
 2199TIP3    H130792   4.789   0.360  19.414 -0.4201 -2.1717  0.9485
 2199TIP3    H230793   4.745   0.282  19.292 -0.6354  0.0379 -0.4337
 2200TIP3   OH230794   3.024   2.809  19.780  0.0629  0.6011  0.2443
 2200TIP3    H130795   3.066   2.769  19.856  0.2986  1.9594  0.8608
 2200TIP3    H230796   3.066   2.767  19.704 -1.3681 -2.0062  0.7880
 2201TIP3   OH230797   1.288   4.540  20.305 -0.2907 -0.5464 -0.2026
 2201TIP3    H130798   1.308   4.630  20.280  1.6988 -0.4684  1.3984
 2201TIP3    H230799   1.195   4.540  20.327 -0.9095  0.4923 -2.5909
 2202TIP3   OH230800   4.914   2.262  19.996 -0.3493 -0.0502  0.1282
 2202TIP3    H130801   4.903   2.311  20.077 -2.0146 -0.5504  0.2568
 2202TIP3    H230802   4.911   2.170  20.023 -1.2073 -0.2260 -0.5030
 2203TIP3   OH230803   3.339   4.592  20.097 -0.1880  0.2152 -0.0722
 2203TIP3    H130804   3.391   4.595  20.016  2.2685 -2.1962  1.2737
 2203TIP3    H230805   3.250   4.613  20.069  1.1457  3.0684 -2.7720
 2204TIP3   OH230806   1.004   3.072  20.820  0.1569  0.0070  0.1147
 2204TIP3    H130807   0.912   3.098  20.824  0.1467 -0.0454  0.2175
 2204TIP3    H230808   1.005   2.997  20.760  0.5447  1.8343 -2.2996
 2205TIP3   OH230809   3.047   0.842  19.842  0.2532  0.5616 -0.0839
 2205TIP3    H130810   3.041   0.900  19.917 -0.4059 -0.1317  0.4114
 2205TIP3    H230811   3.044   0.754  19.879  0.3888  0.2084 -0.8827
 2206TIP3   OH230812   0.126   2.097  19.865  0.2690  0.3680  0.1897
 2206TIP3    H130813   0.202   2.155  19.855 -0.5204  1.4692  0.4097
 2206TIP3    H230814   0.123   2.048  19.783  1.2122  0.3108  0.1771
 2207TIP3   OH230815   3.055   3.769  20.368  0.2457 -0.0451  0.6599
 2207TIP3    H130816   3.004   3.741  20.292 -1.4367  1.2178  1.2651
 2207TIP3    H230817   3.100   3.690  20.398 -0.0779 -0.8413 -0.8564
 2208TIP3   OH230818   1.002   4.450  17.653  0.8825  0.7868  1.1391
 2208TIP3    H130819   1.044   4.373  17.691  0.2935  1.1392  2.5687
 2208TIP3    H230820   1.055   4.470  17.576  0.1966 -1.9276 -0.1823
 2209TIP3   OH230821   2.155   0.944  19.631 -0.7048 -0.1000  0.1712
 2209TIP3    H130822   2.101   0.876  19.672  0.2678 -0.7231  0.4692
 2209TIP3    H230823   2.243   0.926  19.664 -0.5571  1.8437  0.9538
 2210TIP3   OH230824   3.858   3.038  20.189 -0.8198  0.6318 -0.7041
 2210TIP3    H130825   3.820   3.011  20.106 -0.0504 -0.4667 -0.7090
 2210TIP3    H230826   3.816   2.983  20.255  1.1948 -1.1139 -0.7794
 2211TIP3   OH230827   4.988   6.516  19.922 -0.0382  0.0688  0.3399
 2211TIP3    H130828   5.073   6.537  19.883 -0.6448 -0.2960 -1.2494
 2211TIP3    H230829   4.975   6.583  19.989  0.2201  1.9095 -1.3391
 2212TIP3   OH230830   6.258   4.742  20.264 -0.0257  0.2981  0.3501
 2212TIP3    H130831   6.257   4.726  20.170  0.2129 -0.0242  0.3987
 2212TIP3    H230832   6.240   4.656  20.303  0.4386  0.3124  0.6054
 2213TIP3   OH230833   3.386   2.065  17.928  0.9391 -0.3659  0.6918
 2213TIP3    H130834   3.425   2.067  18.016  0.9492 -2.2079  0.7582
 2213TIP3    H230835   3.347   1.978  17.921 -1.2102  0.6192 -0.2402
 2214TIP3   OH230836   3.798   2.941  19.658 -0.2704 -0.7382  0.0675
 2214TIP3    H130837   3.824   2.928  19.567  0.9776  1.7250 -0.0422
 2214TIP3    H230838   3.737   3.015  19.655  0.0277 -0.4233  1.2370
 2215TIP3   OH230839   3.236   6.608  18.608  0.1365  0.1591 -0.2434
 2215TIP3    H130840   3.167   6.636  18.668  0.7920 -1.0538  1.1289
 2215TIP3    H230841   3.189   6.559  18.540 -0.3276 -1.5689  1.2297
 2216TIP3   OH230842   5.269   5.496  20.126  0.3999 -0.1334  0.8259
 2216TIP3    H130843   5.220   5.542  20.057 -1.1371 -0.8077  1.4324
 2216TIP3    H230844   5.360   5.509  20.102  0.0009  2.2553  0.3374
 2217TIP3   OH230845   4.868   2.338  18.822  0.3913 -0.0252 -0.0166
 2217TIP3    H130846   4.798   2.398  18.797 -0.4016 -0.2420  1.5530
 2217TIP3    H230847   4.939   2.357  18.761 -1.0963  0.0294 -1.8236
 2218TIP3   OH230848   5.548   6.164  19.520 -0.3071  0.6495 -0.0756
 2218TIP3    H130849   5.531   6.072  19.498 -0.8229  0.5337  0.7678
 2218TIP3    H230850   5.640   6.165  19.545 -0.3074  0.3495 -0.0508
 2219TIP3   OH230851   5.779   3.244  19.389  0.3249  0.3205  0.3938
 2219TIP3    H130852   5.694   3.287  19.399  0.5005  0.9143 -0.5342
 2219TIP3    H230853   5.761   3.151  19.401  0.1917  0.7013  4.0011
 2220TIP3   OH230854   5.249   4.238  18.244 -0.0779  0.4713  0.5471
 2220TIP3    H130855   5.299   4.319  18.233  0.8437 -0.1106  0.3779
 2220TIP3    H230856   5.176   4.263  18.301 -0.6590  1.7657 -0.7099
 2221TIP3   OH230857   0.484   5.190  17.799 -0.3753 -0.3633  0.3698
 2221TIP3    H130858   0.551   5.252  17.770  0.8793 -2.2087 -0.8793
 2221TIP3    H230859   0.532   5.109  17.819 -2.0347 -1.2094  1.1859
 2222TIP3   OH230860   2.513   3.438  18.132 -0.0980  0.3893 -0.4518
 2222TIP3    H130861   2.527   3.519  18.084 -2.5139  0.3892 -1.2916
 2222TIP3    H230862   2.511   3.465  18.224 -1.6369  1.4636 -0.7570
 2223TIP3   OH230863   0.739   3.118  20.865  0.4570  0.2536 -0.4535
 2223TIP3    H130864   0.687   3.144  20.789  2.1718  0.6315 -1.5643
 2223TIP3    H230865   0.698   3.163  20.939 -0.0415  1.5566 -1.4753
 2224TIP3   OH230866   4.852   1.384  17.986  0.4050  0.1470 -0.2100
 2224TIP3    H130867   4.925   1.436  18.020  0.0712 -0.5563  1.7141
 2224TIP3    H230868   4.776   1.441  17.993  0.1519 -0.3429  1.2929
 2225TIP3   OH230869   3.613   1.589  16.901 -0.2959  0.2585  0.0161
 2225TIP3    H130870   3.698   1.591  16.858 -1.0153 -0.2786 -1.5293
 2225TIP3    H230871   3.623   1.647  16.977  0.3175  3.6097 -2.3885
 2226TIP3   OH230872   2.042   1.187  19.752 -0.2803  0.7564  0.0541
 2226TIP3    H130873   2.032   1.131  19.828  0.7149  0.5882  0.0700
 2226TIP3    H230874   2.095   1.136  19.691 -0.0721  1.3480 -0.2704
 2227TIP3   OH230875   0.473   5.590  18.683  0.1209 -0.4037 -0.3082
 2227TIP3    H130876   0.458   5.502  18.718 -0.1553 -0.0732  0.4151
 2227TIP3    H230877   0.539   5.628  18.740 -0.3603  0.1553 -0.1096
 2228TIP3   OH230878   0.107   6.458  19.057 -0.7094 -0.2501  0.2203
 2228TIP3    H130879   0.181   6.407  19.024 -2.1134 -1.6001 -1.0036
 2228TIP3    H230880   0.088   6.422  19.143  0.6556  0.7969  0.9957
 2229TIP3   OH230881   1.708   2.321  19.308  0.0401  0.2851 -0.1895
 2229TIP3    H130882   1.705   2.403  19.357  0.9368  0.0508  0.2905
 2229TIP3    H230883   1.765   2.265  19.360  0.2037 -0.3132 -0.9978
 2230TIP3   OH230884   6.126   3.210  18.178  0.6473 -0.6820  0.1689
 2230TIP3    H130885   6.111   3.222  18.271  1.0861 -2.9707  0.5865
 2230TIP3    H230886   6.186   3.281  18.154  2.0044 -1.1191  2.0559
 2231TIP3   OH230887   5.328   5.532  19.168 -0.5678  0.1214  0.4281
 2231TIP3    H130888   5.414   5.561  19.198  0.8464 -0.9459 -2.2153
 2231TIP3    H230889   5.321   5.441  19.197  0.1144 -0.4154 -1.0046
 2232TIP3   OH230890   2.440   5.192  19.583  0.3497 -0.1621  0.0194
 2232TIP3    H130891   2.422   5.127  19.515  0.3725  0.2509 -0.3822
 2232TIP3    H230892   2.355   5.234  19.599  0.4543  0.0992 -0.1221
 2233TIP3   OH230893   5.118   4.627  20.176 -0.7188  0.2474 -0.0200
 2233TIP3    H130894   5.055   4.650  20.244 -0.1890  0.2046  0.5038
 2233TIP3    H230895   5.203   4.645  20.216 -0.1701 -3.2771  0.7242
 2234TIP3   OH230896   1.386   6.037  20.713  0.5984 -0.8715  0.3658
 2234TIP3    H130897   1.358   5.945  20.715  1.4985 -1.3074 -2.5052
 2234TIP3    H230898   1.340   6.074  20.637  1.8175  0.4822  0.2523
 2235TIP3   OH230899   1.432   6.646  19.784  0.2135  0.5217  0.4693
 2235TIP3    H130900   1.432   6.736  19.750  1.6780  0.0193 -1.0431
 2235TIP3    H230901   1.486   6.651  19.863 -3.2557  1.7160  2.9730
 2236TIP3   OH230902   0.387   0.790  19.859  0.4204  0.3118  0.0117
 2236TIP3    H130903   0.307   0.824  19.820  1.1425  2.5501  0.3050
 2236TIP3    H230904   0.372   0.795  19.953 -0.5799 -3.1998  0.1402
 2237TIP3   OH230905   5.249   2.258  18.407 -0.5271 -0.3284 -0.8155
 2237TIP3    H130906   5.318   2.191  18.406  0.6274  0.8083 -0.1841
 2237TIP3    H230907   5.266   2.310  18.329  0.0006  0.5900 -0.1051
 2238TIP3   OH230908   4.759   2.652  20.235 -0.0449 -0.0542  0.0627
 2238TIP3    H130909   4.710   2.589  20.287 -0.0825 -0.5694 -0.5813
 2238TIP3    H230910   4.791   2.717  20.298  2.7760 -2.4159  1.3240
 2239TIP3   OH230911   6.173   3.519  20.741  0.3935 -0.3162 -0.1154
 2239TIP3    H130912   6.181   3.598  20.795 -1.4528 -0.4552  0.4508
 2239TIP3    H230913   6.263   3.489  20.729  0.9125 -0.8607  3.7753
 2240TIP3   OH230914   0.043   5.883  19.199 -0.0391  0.4687 -0.1053
 2240TIP3    H130915   0.041   5.790  19.177 -1.5008  0.7560 -1.3149
 2240TIP3    H230916   0.129   5.913  19.171 -0.3319 -0.0811 -1.6478
 2241TIP3   OH230917   3.213   2.146  19.344  0.5325 -0.5587 -0.3639
 2241TIP3    H130918   3.229   2.060  19.383  3.1928 -0.1113 -0.2282
 2241TIP3    H230919   3.254   2.142  19.258  0.6907  0.5613 -0.3572
 2242TIP3   OH230920   4.721   1.753  18.209 -0.3738 -0.0493 -0.6749
 2242TIP3    H130921   4.713   1.741  18.303 -1.1761 -0.3250 -0.7780
 2242TIP3    H230922   4.802   1.707  18.186 -1.0922 -1.5183 -0.3831
 2243TIP3   OH230923   4.522   4.357  19.663  0.3008  0.3711  0.1280
 2243TIP3    H130924   4.486   4.273  19.634  1.1201  0.2706 -0.6436
 2243TIP3    H230925   4.595   4.333  19.721 -0.0924  0.5605  0.7031
 2244TIP3   OH230926   2.922   0.647  19.568 -0.2785 -0.6601  0.1428
 2244TIP3    H130927   2.961   0.654  19.655 -0.7852 -0.5217  0.3667
 2244TIP3    H230928   2.828   0.653  19.584 -0.3341  1.8671 -0.6212
 2245TIP3   OH230929   6.084   5.964  20.631  0.0374  0.5069  0.0010
 2245TIP3    H130930   5.992   5.985  20.613 -0.4579 -0.7046  0.9383
 2245TIP3    H230931   6.126   5.965  20.545 -0.8506  1.0711 -0.4445
 2246TIP3   OH230932   0.126   6.646  20.390  0.8390 -0.4190 -0.2918
 2246TIP3    H130933   0.175   6.595  20.326 -0.2763 -0.8021 -0.8580
 2246TIP3    H230934   0.035   6.619  20.379  0.3776  0.8430  0.1934
 2247TIP3   OH230935   4.749   3.194  18.405 -0.5995  0.1758  0.3743
 2247TIP3    H130936   4.816   3.205  18.338 -0.2462 -0.0614  0.6794
 2247TIP3    H230937   4.699   3.276  18.404 -0.6510  0.1380 -0.2275
 2248TIP3   OH230938   4.247   4.955  18.100  0.1996  0.2733 -0.4710
 2248TIP3    H130939   4.169   4.935  18.153  1.2896 -0.3921  0.9397
 2248TIP3    H230940   4.243   4.892  18.028 -0.3292 -0.0389 -0.1792
 2249TIP3   OH230941   3.523   5.031  19.289 -0.1960  0.4722 -0.5515
 2249TIP3    H130942   3.515   5.119  19.252 -0.7297  0.6498 -0.0215
 2249TIP3    H230943   3.604   5.033  19.340 -0.7101  0.9516  0.2538
 2250TIP3   OH230944   4.132   0.532  19.807  0.1326 -0.3701  0.2339
 2250TIP3    H130945   4.153   0.449  19.850  1.2076  0.1062  0.6595
 2250TIP3    H230946   4.157   0.599  19.871  0.1905  0.3040 -0.4864
 2251TIP3   OH230947   2.965   4.940  18.350  0.4858 -0.3556 -0.0199
 2251TIP3    H130948   2.950   4.852  18.385  0.6724 -0.8383 -1.1087
 2251TIP3    H230949   2.878   4.980  18.348  0.3273 -0.6927  0.0267
 2252TIP3   OH230950   3.671   0.219  18.236 -0.1009  0.3825 -0.2192
 2252TIP3    H130951   3.712   0.240  18.152 -2.3425 -0.4536 -1.6106
 2252TIP3    H230952   3.658   0.304  18.279  0.4941  0.8771 -1.0069
 2253TIP3   OH230953   3.869   4.924  18.543  0.1166  0.4374 -0.1523
 2253TIP3    H130954   3.936   4.872  18.498  0.5906  0.6191  0.3300
 2253TIP3    H230955   3.787   4.898  18.503  0.6063  1.2789 -1.7888
 2254TIP3   OH230956   1.549   1.524  18.093  0.3554 -0.0458 -0.1735
 2254TIP3    H130957   1.464   1.554  18.062  0.6521  0.4621 -0.4995
 2254TIP3    H230958   1.601   1.514  18.014  1.6549  2.8684  0.2046
 2255TIP3   OH230959   1.129   4.589  19.024  0.3041 -0.4128  0.6465
 2255TIP3    H130960   1.214   4.546  19.023  1.2435  1.2857 -1.2223
 2255TIP3    H230961   1.092   4.570  18.938 -0.0477  0.9263  0.4791
 2256TIP3   OH230962   5.252   1.230  19.474 -0.6051 -0.2068 -0.4013
 2256TIP3    H130963   5.325   1.258  19.418  1.7553 -0.4356  2.2750
 2256TIP3    H230964   5.181   1.291  19.454  0.5896  0.5951 -2.5320
 2257TIP3   OH230965   0.575   0.800  17.629 -0.0850  0.3892 -0.3951
 2257TIP3    H130966   0.626   0.732  17.586 -0.8867  0.1196 -0.9499
 2257TIP3    H230967   0.540   0.852  17.556  0.0917  1.0791  0.0050
 2258TIP3   OH230968   2.913   2.509  19.460 -0.7154 -0.3526  0.4612
 2258TIP3    H130969   2.879   2.597  19.481  0.0231 -0.2718  1.3576
 2258TIP3    H230970   2.999   2.525  19.422 -0.4942 -0.7025  0.8175
 2259TIP3   OH230971   3.064   6.659  18.320 -0.3482 -0.5875  0.0785
 2259TIP3    H130972   3.092   6.571  18.296 -0.0552 -0.3171 -0.5969
 2259TIP3    H230973   3.045   6.654  18.414  3.0940 -0.4939  0.8868
 2260TIP3   OH230974   0.588   4.052  17.781 -0.1981 -0.0364 -0.5398
 2260TIP3    H130975   0.619   4.037  17.870 -2.5684 -0.9650  0.2041
 2260TIP3    H230976   0.620   3.977  17.731  0.8199  0.2989 -0.4102
 2261TIP3   OH230977   4.210   4.292  20.695 -0.2030  0.0248 -0.5785
 2261TIP3    H130978   4.301   4.322  20.694 -0.4539  0.8102 -2.1466
 2261TIP3    H230979   4.158   4.371  20.679 -1.1666 -0.4637  0.0197
 2262TIP3   OH230980   4.022   1.438  20.032 -0.0594 -0.4083 -0.2444
 2262TIP3    H130981   3.984   1.368  19.979  0.5759 -1.1309  0.2406
 2262TIP3    H230982   3.949   1.473  20.082 -0.5462 -0.1379 -1.1243
 2263TIP3   OH230983   5.303   0.593  18.903 -0.6847  0.6551 -0.3723
 2263TIP3    H130984   5.287   0.499  18.902 -0.3737  0.5993 -1.1231
 2263TIP3    H230985   5.398   0.602  18.894 -0.7392  1.0407 -0.6151
 2264TIP3   OH230986   6.105   4.361  17.934 -0.2139  0.2606 -0.3789
 2264TIP3    H130987   6.158   4.437  17.910  1.4314 -0.5489  0.5106
 2264TIP3    H230988   6.106   4.361  18.030 -1.2989 -0.1563 -0.3546
 2265TIP3   OH230989   4.356   2.873  20.869 -0.0724 -0.1105  0.4179
 2265TIP3    H130990   4.350   2.968  20.864 -0.3584 -0.1167  0.6340
 2265TIP3    H230991   4.450   2.856  20.875  0.1177  0.0522 -1.4964
 2266TIP3   OH230992   6.633   2.358  18.064 -0.1363  0.2154 -0.2097
 2266TIP3    H130993   6.544   2.393  18.064 -0.1800  0.1062 -0.1771
 2266TIP3    H230994   6.683   2.418  18.009 -0.2708  0.1740 -0.3796
 2267TIP3   OH230995   6.304   0.540  17.606 -0.1625 -0.3680 -0.2248
 2267TIP3    H130996   6.295   0.601  17.534  0.0606 -0.9209 -0.7309
 2267TIP3    H230997   6.286   0.592  17.685 -1.9407 -0.1163 -0.7694
 2268TIP3   OH230998   2.412   1.747  18.771  0.4274 -0.1294  0.1238
 2268TIP3    H130999   2.435   1.819  18.829 -1.9669  0.0679  0.9468
 2268TIP3    H231000   2.386   1.788  18.689  1.0189 -0.2018 -0.1000
 2269TIP3   OH231001   6.405   1.844  17.531  0.5320 -0.0168  0.4442
 2269TIP3    H131002   6.315   1.814  17.546 -0.3278  1.7968 -0.7091
 2269TIP3    H231003   6.426   1.813  17.442  0.5257  0.6977  0.1875
 2270TIP3   OH231004   0.245   1.137  20.228  0.1227  0.2341  0.1220
 2270TIP3    H131005   0.174   1.098  20.177 -0.6386  1.8540 -0.1157
 2270TIP3    H231006   0.302   1.063  20.250 -1.4696 -1.0631  0.0577
 2271TIP3   OH231007   3.810   1.736  19.537 -0.3788  0.7206  0.3407
 2271TIP3    H131008   3.722   1.770  19.526 -1.2095 -1.3431  0.1388
 2271TIP3    H231009   3.802   1.641  19.523  1.5667  0.2400  1.9225
 2272TIP3   OH231010   0.281   1.824  18.774 -0.0613  0.1777 -0.2688
 2272TIP3    H131011   0.310   1.910  18.744 -1.5485  0.8747  0.1969
 2272TIP3    H231012   0.186   1.829  18.773 -0.1825 -0.7468  1.8022
 2273TIP3   OH231013   2.923   5.362  18.340  0.3373 -0.4574 -0.1401
 2273TIP3    H131014   2.895   5.439  18.389  0.5150 -0.4912  0.0184
 2273TIP3    H231015   2.953   5.300  18.407  1.2337 -0.2407 -0.3204
 2274TIP3   OH231016   1.845   6.482  19.248 -0.0978 -0.4933  0.1449
 2274TIP3    H131017   1.790   6.459  19.322  1.0018 -0.1642  1.0918
 2274TIP3    H231018   1.847   6.578  19.249  0.6576 -0.5038  0.2600
 2275TIP3   OH231019   4.155   3.379  18.439  0.0651 -0.6147  0.0975
 2275TIP3    H131020   4.170   3.442  18.369 -0.4671  1.0476  1.4094
 2275TIP3    H231021   4.141   3.296  18.394  0.0857  0.3282 -1.7320
 2276TIP3   OH231022   5.043   2.414  19.332 -0.4429 -0.5605 -0.1012
 2276TIP3    H131023   5.120   2.365  19.361 -0.8162 -0.5951  0.8944
 2276TIP3    H231024   4.984   2.347  19.297 -0.7680 -0.7835  0.8471
 2277TIP3   OH231025   0.297   5.525  19.966  0.0142 -0.8469 -0.0919
 2277TIP3    H131026   0.288   5.536  19.872 -1.2646 -1.6878 -0.0816
 2277TIP3    H231027   0.268   5.609  20.003 -0.6635 -0.9339 -0.4096
 2278TIP3   OH231028   0.882   5.767  19.984  0.1556  0.5367  0.2737
 2278TIP3    H131029   0.910   5.678  20.005  0.4765  0.6226  0.2133
 2278TIP3    H231030   0.912   5.820  20.057  3.2523  1.2171 -1.3096
 2279TIP3   OH231031   4.380   2.508  20.702  0.1631 -0.2674  0.4755
 2279TIP3    H131032   4.411   2.553  20.623 -2.1569  1.2093  0.2860
 2279TIP3    H231033   4.418   2.420  20.696  4.2505  1.2715  0.4130
 2280TIP3   OH231034   0.423   5.882  18.834  0.8251  0.0009 -0.3597
 2280TIP3    H131035   0.435   5.788  18.821 -0.2452 -0.2094  0.0730
 2280TIP3    H231036   0.386   5.890  18.922 -0.8202  0.6738 -1.0759
 2281TIP3   OH231037   1.056   5.941  19.006 -0.8199  0.3959 -0.2759
 2281TIP3    H131038   1.081   6.014  19.062  3.5249 -0.7683 -0.3380
 2281TIP3    H231039   1.081   5.969  18.918 -0.1841 -0.6637 -0.4529
 2282TIP3   OH231040   6.128   4.455  19.559  0.4848  0.6399  0.0505
 2282TIP3    H131041   6.043   4.468  19.518 -1.2165 -0.4973  2.9202
 2282TIP3    H231042   6.177   4.402  19.497 -1.0980  0.8450 -1.4320
 2283TIP3   OH231043   2.182   3.224  19.506  0.1310 -0.4914  0.1032
 2283TIP3    H131044   2.231   3.301  19.478  0.0218 -1.3026 -2.5650
 2283TIP3    H231045   2.247   3.168  19.549  0.7530 -0.0390 -0.2327
 2284TIP3   OH231046   2.019   5.185  18.377  0.2239 -0.2791 -0.7756
 2284TIP3    H131047   2.045   5.253  18.316 -0.6722  0.3513 -0.4756
 2284TIP3    H231048   1.972   5.121  18.323  1.3448 -0.8523 -1.1141
 2285TIP3   OH231049   3.823   2.646  20.121 -0.1604  0.0387 -0.0355
 2285TIP3    H131050   3.739   2.662  20.164 -0.2174 -0.3500 -0.0012
 2285TIP3    H231051   3.812   2.683  20.033  0.7594  3.0194  0.9898
 2286TIP3   OH231052   3.735   5.931  20.118  0.0365  0.2193 -0.0589
 2286TIP3    H131053   3.746   5.847  20.161 -1.9822 -0.5735 -0.9565
 2286TIP3    H231054   3.762   5.995  20.183 -0.2646 -1.0423  1.3613
 2287TIP3   OH231055   1.914   2.855  20.599 -0.2791  0.5038  0.2820
 2287TIP3    H131056   1.839   2.826  20.652 -1.5458 -2.3074 -2.6657
 2287TIP3    H231057   1.873   2.900  20.524  1.0792  0.2768 -0.6196
 2288TIP3   OH231058   2.218   5.533  19.957  0.3673  0.7018  0.2322
 2288TIP3    H131059   2.279   5.604  19.938  0.5244  0.5570  0.1908
 2288TIP3    H231060   2.266   5.454  19.935 -0.2682  0.6286 -0.9798
 2289TIP3   OH231061   5.216   5.949  18.625 -0.0602 -0.2674  0.3801
 2289TIP3    H131062   5.296   5.921  18.579 -0.5651  1.4263 -1.6820
 2289TIP3    H231063   5.247   5.975  18.712  1.4854 -0.5328 -0.0481
 2290TIP3   OH231064   1.394   3.685  19.997 -0.3788  0.3931  0.0486
 2290TIP3    H131065   1.428   3.595  19.995 -1.2820  0.0591 -1.3285
 2290TIP3    H231066   1.426   3.725  19.916 -0.4923  1.1349  0.3579
 2291TIP3   OH231067   1.513   3.275  19.196 -0.4060 -0.2511 -0.5144
 2291TIP3    H131068   1.525   3.370  19.190  0.0253 -0.0413  2.3057
 2291TIP3    H231069   1.474   3.261  19.283  0.8478 -2.7577 -0.2651
 2292TIP3   OH231070   0.450   3.774  17.886 -0.3759  0.7222 -0.0698
 2292TIP3    H131071   0.535   3.788  17.846 -0.0516  0.6475  0.5758
 2292TIP3    H231072   0.466   3.709  17.954 -0.7171  1.5324  0.8079
 2293TIP3   OH231073   0.996   0.188  19.536 -0.3387 -0.5114 -0.4571
 2293TIP3    H131074   1.061   0.178  19.606  1.0050  0.1828 -1.5413
 2293TIP3    H231075   0.915   0.210  19.581  0.2361 -1.1209  0.9336
 2294TIP3   OH231076   5.680   5.119  17.856  0.1330 -0.3132  0.0949
 2294TIP3    H131077   5.664   5.063  17.932  1.4970  0.3440  0.9199
 2294TIP3    H231078   5.608   5.181  17.856 -0.1271 -0.6118  0.5848
 2295TIP3   OH231079   0.878   3.223  18.643  0.8687 -0.0221  0.4986
 2295TIP3    H131080   0.858   3.208  18.735 -0.9834 -0.4618  0.0696
 2295TIP3    H231081   0.815   3.290  18.615 -0.4250 -1.7385 -1.0266
 2296TIP3   OH231082   3.026   0.514  19.829 -0.2591 -0.9435  0.4519
 2296TIP3    H131083   3.055   0.501  19.919 -1.9436 -1.3941  0.9630
 2296TIP3    H231084   3.067   0.442  19.780  0.6832 -0.6770  0.8273
 2297TIP3   OH231085   6.254   5.098  19.042 -0.4453  0.3367 -0.0237
 2297TIP3    H131086   6.214   5.075  18.958  1.4205  3.6822 -2.0736
 2297TIP3    H231087   6.346   5.070  19.033  0.3071  2.6276 -0.0881
 2298TIP3   OH231088   6.655   4.219  18.896 -0.1224 -0.3067 -0.4754
 2298TIP3    H131089   6.580   4.258  18.852 -0.1683  1.6411  1.1945
 2298TIP3    H231090   6.622   4.191  18.981  0.2990 -2.6571 -1.0169
 2299TIP3   OH231091   3.033   0.761  19.344 -0.3922 -0.3971 -0.2775
 2299TIP3    H131092   3.093   0.827  19.378 -1.4660  0.6886 -0.3868
 2299TIP3    H231093   2.992   0.723  19.421  0.4331 -1.1651 -0.2006
 2300TIP3   OH231094   5.166   1.273  18.211 -0.5857  0.4807  0.2313
 2300TIP3    H131095   5.205   1.191  18.244 -0.4001  1.3993  2.4616
 2300TIP3    H231096   5.239   1.319  18.169 -0.5450 -0.1797 -0.4473
 2301TIP3   OH231097   5.067   1.385  20.371  0.6504 -0.3206  0.7327
 2301TIP3    H131098   4.976   1.364  20.347  0.3748 -0.6579  2.0214
 2301TIP3    H231099   5.099   1.439  20.298 -0.6609  0.0240  0.3876
 2302TIP3   OH231100   5.863   2.615  20.322 -0.2326  0.3879 -0.1372
 2302TIP3    H131101   5.939   2.590  20.373  0.3234 -0.3529 -1.2900
 2302TIP3    H231102   5.807   2.537  20.322 -0.0167  0.2156 -0.9995
 2303TIP3   OH231103   3.281   2.297  18.018 -0.0653  0.4835  0.4246
 2303TIP3    H131104   3.328   2.227  17.973  0.2043  0.7121  0.3457
 2303TIP3    H231105   3.342   2.371  18.017 -1.1837  1.4757 -1.5706
 2304TIP3   OH231106   1.553   6.088  20.419  0.4618  0.0855  0.2592
 2304TIP3    H131107   1.572   6.145  20.345 -1.0312  0.5712  0.2219
 2304TIP3    H231108   1.468   6.049  20.399  0.1346  0.0460  1.6002
 2305TIP3   OH231109   5.985   1.780  20.405  0.0373 -0.2750 -0.1814
 2305TIP3    H131110   5.908   1.780  20.462  0.8362 -2.1133  1.0169
 2305TIP3    H231111   5.950   1.776  20.316 -1.2242  0.5975  0.2365
 2306TIP3   OH231112   0.635   3.838  19.287 -0.7331  0.1005 -0.0666
 2306TIP3    H131113   0.717   3.869  19.247 -0.6081  0.0942  0.1844
 2306TIP3    H231114   0.566   3.877  19.233 -0.5711 -1.3173 -1.3834
 2307TIP3   OH231115   1.679   4.376  20.745  0.1955  0.2632  0.2685
 2307TIP3    H131116   1.629   4.404  20.822  0.5953 -0.2152  0.7205
 2307TIP3    H231117   1.713   4.289  20.770  3.2086  1.5017  0.9704
 2308TIP3   OH231118   0.875   2.537  17.261 -0.3623 -0.0864 -0.0660
 2308TIP3    H131119   0.950   2.573  17.307 -0.8907  3.1838 -1.5289
 2308TIP3    H231120   0.895   2.549  17.169 -2.1762 -0.2310 -0.5143
 2309TIP3   OH231121   1.134   3.781  18.862  0.3110 -0.7017  0.2989
 2309TIP3    H131122   1.085   3.756  18.940 -2.0306 -3.0021 -1.7379
 2309TIP3    H231123   1.167   3.699  18.826  0.2207  0.1075 -1.8094
 2310TIP3   OH231124   5.861   1.983  20.696 -0.0313  0.4924  0.0318
 2310TIP3    H131125   5.856   1.962  20.603 -1.4177 -2.4990  0.6732
 2310TIP3    H231126   5.949   2.017  20.708  1.3584 -2.0783 -1.8967
 2311TIP3   OH231127   1.446   5.347  18.733 -0.0545  0.0327  0.1552
 2311TIP3    H131128   1.432   5.270  18.788  0.9878 -0.3181 -0.0648
 2311TIP3    H231129   1.486   5.412  18.791  1.9960 -0.6828 -0.3899
 2312TIP3   OH231130   0.876   3.610  18.050  0.8421  0.2750  0.2274
 2312TIP3    H131131   0.945   3.604  17.983  0.4826 -2.1400  0.0016
 2312TIP3    H231132   0.921   3.645  18.127  2.0837 -0.1955 -0.2472
 2313TIP3   OH231133   0.100   3.107  18.501 -0.8258 -0.2432 -0.3090
 2313TIP3    H131134   0.095   3.046  18.427 -0.5937 -1.0028  0.2905
 2313TIP3    H231135   0.194   3.116  18.518 -0.8266  0.7497 -0.7629
 2314TIP3   OH231136   0.680   3.125  19.210 -0.2161  0.2242  0.0944
 2314TIP3    H131137   0.739   3.077  19.152  0.9736  0.3756  1.1419
 2314TIP3    H231138   0.683   3.077  19.292  0.4413  1.6649  0.9424
 2315TIP3   OH231139   0.724   4.199  20.790 -0.4090  0.0226  0.2315
 2315TIP3    H131140   0.753   4.182  20.700 -0.9727 -0.6422  0.1631
 2315TIP3    H231141   0.676   4.281  20.785  0.2968  0.4388  0.0960
 2316TIP3   OH231142   5.896   3.348  19.109 -0.0466 -0.3940 -0.3834
 2316TIP3    H131143   5.827   3.282  19.114  0.4910 -0.9837 -0.7053
 2316TIP3    H231144   5.849   3.432  19.113 -0.5787 -0.7393  2.3460
 2317TIP3   OH231145   0.755   2.548  19.706 -0.5551 -0.0139  0.3242
 2317TIP3    H131146   0.759   2.644  19.704 -0.0054 -0.0364 -0.0507
 2317TIP3    H231147   0.840   2.522  19.741  0.2722 -0.4148 -1.8431
 2318TIP3   OH231148   1.663   2.578  19.087  0.3399  0.3729  0.2057
 2318TIP3    H131149   1.622   2.535  19.163  2.8066 -1.3570  0.6749
 2318TIP3    H231150   1.622   2.664  19.083 -3.6786 -1.3022  0.2631
 2319TIP3   OH231151   3.499   2.776  19.669 -0.9492  0.5869  0.2674
 2319TIP3    H131152   3.525   2.852  19.617  0.2157 -0.2679 -0.4249
 2319TIP3    H231153   3.570   2.713  19.658 -1.8410 -0.5759  0.9217
 2320TIP3   OH231154   3.501   0.018  18.607 -0.3216  0.3947 -0.2958
 2320TIP3    H131155   3.416  -0.025  18.594 -0.6650  1.3227 -1.2057
 2320TIP3    H231156   3.554  -0.010  18.533 -0.3307  0.9864 -0.5351
 2321TIP3   OH231157   1.985   5.488  18.426  0.1324 -0.5351 -0.0598
 2321TIP3    H131158   2.061   5.453  18.381  0.9407 -0.0768  0.9268
 2321TIP3    H231159   2.002   5.473  18.519  0.2547  1.9044  0.3834
 2322TIP3   OH231160   4.850   2.592  18.999  0.0191 -0.2748 -0.2747
 2322TIP3    H131161   4.781   2.597  18.934 -0.2265 -2.2275 -0.2277
 2322TIP3    H231162   4.812   2.542  19.071  0.7514  0.5990  0.7580
 2323TIP3   OH231163   4.114   2.125  17.599 -0.0705 -0.3218 -0.6525
 2323TIP3    H131164   4.091   2.033  17.609  0.3132 -0.2378  1.4517
 2323TIP3    H231165   4.124   2.138  17.504  0.9471 -2.6980 -0.9293
 2324TIP3   OH231166   4.264   0.125  19.798 -0.4271 -0.1825 -0.4633
 2324TIP3    H131167   4.176   0.091  19.779 -0.1727 -1.6343  0.7972
 2324TIP3    H231168   4.258   0.157  19.888  0.1773  0.3088 -0.5921
 2325TIP3   OH231169   3.962   0.881  19.296 -0.6442 -0.3308  0.4486
 2325TIP3    H131170   3.940   0.899  19.387 -2.1610  0.6357 -0.0651
 2325TIP3    H231171   4.018   0.954  19.270  0.4629 -1.0309  0.8130
 2326TIP3   OH231172   6.446   0.440  19.518  0.3474 -0.4815  0.1400
 2326TIP3    H131173   6.515   0.400  19.464 -0.6837 -0.3743 -1.3094
 2326TIP3    H231174   6.372   0.380  19.511 -0.7455  0.9166 -0.9130
 2327TIP3   OH231175   4.660   0.057  20.074 -0.1000  0.3811  0.1225
 2327TIP3    H131176   4.618   0.106  20.003 -0.1875 -1.0261 -0.8432
 2327TIP3    H231177   4.631   0.101  20.154 -0.2282  1.8366 -0.6944
 2328TIP3   OH231178   3.844   0.264  18.027  0.4364 -0.3934 -0.5705
 2328TIP3    H131179   3.921   0.269  18.085 -0.7529  1.3075  0.9939
 2328TIP3    H231180   3.854   0.339  17.968 -0.6731  0.7685  0.6249
 2329TIP3   OH231181   0.719   3.638  18.537 -0.2917 -0.1280 -0.0156
 2329TIP3    H131182   0.808   3.657  18.568 -1.2405  0.1894  2.6942
 2329TIP3    H231183   0.712   3.542  18.543 -0.5878 -0.0413  1.1526
 2330TIP3   OH231184   3.303   3.313  17.384  0.1699  0.2288 -0.6884
 2330TIP3    H131185   3.215   3.276  17.394  0.8122 -0.8076  2.1335
 2330TIP3    H231186   3.342   3.263  17.311 -0.5860 -1.4744  0.0134
 2331TIP3   OH231187   1.198   5.484  17.661 -0.2985 -0.6375 -0.2599
 2331TIP3    H131188   1.201   5.417  17.592  1.9002  1.2322 -2.1750
 2331TIP3    H231189   1.211   5.436  17.742 -2.7129 -2.9241 -1.0686
 2332TIP3   OH231190   0.325   4.009  20.391  0.1917 -0.6733  0.0551
 2332TIP3    H131191   0.297   3.991  20.481  1.8968  2.0822  1.3046
 2332TIP3    H231192   0.407   3.960  20.381 -0.0777 -1.1036 -0.0739
 2333TIP3   OH231193   0.427   1.849  20.129  0.0941 -0.0452  0.3178
 2333TIP3    H131194   0.470   1.934  20.117  0.1314 -0.2203 -0.9446
 2333TIP3    H231195   0.455   1.820  20.216 -1.0576  1.8568  1.3888
 2334TIP3   OH231196   5.052   1.900  19.764  0.4256  0.7310  0.1053
 2334TIP3    H131197   4.989   1.948  19.818 -0.3552  0.0456 -0.1869
 2334TIP3    H231198   4.999   1.839  19.713  1.4590 -1.0747  1.0966
 2335TIP3   OH231199   0.472   6.180  18.821 -0.2107  0.0064 -0.1661
 2335TIP3    H131200   0.426   6.096  18.822 -0.5053  0.1363 -1.5834
 2335TIP3    H231201   0.407   6.243  18.789  0.6420  0.3704 -1.2401
 2336TIP3   OH231202   3.504   2.087  18.519  0.0118 -0.0121 -0.1427
 2336TIP3    H131203   3.511   1.995  18.547  0.8888  0.0298 -0.1763
 2336TIP3    H231204   3.430   2.122  18.568 -0.3716 -0.7530 -0.1723
 2337TIP3   OH231205   2.808   5.694  19.476  0.0076 -0.2312  0.1860
 2337TIP3    H131206   2.777   5.661  19.392 -2.6280  0.9564  0.5950
 2337TIP3    H231207   2.846   5.617  19.519  1.1777 -0.9211 -1.9125
 2338TIP3   OH231208   1.166   1.398  18.260  0.1654  0.3595  0.2449
 2338TIP3    H131209   1.118   1.394  18.178 -0.3906 -0.1033  0.5839
 2338TIP3    H231210   1.256   1.377  18.236  0.0878  0.6230 -0.3025
 2339TIP3   OH231211   6.346   2.596  19.640  0.0804 -0.0227 -0.0379
 2339TIP3    H131212   6.308   2.628  19.722  0.5663 -1.1254  0.6365
 2339TIP3    H231213   6.348   2.673  19.583 -0.9208  0.6021  0.7337
 2340TIP3   OH231214   5.017   3.865  20.348 -0.0502  0.2990 -0.3096
 2340TIP3    H131215   4.991   3.944  20.395  1.0683  0.7095 -0.3511
 2340TIP3    H231216   4.953   3.857  20.277 -0.4319  0.9245 -0.0393
 2341TIP3   OH231217   3.560   3.341  17.489  0.0731  0.5837 -0.3162
 2341TIP3    H131218   3.475   3.331  17.446  0.3224  0.1725 -0.7268
 2341TIP3    H231219   3.571   3.260  17.538  1.0067 -0.1702 -1.6835
 2342TIP3   OH231220   0.797   5.873  18.236 -0.0102  0.4512  0.0175
 2342TIP3    H131221   0.788   5.806  18.304  0.0976 -0.6371 -1.0014
 2342TIP3    H231222   0.845   5.829  18.165 -1.8687  0.8674 -1.6012
 2343TIP3   OH231223   0.952   4.669  20.499  0.6923 -0.4053 -0.5003
 2343TIP3    H131224   1.030   4.656  20.445  1.1574 -0.6027  0.2052
 2343TIP3    H231225   0.941   4.586  20.546  0.3119 -0.2293 -0.2701
 2344TIP3   OH231226   0.211   0.016  19.859 -0.1443  0.2063 -0.0702
 2344TIP3    H131227   0.215   0.065  19.777 -1.2864  0.1943 -0.1444
 2344TIP3    H231228   0.261  -0.064  19.841 -1.0399 -0.1658 -1.0371
 2345TIP3   OH231229   2.139   0.368  17.840  0.6024  0.3320 -0.1724
 2345TIP3    H131230   2.170   0.278  17.841  2.9335  1.0668 -0.3318
 2345TIP3    H231231   2.054   0.365  17.885  1.4618 -1.6532  1.4546
 2346TIP3   OH231232   0.620   3.648  19.065 -0.0436 -0.2923  0.6194
 2346TIP3    H131233   0.679   3.574  19.050 -0.6689 -0.9559  1.3477
 2346TIP3    H231234   0.532   3.610  19.059 -0.3621 -0.0268  2.9598
 2347TIP3   OH231235   2.395   1.412  20.525  0.6934 -0.2109  0.8571
 2347TIP3    H131236   2.422   1.330  20.484  1.7902  0.6346 -0.1776
 2347TIP3    H231237   2.395   1.476  20.453 -0.7779  0.5737  1.5118
 2348TIP3   OH231238   0.324   2.970  19.387  0.0387  0.4479 -0.3115
 2348TIP3    H131239   0.330   3.017  19.304  2.5931  0.6495 -0.1128
 2348TIP3    H231240   0.301   3.036  19.451 -0.3111  0.6179 -0.6088
 2349TIP3   OH231241   3.595   5.752  18.113 -0.5103 -0.2943  0.4202
 2349TIP3    H131242   3.632   5.688  18.173  0.0485 -0.8168 -0.4446
 2349TIP3    H231243   3.606   5.836  18.157  1.5302 -0.4568  0.3099
 2350TIP3   OH231244   2.742   0.538  18.052 -0.1406  0.0491  0.1878
 2350TIP3    H131245   2.829   0.576  18.042  0.0536 -0.5429 -0.4875
 2350TIP3    H231246   2.701   0.589  18.121 -0.2678  2.1601 -1.3535
 2351TIP3   OH231247   3.757   0.855  20.739  0.1995  0.0839  0.2943
 2351TIP3    H131248   3.710   0.938  20.745  0.5940  0.5304 -1.9335
 2351TIP3    H231249   3.830   0.865  20.800  1.5734  2.3774 -1.5204
 2352TIP3   OH231250   3.204   1.691  20.687  0.1300 -0.0414 -0.0847
 2352TIP3    H131251   3.123   1.737  20.666  0.4426  0.0768 -1.0550
 2352TIP3    H231252   3.185   1.599  20.669 -0.3295 -0.2487  1.3562
 2353TIP3   OH231253   2.738   1.211  19.921 -0.1630  0.4503 -0.4640
 2353TIP3    H131254   2.651   1.190  19.956  1.1527 -0.8120  2.3561
 2353TIP3    H231255   2.761   1.294  19.963 -0.2653  1.2168 -1.8493
 2354TIP3   OH231256   5.081   3.317  19.279  0.0744 -0.7407  0.8174
 2354TIP3    H131257   5.167   3.317  19.321  0.8905 -2.5453 -0.6794
 2354TIP3    H231258   5.089   3.379  19.207 -0.0225 -0.5959  0.9305
 2355TIP3   OH231259   0.234   3.042  19.012 -0.2162 -0.0683  0.1654
 2355TIP3    H131260   0.302   3.076  19.070 -0.0922 -0.0361  0.0004
 2355TIP3    H231261   0.279   2.978  18.957 -0.8188 -1.9855  1.7762
 2356TIP3   OH231262   1.090   4.537  17.984  0.0679  0.3301  0.0219
 2356TIP3    H131263   1.067   4.453  17.944 -2.2531  0.0912  1.6892
 2356TIP3    H231264   1.133   4.585  17.913 -0.7286 -1.3365 -1.6997
 2357TIP3   OH231265   3.876   1.763  19.803 -0.2265  0.4394  0.1165
 2357TIP3    H131266   3.873   1.858  19.809  1.4067  0.5809 -0.6053
 2357TIP3    H231267   3.876   1.745  19.709 -3.8557 -0.5095  0.1344
 2358TIP3   OH231268   1.722   4.297  17.323  0.1208  0.0484  0.6443
 2358TIP3    H131269   1.651   4.242  17.290  1.4608 -1.6574  0.5278
 2358TIP3    H231270   1.757   4.340  17.245 -0.3012  0.3547  0.6156
 2359TIP3   OH231271   1.696   0.942  17.184 -0.5486 -0.1662  0.2445
 2359TIP3    H131272   1.776   0.906  17.220  0.1147  0.1792 -0.8384
 2359TIP3    H231273   1.627   0.915  17.245  0.2407 -1.3216  0.6476
 2360TIP3   OH231274   3.245   4.167  19.404 -0.0998  0.1130 -0.2422
 2360TIP3    H131275   3.303   4.201  19.336 -1.5372  1.4943 -0.8426
 2360TIP3    H231276   3.269   4.217  19.482  0.2055 -0.0654 -0.2186
 2361TIP3   OH231277   6.651   1.411  20.354 -0.2907  0.3450 -0.0455
 2361TIP3    H131278   6.606   1.493  20.375 -0.1812  0.3284  0.2645
 2361TIP3    H231279   6.736   1.438  20.319 -0.0915  0.3612  0.4397
 2362TIP3   OH231280   6.587   1.733  17.744  0.2583  0.6156 -0.2203
 2362TIP3    H131281   6.517   1.770  17.690  0.2305  0.5411 -0.2354
 2362TIP3    H231282   6.658   1.713  17.682  0.7580  1.7993 -0.0536
 2363TIP3   OH231283   5.797   2.394  19.929 -0.1099 -0.2809  0.1163
 2363TIP3    H131284   5.824   2.330  19.995  2.9315 -0.0821 -0.7474
 2363TIP3    H231285   5.846   2.474  19.953  1.6002 -0.3808 -2.5842
 2364TIP3   OH231286   5.794   6.638  20.074  0.3635 -0.1984  0.0484
 2364TIP3    H131287   5.759   6.607  20.157  1.2522  0.0990  0.5469
 2364TIP3    H231288   5.829   6.559  20.032 -0.3696 -0.4014 -0.1973
 2365TIP3   OH231289   3.669   4.384  19.450  0.6478  0.2250 -0.1404
 2365TIP3    H131290   3.688   4.317  19.516  1.6375 -0.4048 -1.0203
 2365TIP3    H231291   3.624   4.336  19.380  0.1091  0.7679 -0.1705
 2366TIP3   OH231292   5.965   4.788  20.401  0.8361  0.1396  0.1818
 2366TIP3    H131293   5.876   4.814  20.375  0.4097 -0.9319  0.5038
 2366TIP3    H231294   5.971   4.696  20.376  1.9010  0.2194  0.0901
 2367TIP3   OH231295   5.091   4.177  17.887  0.4445  0.6515  0.5061
 2367TIP3    H131296   5.089   4.107  17.822  0.9403  1.0363  0.0632
 2367TIP3    H231297   5.175   4.221  17.872 -0.4624  2.2392 -0.1844
 2368TIP3   OH231298   4.724   1.077  19.732 -0.0890 -0.1438  0.1947
 2368TIP3    H131299   4.784   1.102  19.662 -0.5336 -0.4500 -0.3028
 2368TIP3    H231300   4.639   1.070  19.690 -0.3073 -0.6418  0.6975
 2369TIP3   OH231301   4.212   2.162  18.357 -0.1917  0.6313 -0.1344
 2369TIP3    H131302   4.201   2.072  18.388 -0.6599  0.7263 -0.0176
 2369TIP3    H231303   4.294   2.191  18.396 -0.4566  0.5339  0.5044
 2370TIP3   OH231304   3.710   2.581  18.027 -0.0016  0.4032  0.0332
 2370TIP3    H131305   3.792   2.544  18.061 -1.1552  0.0161  2.6756
 2370TIP3    H231306   3.707   2.669  18.063 -0.8596  0.3229  0.1641
 2371TIP3   OH231307   2.183   4.588  18.040 -0.5500  0.3289 -0.5774
 2371TIP3    H131308   2.226   4.520  18.092 -0.5216 -0.5349 -1.7119
 2371TIP3    H231309   2.245   4.662  18.043 -0.7666  0.4808  0.9899
 2372TIP3   OH231310   4.191   3.280  17.830 -0.0156 -0.0256 -0.6269
 2372TIP3    H131311   4.211   3.239  17.746  0.3008 -1.0772 -0.0703
 2372TIP3    H231312   4.200   3.208  17.894 -3.0385  0.0009 -0.0040
 2373TIP3   OH231313   6.330   4.894  19.950 -0.4068  0.1164 -0.1403
 2373TIP3    H131314   6.244   4.892  19.992 -0.7253 -1.4797 -0.7950
 2373TIP3    H231315   6.311   4.903  19.856  0.1066 -0.5626 -0.3211
 2374TIP3   OH231316   2.635   3.581  19.645  0.3008 -0.0683 -0.5048
 2374TIP3    H131317   2.605   3.490  19.639 -0.2181  0.1382 -1.2724
 2374TIP3    H231318   2.557   3.633  19.627  0.1019  0.6001  1.9640
 2375TIP3   OH231319   3.419   4.597  17.394  0.2394  0.2100  0.1083
 2375TIP3    H131320   3.362   4.648  17.452  1.7624  1.9244  0.1836
 2375TIP3    H231321   3.423   4.511  17.435 -1.4108  0.3706  0.6787
 2376TIP3   OH231322   2.943   3.655  20.674 -0.3422 -0.1194 -0.3850
 2376TIP3    H131323   2.980   3.641  20.587  0.2635 -1.9600  0.1282
 2376TIP3    H231324   3.018   3.646  20.733 -1.1305 -1.1933  0.4803
 2377TIP3   OH231325   6.138   3.464  17.300 -0.2085  0.7851 -0.1891
 2377TIP3    H131326   6.134   3.369  17.289  0.1364  0.9331 -1.8757
 2377TIP3    H231327   6.048   3.489  17.323 -0.5173  0.1488 -0.6828
 2378TIP3   OH231328   3.978   3.559  20.096 -0.0937 -0.1244  0.0494
 2378TIP3    H131329   3.932   3.483  20.059  0.0382 -0.9628  1.5464
 2378TIP3    H231330   4.056   3.523  20.138 -0.5915  0.6698  1.7580
 2379TIP3   OH231331   2.629   5.149  20.354  0.4053 -0.3665  0.0616
 2379TIP3    H131332   2.553   5.090  20.354  0.1406 -0.0463 -0.6874
 2379TIP3    H231333   2.702   5.095  20.325  0.3283 -0.5150  0.1454
 2380TIP3   OH231334   1.829   5.142  17.200 -0.1740 -0.3201 -0.8022
 2380TIP3    H131335   1.840   5.081  17.127 -1.1518 -1.2355 -0.2051
 2380TIP3    H231336   1.739   5.129  17.229 -0.8014  2.2688 -1.3902
 2381TIP3   OH231337   6.538   5.575  17.592  0.5927 -0.3900 -0.1224
 2381TIP3    H131338   6.592   5.616  17.659  0.0246 -1.5564  1.0994
 2381TIP3    H231339   6.449   5.604  17.610  0.6976  1.3567 -2.0000
 2382TIP3   OH231340   6.543   2.869  18.819 -0.0758  0.2894  0.2107
 2382TIP3    H131341   6.454   2.893  18.793 -0.2648 -0.2881  0.3025
 2382TIP3    H231342   6.590   2.952  18.826 -0.5265  0.5762 -0.1365
 2383TIP3   OH231343   3.152   6.368  20.718  0.2437  0.1584  0.3729
 2383TIP3    H131344   3.124   6.279  20.695  1.1107 -0.2394  0.8221
 2383TIP3    H231345   3.073   6.410  20.752 -0.1938 -0.4010  0.0683
 2384TIP3   OH231346   0.530   1.497  20.613 -0.9294  0.6522 -0.1294
 2384TIP3    H131347   0.472   1.565  20.647 -1.9762 -0.0286 -0.5134
 2384TIP3    H231348   0.497   1.479  20.525  0.0777  0.4903 -0.4802
 2385TIP3   OH231349   4.195   1.694  19.582  0.0663 -0.4508 -0.1354
 2385TIP3    H131350   4.182   1.677  19.675  0.8134 -0.1650  0.0354
 2385TIP3    H231351   4.243   1.618  19.550 -0.1108 -0.5078 -0.2649
 2386TIP3   OH231352   5.925   3.893  18.708  0.2451  0.1870 -0.3103
 2386TIP3    H131353   5.916   3.971  18.654  2.2767  1.5130  1.1371
 2386TIP3    H231354   5.899   3.921  18.796  2.1713 -0.3380  0.4921
 2387TIP3   OH231355   0.880   6.123  19.656 -0.2885 -0.1629  0.0827
 2387TIP3    H131356   0.801   6.168  19.625 -0.6130 -0.4889  0.4412
 2387TIP3    H231357   0.850   6.038  19.686  0.2394 -0.3879 -0.0130
 2388TIP3   OH231358   0.089   3.163  20.763 -0.0484  0.3764  0.2247
 2388TIP3    H131359   0.172   3.188  20.722  0.8560 -0.1297  1.6492
 2388TIP3    H231360   0.086   3.213  20.844 -1.2582  0.5503  0.0854
 2389TIP3   OH231361   3.318   4.675  18.561 -0.0394 -0.5110 -0.0028
 2389TIP3    H131362   3.328   4.674  18.656 -0.3840 -1.1150  0.0290
 2389TIP3    H231363   3.393   4.726  18.530 -0.6656  0.8657  0.6652
 2390TIP3   OH231364   1.453   6.496  19.003  0.0970 -0.0264 -0.4613
 2390TIP3    H131365   1.548   6.482  19.009  0.0767 -0.6729 -1.4833
 2390TIP3    H231366   1.426   6.514  19.093  0.9400 -1.5898  0.1451
 2391TIP3   OH231367   0.270   2.332  20.413 -0.3140 -0.0873  0.0288
 2391TIP3    H131368   0.225   2.318  20.330  0.9523 -1.7740 -0.4536
 2391TIP3    H231369   0.349   2.380  20.390  0.1352 -0.7200  0.1987
 2392TIP3   OH231370   3.587   2.293  19.348  0.3918  0.2216 -0.2171
 2392TIP3    H131371   3.659   2.333  19.299 -1.0500  0.8434 -1.9464
 2392TIP3    H231372   3.509   2.340  19.319 -0.9230 -1.4159  0.4705
 2393TIP3   OH231373   0.429   5.434  17.891 -0.1614 -0.2193 -0.0719
 2393TIP3    H131374   0.397   5.348  17.862  0.9761 -0.4132 -0.8323
 2393TIP3    H231375   0.457   5.477  17.810 -0.5582  0.8075  0.3247
 2394TIP3   OH231376   4.304   3.244  20.201 -0.6855 -0.1531  0.0932
 2394TIP3    H131377   4.266   3.165  20.239 -0.1202 -0.2204  0.5263
 2394TIP3    H231378   4.379   3.213  20.150 -1.6696 -0.1066 -1.4183
 2395TIP3   OH231379   3.521   6.185  18.544  0.0761 -0.0025 -0.2737
 2395TIP3    H131380   3.542   6.092  18.535  0.5595  0.0548  0.1927
 2395TIP3    H231381   3.596   6.231  18.505 -0.8128  0.1987 -1.8234
 2396TIP3   OH231382   2.938   3.837  18.355  0.1412  0.3062  0.0413
 2396TIP3    H131383   2.913   3.877  18.438 -2.4230  0.7206 -0.8571
 2396TIP3    H231384   2.912   3.901  18.289  3.1529  0.4955 -1.1220
 2397TIP3   OH231385   3.652   4.220  18.484 -0.1279 -0.4898 -0.1989
 2397TIP3    H131386   3.720   4.256  18.427 -0.9575  0.5033 -0.6105
 2397TIP3    H231387   3.576   4.210  18.426 -1.0574  0.7368  0.7623
 2398TIP3   OH231388   5.943   5.882  20.024 -0.0125 -0.0918 -0.0987
 2398TIP3    H131389   5.848   5.882  20.019 -0.2564 -0.4294  2.7515
 2398TIP3    H231390   5.963   5.822  20.095  2.3982 -0.5228 -1.0399
 2399TIP3   OH231391   6.541   1.090  18.167 -0.2328  0.0075  0.1201
 2399TIP3    H131392   6.513   0.999  18.172  0.1261 -0.0622  1.2597
 2399TIP3    H231393   6.589   1.105  18.249 -2.5994  1.9681  1.2914
 2400TIP3   OH231394   0.814   6.233  20.642 -0.9317  0.4910  0.2745
 2400TIP3    H131395   0.751   6.283  20.694 -0.8486 -0.4053  1.2737
 2400TIP3    H231396   0.830   6.287  20.565 -2.1347  1.2054  0.5015
 2401TIP3   OH231397   2.466   3.771  18.436  0.3628  0.4683  0.0372
 2401TIP3    H131398   2.547   3.772  18.386  1.5162 -1.5624  1.6840
 2401TIP3    H231399   2.443   3.678  18.442 -0.1594  0.6936  2.5122
 2402TIP3   OH231400   5.358   2.057  18.812  0.0274 -0.0202  0.1317
 2402TIP3    H131401   5.444   2.095  18.832 -0.5819  0.6445  1.6129
 2402TIP3    H231402   5.312   2.126  18.765  0.3176 -0.4114 -0.7463
 2403TIP3   OH231403   3.077   5.209  20.368  0.1343  0.2162  0.4168
 2403TIP3    H131404   3.023   5.288  20.371  0.4319  0.5935 -1.8374
 2403TIP3    H231405   3.166   5.240  20.381  0.0873 -0.0053  1.2928
 2404TIP3   OH231406   0.340   1.594  19.836  0.1414  0.7047 -0.1584
 2404TIP3    H131407   0.379   1.600  19.748 -0.7791 -1.0133 -0.7463
 2404TIP3    H231408   0.386   1.520  19.876  0.0220  0.9968  0.5203
 2405TIP3   OH231409   3.715   4.488  20.876  0.8111  0.7020 -0.3632
 2405TIP3    H131410   3.677   4.533  20.951  1.1329  1.4664 -0.6558
 2405TIP3    H231411   3.641   4.473  20.817  0.1541 -1.6446  0.9072
 2406TIP3   OH231412   3.439   2.691  17.611  0.2957  0.4630  0.2274
 2406TIP3    H131413   3.495   2.768  17.611  0.5929  0.2893 -1.3988
 2406TIP3    H231414   3.391   2.696  17.528 -1.3853  0.0901  1.1358
 2407TIP3   OH231415   5.763   4.297  18.598  0.1956 -0.3472  0.5583
 2407TIP3    H131416   5.802   4.384  18.609 -0.6274  0.1880 -0.5533
 2407TIP3    H231417   5.837   4.236  18.603  0.7100  0.3416  2.0169
 2408TIP3   OH231418   2.346   2.074  20.826 -0.8357  0.0776  0.1843
 2408TIP3    H131419   2.420   2.027  20.788 -0.1817  2.8580 -2.2914
 2408TIP3    H231420   2.270   2.038  20.781 -0.3356  1.2873 -1.7400
 2409TIP3   OH231421   2.385   3.167  18.385 -0.3697  0.0148 -0.3004
 2409TIP3    H131422   2.426   3.109  18.321  0.5643 -2.0685  2.0308
 2409TIP3    H231423   2.457   3.216  18.424 -0.7760  0.3951 -0.0074
 2410TIP3   OH231424   2.380   3.406  19.971  0.4481  0.0941  0.8671
 2410TIP3    H131425   2.301   3.352  19.969  1.4540 -1.4570  1.4352
 2410TIP3    H231426   2.403   3.418  19.879 -1.1705  1.7066  0.6335
 2411TIP3   OH231427   2.246   0.042  20.132  0.0026  0.6674  0.0668
 2411TIP3    H131428   2.243   0.107  20.202 -0.3883  0.6580  0.0593
 2411TIP3    H231429   2.304   0.080  20.066  1.2724  0.2047  0.8671
 2412TIP3   OH231430   2.380   1.397  19.886  0.4587 -0.0427 -0.3908
 2412TIP3    H131431   2.295   1.440  19.896  1.5486  2.1133  0.2162
 2412TIP3    H231432   2.385   1.375  19.793  0.6915  3.2702 -1.3091
 2413TIP3   OH231433   6.556   4.732  17.532  0.0215  1.1053  0.3472
 2413TIP3    H131434   6.486   4.766  17.476 -0.1177  1.3418  0.6642
 2413TIP3    H231435   6.608   4.676  17.474  0.4355  2.0930 -0.2601
 2414TIP3   OH231436   3.333   2.422  17.560  0.6303  0.3752 -0.1397
 2414TIP3    H131437   3.410   2.373  17.589  0.7581  1.0918  0.7509
 2414TIP3    H231438   3.356   2.514  17.576  0.1991  0.7081 -1.3220
 2415TIP3   OH231439   2.034   3.136  17.809  0.1118  0.1931 -0.1365
 2415TIP3    H131440   2.035   3.153  17.715 -0.5112 -2.2464 -0.6434
 2415TIP3    H231441   1.947   3.166  17.837 -1.3632 -2.7354 -1.1951
 2416TIP3   OH231442   0.187   3.701  20.313  0.4677 -0.2795  0.7420
 2416TIP3    H131443   0.200   3.610  20.340  0.5153  0.1059  2.1260
 2416TIP3    H231444   0.254   3.750  20.362  1.0067  0.4129 -0.6287
 2417TIP3   OH231445   0.985   6.515  19.749  0.0717 -0.0388  0.1162
 2417TIP3    H131446   0.968   6.553  19.835  0.9825 -0.6202  0.5658
 2417TIP3    H231447   0.903   6.528  19.700 -0.4667  0.2580  1.0793
 2418TIP3   OH231448   6.410   6.658  19.748 -0.2418  0.0243 -0.2905
 2418TIP3    H131449   6.453   6.659  19.663 -0.0076 -0.8656 -0.1983
 2418TIP3    H231450   6.483   6.663  19.811 -0.4983  3.1968 -0.0847
 2419TIP3   OH231451   2.845   6.044  20.297 -0.4853  0.0332  0.3183
 2419TIP3    H131452   2.908   6.009  20.359  0.6081 -1.2464 -1.4122
 2419TIP3    H231453   2.790   5.970  20.273  1.0098 -0.3370 -2.4008
 2420TIP3   OH231454   4.296   0.316  20.023  0.5939 -0.1516 -0.2362
 2420TIP3    H131455   4.391   0.323  20.014  0.5677 -0.1739 -0.5492
 2420TIP3    H231456   4.266   0.406  20.036  0.6453 -0.1295 -0.2701
 2421TIP3   OH231457   2.477   1.124  19.938 -0.3202 -0.1335 -0.3123
 2421TIP3    H131458   2.459   1.216  19.924 -3.0378 -0.3948  0.9534
 2421TIP3    H231459   2.505   1.092  19.852  0.9998  1.8725 -0.6924
 2422TIP3   OH231460   0.372   4.293  20.483 -0.5780 -0.0374  0.1316
 2422TIP3    H131461   0.349   4.227  20.417  0.6716  2.3987 -2.9948
 2422TIP3    H231462   0.293   4.304  20.535 -1.9751 -1.4060 -1.5762
 2423TIP3   OH231463   5.495   2.154  19.155  0.7892  0.4576 -0.6649
 2423TIP3    H131464   5.531   2.239  19.182  2.0906  0.5372 -2.4065
 2423TIP3    H231465   5.510   2.151  19.060  0.6032 -1.6401 -0.6805
 2424TIP3   OH231466   3.163   1.488  19.018  0.5806 -0.2813 -0.0010
 2424TIP3    H131467   3.142   1.469  18.927  0.6744 -1.2353  0.1693
 2424TIP3    H231468   3.242   1.437  19.036  2.8643  2.8022 -0.4735
 2425TIP3   OH231469   2.528   1.463  19.127 -0.2541  0.7214 -0.5983
 2425TIP3    H131470   2.581   1.507  19.061 -0.0478  1.3750 -0.0183
 2425TIP3    H231471   2.505   1.379  19.088  0.0025  1.0256 -1.4274
 2426TIP3   OH231472   3.825   3.770  20.411  0.1591  0.0299 -0.3255
 2426TIP3    H131473   3.812   3.861  20.441  0.6245  0.1250 -0.3980
 2426TIP3    H231474   3.759   3.757  20.344 -0.2756  0.1309  0.0763
 2427TIP3   OH231475   2.846   2.581  18.837 -0.0160 -0.3457 -0.3038
 2427TIP3    H131476   2.783   2.601  18.768  1.1039 -0.1651 -1.3146
 2427TIP3    H231477   2.809   2.621  18.916 -2.0374 -1.7925 -0.4532
 2428TIP3   OH231478   5.550   2.220  18.863 -0.3100  0.3439 -0.2116
 2428TIP3    H131479   5.619   2.156  18.847  0.4296  1.2130 -0.6080
 2428TIP3    H231480   5.593   2.305  18.848 -1.1291  0.9469  0.8029
 2429TIP3   OH231481   6.525   6.308  17.602 -0.0013 -0.3688  0.2057
 2429TIP3    H131482   6.510   6.368  17.529 -0.5139 -0.8925 -0.1360
 2429TIP3    H231483   6.619   6.289  17.598  0.1298  0.2769  0.2155
 2430TIP3   OH231484   3.616   4.006  19.425  0.3037 -0.0462 -0.2926
 2430TIP3    H131485   3.694   3.985  19.477  2.4011 -1.0620 -3.5209
 2430TIP3    H231486   3.566   3.925  19.425  1.1861 -0.6117 -1.2184
 2431TIP3   OH231487   6.186   6.144  19.414 -0.3942  0.0186 -0.1870
 2431TIP3    H131488   6.223   6.062  19.381  1.3851  0.9121 -0.5099
 2431TIP3    H231489   6.221   6.211  19.357 -0.4549  1.1928  1.0977
 2432TIP3   OH231490   5.266   0.938  19.157  0.1585  0.0382 -0.4718
 2432TIP3    H131491   5.347   0.887  19.160 -0.1028 -0.4247 -0.9856
 2432TIP3    H231492   5.237   0.943  19.248  0.6660  0.0492 -0.3094
 2433TIP3   OH231493   1.662   0.206  20.057  0.5132 -0.6175 -0.3347
 2433TIP3    H131494   1.732   0.224  20.120  0.4837  1.1306 -0.7220
 2433TIP3    H231495   1.685   0.261  19.981 -0.6843 -0.8747 -0.9007
 2434TIP3   OH231496   4.051   1.362  20.419  0.0749 -0.2284 -0.8403
 2434TIP3    H131497   4.056   1.279  20.372  2.0197  0.4472 -1.9539
 2434TIP3    H231498   4.120   1.357  20.484  0.1641  0.4739 -0.8714
 2435TIP3   OH231499   3.451   0.373  17.817  0.6518  0.3611 -0.2320
 2435TIP3    H131500   3.464   0.282  17.844 -0.3043  0.1164 -0.5666
 2435TIP3    H231501   3.527   0.394  17.764  1.2801  0.0220  0.5110
 2436TIP3   OH231502   5.937   5.079  19.034 -0.1700 -0.2861 -0.3229
 2436TIP3    H131503   5.925   5.125  19.116  1.3584 -1.6019  0.7021
 2436TIP3    H231504   5.963   4.990  19.059 -0.5760 -1.0030 -2.2180
 2437TIP3   OH231505   3.841   3.716  20.681  0.0303 -0.9338 -0.3705
 2437TIP3    H131506   3.811   3.806  20.696  1.3393 -0.4304 -0.6707
 2437TIP3    H231507   3.847   3.709  20.586  1.2076 -0.8928 -0.3096
 2438TIP3   OH231508   3.348   0.581  20.659 -0.3042  0.3495 -0.3229
 2438TIP3    H131509   3.413   0.650  20.670  0.0843  0.2054 -1.6132
 2438TIP3    H231510   3.264   0.628  20.654 -0.0228  0.7598 -1.3894
 2439TIP3   OH231511   4.258   4.586  18.224  0.5530  0.0573  0.0867
 2439TIP3    H131512   4.300   4.544  18.149  2.0561  2.6071 -0.6084
 2439TIP3    H231513   4.313   4.661  18.244 -0.9192  0.6069  2.5015
 2440TIP3   OH231514   5.275   3.963  20.141 -0.3748 -0.3654  0.2707
 2440TIP3    H131515   5.286   3.927  20.228  0.6403  1.8057  1.1348
 2440TIP3    H231516   5.354   3.936  20.093 -1.1682 -1.9817 -0.1907
 2441TIP3   OH231517   0.008   1.280  18.362 -0.4520  0.2946 -0.3513
 2441TIP3    H131518  -0.006   1.332  18.283 -0.9244  0.0518 -0.4347
 2441TIP3    H231519   0.096   1.303  18.391 -1.2804  2.4824  0.6159
 2442TIP3   OH231520   4.331   5.490  19.141 -0.2372  0.3510 -0.4037
 2442TIP3    H131521   4.418   5.489  19.101 -1.0597  3.2870 -2.7021
 2442TIP3    H231522   4.347   5.503  19.234  1.7559 -1.0698 -0.4995
 2443TIP3   OH231523   4.405   3.060  20.468  0.4891 -0.0422  0.1133
 2443TIP3    H131524   4.463   3.022  20.534 -0.4305 -0.7967  0.5185
 2443TIP3    H231525   4.325   3.081  20.516 -0.7839 -2.0417 -1.0141
 2444TIP3   OH231526   0.552   6.476  18.553 -0.0670 -0.7462 -0.3368
 2444TIP3    H131527   0.480   6.413  18.542 -1.0988  0.5200 -1.1123
 2444TIP3    H231528   0.560   6.519  18.468  0.9893 -0.2082  0.0172
 2445TIP3   OH231529   0.864   1.238  17.852 -0.1466 -0.1308  0.3774
 2445TIP3    H131530   0.849   1.174  17.922 -0.2873  0.3682  0.8047
 2445TIP3    H231531   0.875   1.184  17.773  3.5442 -0.9751  1.2782
 2446TIP3   OH231532   6.640   0.455  20.069  0.5334 -0.2347  0.7391
 2446TIP3    H131533   6.724   0.410  20.075  1.6745  1.5549 -0.9167
 2446TIP3    H231534   6.614   0.446  19.977 -0.6259  0.0675  1.0207
 2447TIP3   OH231535   4.102   2.101  20.156 -0.7694 -0.2549  0.2388
 2447TIP3    H131536   4.130   2.068  20.242  0.0454  0.4575  0.2575
 2447TIP3    H231537   4.168   2.167  20.133 -0.8254 -0.6330 -1.0628
 2448TIP3   OH231538   0.723   6.204  20.140 -0.5920  0.3275  0.3073
 2448TIP3    H131539   0.770   6.208  20.223  0.7613 -3.6733 -0.0465
 2448TIP3    H231540   0.789   6.225  20.074 -0.9441  0.7625  0.0864
 2449TIP3   OH231541   3.417   6.351  20.698 -0.1838 -0.1674 -0.2722
 2449TIP3    H131542   3.330   6.391  20.705 -0.0355  0.0100  0.6602
 2449TIP3    H231543   3.465   6.409  20.639 -0.8061 -0.4722 -1.1046
 2450TIP3   OH231544   5.807   6.657  17.280 -0.9822  0.2889  0.1236
 2450TIP3    H131545   5.902   6.663  17.275 -0.8657 -1.1846  0.0755
 2450TIP3    H231546   5.783   6.719  17.349 -0.0754  1.1995 -0.3448
 2451TIP3   OH231547   0.262   1.348  20.808  0.3842 -0.4784 -0.1813
 2451TIP3    H131548   0.328   1.319  20.745  1.4705 -1.2676  1.2394
 2451TIP3    H231549   0.266   1.443  20.806  2.0511 -0.5090  0.3265
 2452TIP3   OH231550   0.969   6.301  20.086 -0.0271  0.1115 -0.1674
 2452TIP3    H131551   0.938   6.369  20.025 -0.2321 -0.5450 -0.8159
 2452TIP3    H231552   1.025   6.348  20.148 -3.5460  1.7408  2.1134
 2453TIP3   OH231553   3.327   5.848  19.054  0.4964  0.4378  0.5274
 2453TIP3    H131554   3.349   5.941  19.066  0.7443  0.1162  2.8844
 2453TIP3    H231555   3.402   5.801  19.087  0.1381 -0.6440 -0.1458
 2454TIP3   OH231556   3.669   5.059  18.809  0.2503  0.4276  0.5723
 2454TIP3    H131557   3.623   4.977  18.794  1.4964 -0.3770  0.9778
 2454TIP3    H231558   3.759   5.041  18.782  1.0404  0.9646  2.6697
 2455TIP3   OH231559   2.000   1.228  19.371 -0.1101 -0.0805 -0.0698
 2455TIP3    H131560   1.994   1.249  19.278 -1.2765  0.7826  0.1791
 2455TIP3    H231561   2.020   1.134  19.373  1.2158  0.1368 -1.1737
 2456TIP3   OH231562   4.845   0.577  18.552 -0.5210  0.4159 -0.5163
 2456TIP3    H131563   4.885   0.626  18.625 -0.1456 -0.7826  0.1131
 2456TIP3    H231564   4.779   0.522  18.594  0.7878 -1.4789 -0.8019
 2457TIP3   OH231565   4.316   1.122  18.955  0.0222 -0.4648 -0.2018
 2457TIP3    H131566   4.267   1.044  18.929 -1.4192 -0.2638  1.7148
 2457TIP3    H231567   4.257   1.195  18.937 -1.0133 -0.2937  3.1454
 2458TIP3   OH231568   2.383   2.596  18.996  0.4247  0.4823  0.0937
 2458TIP3    H131569   2.372   2.691  18.990 -1.6775  0.2009 -1.6261
 2458TIP3    H231570   2.301   2.564  19.034  1.3760 -0.6325  1.3052
 2459TIP3   OH231571   5.305   0.039  20.378  0.1050  0.0876 -0.1807
 2459TIP3    H131572   5.298   0.082  20.292 -0.5636  1.9980  0.7751
 2459TIP3    H231573   5.232  -0.023  20.379 -0.9240  1.2701 -0.3539
 2460TIP3   OH231574   4.153   4.311  19.126  0.4335  0.2436 -0.4811
 2460TIP3    H131575   4.105   4.230  19.110 -0.4508  0.7455 -0.3970
 2460TIP3    H231576   4.224   4.285  19.186 -2.4928  0.2739  3.4048
 2461TIP3   OH231577   0.495   2.763  19.807  0.0658 -0.3212 -0.2023
 2461TIP3    H131578   0.427   2.701  19.781  1.8741 -2.9484  0.9740
 2461TIP3    H231579   0.462   2.803  19.888  0.4425 -2.7059  1.2261
 2462TIP3   OH231580   1.908   3.934  20.362 -0.5131  0.0778 -0.3453
 2462TIP3    H131581   1.891   3.866  20.428  1.5253 -0.8499 -0.6929
 2462TIP3    H231582   1.827   3.985  20.359 -0.2678  1.1044  3.9267
 2463TIP3   OH231583   6.041   2.641  19.755  0.2019  0.9692 -0.0856
 2463TIP3    H131584   5.971   2.706  19.747 -0.8005 -0.2524 -1.7012
 2463TIP3    H231585   6.068   2.623  19.665 -1.0444 -2.3793  0.0687
 2464TIP3   OH231586   0.225   0.211  17.821  0.4395 -0.2988 -0.0226
 2464TIP3    H131587   0.271   0.248  17.896  0.5687 -1.2474  0.3853
 2464TIP3    H231588   0.134   0.241  17.832  0.3425 -0.8574  0.8125
 2465TIP3   OH231589   2.212   3.112  20.918  0.2596  0.0093 -0.0009
 2465TIP3    H131590   2.297   3.156  20.916 -0.8584  2.7852  3.5452
 2465TIP3    H231591   2.149   3.179  20.894 -1.1647 -1.1110  0.4323
 2466TIP3   OH231592   0.675   4.057  18.548  0.0484 -0.0707 -0.2861
 2466TIP3    H131593   0.596   4.075  18.598 -0.0155 -0.3730 -0.2782
 2466TIP3    H231594   0.644   4.018  18.466  0.1659  0.1988 -0.4631
 2467TIP3   OH231595   5.105   3.420  19.803  0.1735 -0.3740 -0.0016
 2467TIP3    H131596   5.110   3.333  19.765 -1.7168 -0.5101 -0.0642
 2467TIP3    H231597   5.085   3.478  19.729  0.8227  0.0302  0.1319
 2468TIP3   OH231598   5.932   4.618  18.156 -0.0742 -0.5650  0.2984
 2468TIP3    H131599   5.843   4.593  18.131 -1.4943  2.4283  1.7748
 2468TIP3    H231600   5.962   4.547  18.214 -1.5986 -1.5076 -0.0048
 2469TIP3   OH231601   2.194   2.431  20.278 -0.3528 -0.0093  0.6490
 2469TIP3    H131602   2.165   2.423  20.370 -0.8168 -1.8268  0.3870
 2469TIP3    H231603   2.254   2.506  20.278  0.6868 -0.7606  2.7034
 2470TIP3   OH231604   1.002   1.658  19.834  0.1054  0.2980  0.4529
 2470TIP3    H131605   0.968   1.736  19.877 -0.1115  1.7398 -2.1617
 2470TIP3    H231606   0.943   1.643  19.760  2.4311  0.1157 -1.4842
 2471TIP3   OH231607   3.800   1.815  18.264 -0.6126 -0.7284  0.4117
 2471TIP3    H131608   3.880   1.765  18.280  0.1572 -0.0308 -1.0413
 2471TIP3    H231609   3.787   1.867  18.343  2.4205  1.8030 -0.5557
 2472TIP3   OH231610   3.686   4.192  17.154 -0.1512 -0.2315 -0.0948
 2472TIP3    H131611   3.768   4.241  17.152  0.2612 -0.9147 -0.9068
 2472TIP3    H231612   3.708   4.110  17.199 -0.5987 -0.0813  0.4100
 2473TIP3   OH231613   3.957   4.032  17.694 -1.2900 -0.3169 -0.1943
 2473TIP3    H131614   3.913   3.967  17.638 -3.2694 -0.2244  1.1305
 2473TIP3    H231615   3.941   4.001  17.783  0.0526  0.5980  0.3934
 2474TIP3   OH231616   6.464   0.732  20.285 -0.5916 -0.3182  0.1620
 2474TIP3    H131617   6.538   0.752  20.343 -0.3095 -0.5213 -0.1247
 2474TIP3    H231618   6.387   0.737  20.342 -0.3239 -0.4440  0.5386
 2475TIP3   OH231619   2.682   3.124  19.821  0.0982  0.1271 -0.3498
 2475TIP3    H131620   2.765   3.167  19.839 -0.0196  1.5138 -2.6903
 2475TIP3    H231621   2.699   3.031  19.836  1.6797  0.5094  0.4208
 2476TIP3   OH231622   5.450   3.730  20.663 -0.1337 -0.0452 -0.1620
 2476TIP3    H131623   5.517   3.791  20.632  0.5946 -0.7529 -0.0120
 2476TIP3    H231624   5.499   3.656  20.699 -0.9853 -1.1642 -1.2173
 2477TIP3   OH231625   0.643   2.162  18.928  0.3382  0.1459 -0.2487
 2477TIP3    H131626   0.732   2.168  18.962  0.6100  1.2138 -1.0931
 2477TIP3    H231627   0.589   2.206  18.994  0.8631  2.2246 -1.1286
 2478TIP3   OH231628   5.269   3.860  19.825 -0.1855 -0.0425 -0.4460
 2478TIP3    H131629   5.194   3.824  19.871 -0.8840  2.2646  0.3649
 2478TIP3    H231630   5.345   3.817  19.864 -0.9752 -1.2390 -0.1761
 2479TIP3   OH231631   1.805   2.582  17.787 -0.7092  0.3751  0.0262
 2479TIP3    H131632   1.774   2.585  17.697 -0.9092 -1.4221  0.0077
 2479TIP3    H231633   1.900   2.576  17.780 -0.7083  0.4764 -0.0490
 2480TIP3   OH231634   3.458   6.102  18.842  0.7113 -0.3104 -0.4995
 2480TIP3    H131635   3.487   6.017  18.809 -1.0246 -0.5167 -1.5937
 2480TIP3    H231636   3.504   6.166  18.787 -0.2152 -0.6156 -1.6580
 2481TIP3   OH231637   2.442   2.197  19.341 -0.0518  0.4961  0.5208
 2481TIP3    H131638   2.398   2.258  19.282  2.3953  0.1771 -1.8466
 2481TIP3    H231639   2.512   2.250  19.381  2.4036 -0.6661 -1.9181
 2482TIP3   OH231640   0.373   4.206  20.200  0.4663 -0.1808 -0.0000
 2482TIP3    H131641   0.468   4.193  20.198  0.3823 -0.8985  0.2134
 2482TIP3    H231642   0.341   4.134  20.253 -0.2726 -0.4199 -0.7501
 2483TIP3   OH231643   5.059   5.834  20.493  0.8961 -0.1117  0.5140
 2483TIP3    H131644   5.151   5.824  20.469  1.3133  3.5632 -0.0567
 2483TIP3    H231645   5.060   5.838  20.589  1.9244  2.8225  0.5030
 2484TIP3   OH231646   2.068   5.170  17.873 -0.1776 -0.9199 -0.0045
 2484TIP3    H131647   2.140   5.151  17.812  0.5252  0.5036  0.3451
 2484TIP3    H231648   2.112   5.183  17.957 -0.8149  0.1975  0.1656
 2485TIP3   OH231649   1.737   1.581  18.884 -0.1904  0.5091 -0.1891
 2485TIP3    H131650   1.685   1.660  18.869 -0.6031  0.2973  0.1047
 2485TIP3    H231651   1.780   1.596  18.968  1.2695  1.2367 -1.0286
 2486TIP3   OH231652   0.376   6.522  18.167  0.4180 -0.3276  0.3761
 2486TIP3    H131653   0.317   6.582  18.122 -1.5009 -1.2052  1.5721
 2486TIP3    H231654   0.401   6.457  18.101  0.2393  0.1927 -0.2073
 2487TIP3   OH231655   3.305   0.715  20.208  0.5214  0.2167  0.6248
 2487TIP3    H131656   3.383   0.687  20.161 -0.2593 -0.1623 -0.5075
 2487TIP3    H231657   3.284   0.643  20.268  1.5092  0.6882  1.5587
 2488TIP3   OH231658   0.139   0.148  19.614 -0.1395  0.5189 -0.5043
 2488TIP3    H131659   0.053   0.160  19.575  0.0153 -0.7439 -1.3114
 2488TIP3    H231660   0.198   0.136  19.539  0.3576 -0.7818  0.0527
 2489TIP3   OH231661   5.685   5.450  19.401 -0.1445  0.0950 -0.1840
 2489TIP3    H131662   5.691   5.356  19.381  1.6715  0.0302  0.5094
 2489TIP3    H231663   5.599   5.460  19.441  0.0352 -1.4806  0.6792
 2490TIP3   OH231664   5.341   2.188  20.042 -0.1208 -0.2382 -1.0186
 2490TIP3    H131665   5.390   2.106  20.052 -1.0316 -0.8257 -1.1731
 2490TIP3    H231666   5.310   2.187  19.952  1.0098  0.9660 -1.4471
 2491TIP3   OH231667   3.928   0.037  18.404 -0.7468  0.8960  0.2166
 2491TIP3    H131668   3.936   0.130  18.383 -1.8286  0.9982  0.2093
 2491TIP3    H231669   3.948   0.031  18.497  1.5251  0.8007 -0.2078
 2492TIP3   OH231670   3.921   3.531  19.416  0.1562 -0.4506  0.4681
 2492TIP3    H131671   3.977   3.582  19.474  0.1455  0.6271 -0.4523
 2492TIP3    H231672   3.959   3.541  19.329 -1.1566 -0.1026 -0.0964
 2493TIP3   OH231673   3.464   2.049  17.663  0.1598 -0.6009 -0.4655
 2493TIP3    H131674   3.447   2.064  17.756 -1.4277  0.3088 -0.8741
 2493TIP3    H231675   3.446   1.956  17.650 -1.3333 -0.3776 -0.1845
 2494TIP3   OH231676   6.544   3.733  20.309 -0.1494 -0.2774  0.8760
 2494TIP3    H131677   6.630   3.712  20.272 -0.6382  1.2010 -1.3146
 2494TIP3    H231678   6.491   3.656  20.290  0.5815 -1.0755  1.9688
 2495TIP3   OH231679   4.569   5.050  18.470  0.1778  0.0887 -0.3752
 2495TIP3    H131680   4.590   5.070  18.379 -0.7536 -2.4546 -1.2400
 2495TIP3    H231681   4.651   5.018  18.508  0.4200  0.5754 -0.4776
 2496TIP3   OH231682   4.743   3.425  20.632  0.3854  0.1207 -0.2335
 2496TIP3    H131683   4.774   3.339  20.661  2.2402  1.4155  1.9243
 2496TIP3    H231684   4.767   3.429  20.540  0.0414 -1.7357 -0.4519
 2497TIP3   OH231685   5.906   4.573  17.815  0.0959 -0.1247  0.4177
 2497TIP3    H131686   5.990   4.552  17.856  0.6839 -1.4714 -1.3264
 2497TIP3    H231687   5.928   4.590  17.723 -1.3251  1.3855  0.3030
 2498TIP3   OH231688   0.541   0.013  20.298  0.5780 -0.1619  0.4160
 2498TIP3    H131689   0.480   0.077  20.261 -0.2050  0.0078  1.9601
 2498TIP3    H231690   0.488  -0.043  20.354  1.6109 -0.9087  0.6919
 2499TIP3   OH231691   1.496   5.114  18.909  0.3863 -0.6501 -0.0126
 2499TIP3    H131692   1.556   5.042  18.892  0.2237 -0.7506 -0.1595
 2499TIP3    H231693   1.416   5.072  18.941  0.7411 -0.4607  1.1879
 2500TIP3   OH231694   5.191   2.235  18.082  0.5771  0.3971  0.8357
 2500TIP3    H131695   5.245   2.311  18.103  2.4662 -0.2623 -1.3227
 2500TIP3    H231696   5.120   2.270  18.028  3.0211  0.4253 -2.6683
 2501TIP3   OH231697   5.010   4.601  19.110  0.2785  0.8591  0.3062
 2501TIP3    H131698   4.951   4.580  19.183 -0.3411 -0.8536 -0.6325
 2501TIP3    H231699   4.971   4.679  19.070 -0.6176  0.5335  0.5138
 2502TIP3   OH231700   6.107   1.229  20.615 -0.3023  0.0316 -0.3370
 2502TIP3    H131701   6.131   1.265  20.529 -2.9681  3.2770  0.0450
 2502TIP3    H231702   6.160   1.279  20.677 -0.5911 -0.0739 -0.0015
 2503TIP3   OH231703   5.564   4.694  19.433  0.0340  0.4330  0.7236
 2503TIP3    H131704   5.533   4.621  19.486 -1.0571  2.0476  2.4419
 2503TIP3    H231705   5.639   4.729  19.480 -0.0118  0.9716  0.4129
 2504TIP3   OH231706   0.120   5.377  17.918 -0.2427  0.0737  0.0901
 2504TIP3    H131707   0.108   5.301  17.861  1.3531  0.7158 -1.1613
 2504TIP3    H231708   0.200   5.356  17.967 -1.8121 -0.6745  2.5209
 2505TIP3   OH231709   4.724   1.458  19.143  0.0006  0.0364 -0.1121
 2505TIP3    H131710   4.749   1.536  19.094  0.6273  1.3753  2.2088
 2505TIP3    H231711   4.807   1.414  19.163 -0.0375  0.6135  1.4363
 2506TIP3   OH231712   6.052   3.258  18.489 -0.6246  0.0121 -0.0891
 2506TIP3    H131713   5.958   3.270  18.496 -0.5383  2.2401 -1.7151
 2506TIP3    H231714   6.089   3.316  18.556 -0.3928  0.7882 -0.8721
 2507TIP3   OH231715   2.509   1.082  17.890 -0.0609 -0.2780  0.0640
 2507TIP3    H131716   2.488   0.992  17.863  0.7912 -0.5444  0.2576
 2507TIP3    H231717   2.462   1.137  17.827 -2.0993 -0.8116  1.0511
 2508TIP3   OH231718   4.757   5.820  19.855 -0.2397 -0.3242 -0.0842
 2508TIP3    H131719   4.695   5.801  19.925 -1.2883  1.4710 -0.4735
 2508TIP3    H231720   4.736   5.909  19.827 -0.0652 -1.0768 -2.9020
 2509TIP3   OH231721   1.769   6.040  17.758  0.6217  0.4191 -0.0753
 2509TIP3    H131722   1.805   6.014  17.843 -0.0822  1.7989  0.6804
 2509TIP3    H231723   1.844   6.073  17.710  0.9934 -0.1939  0.0646
 2510TIP3   OH231724   2.497   3.144  17.289 -1.0742  0.8860 -0.1362
 2510TIP3    H131725   2.507   3.100  17.205  0.8520 -1.1150  1.0563
 2510TIP3    H231726   2.439   3.088  17.339 -0.1574  0.6910  0.7349
 2511TIP3   OH231727   3.566   3.203  19.895 -0.2691  0.4599  0.3369
 2511TIP3    H131728   3.642   3.196  19.836 -0.6234  1.4807 -0.2781
 2511TIP3    H231729   3.492   3.173  19.842 -0.1935 -1.4388  1.2347
 2512TIP3   OH231730   3.393   2.846  20.413  0.5138  0.3169 -0.3064
 2512TIP3    H131731   3.425   2.821  20.499  2.1144 -0.9100 -1.1894
 2512TIP3    H231732   3.298   2.852  20.422  0.5529 -0.8808  1.2604
 2513TIP3   OH231733   6.366   6.355  20.273  0.0246  0.3278  0.0695
 2513TIP3    H131734   6.299   6.417  20.302 -0.7156 -0.9930  1.3501
 2513TIP3    H231735   6.336   6.326  20.187 -1.1086 -0.2525  0.6322
 2514TIP3   OH231736   3.882   5.214  18.470 -0.4769  0.3167 -0.2959
 2514TIP3    H131737   3.888   5.128  18.512  3.0572  0.5628  0.0176
 2514TIP3    H231738   3.923   5.201  18.384 -1.7406  1.2789 -1.0747
 2515TIP3   OH231739   5.279   6.659  17.160  0.2078  0.4898 -0.6920
 2515TIP3    H131740   5.342   6.710  17.211 -0.0145 -0.0309  0.1209
 2515TIP3    H231741   5.311   6.569  17.165 -0.1854  0.3345 -0.9195
 2516TIP3   OH231742   1.577   2.656  17.910 -0.3353 -0.2695 -0.2013
 2516TIP3    H131743   1.515   2.619  17.847 -0.4936 -1.2645  0.5133
 2516TIP3    H231744   1.662   2.620  17.884 -0.2229  0.1982 -0.4988
 2517TIP3   OH231745   2.812   4.056  20.162 -0.0842  1.0333 -0.0307
 2517TIP3    H131746   2.724   4.092  20.165 -0.1462  0.8578  0.4288
 2517TIP3    H231747   2.803   3.972  20.119 -0.5293 -0.0030  1.9580
 2518TIP3   OH231748   4.788   2.662  18.297 -0.4206 -0.0995  0.4553
 2518TIP3    H131749   4.792   2.589  18.358  1.3921  0.3898  0.9695
 2518TIP3    H231750   4.755   2.735  18.350  2.0287  0.5666  1.1780
 2519TIP3   OH231751   1.753   2.381  18.899 -0.1952  0.4678  0.0195
 2519TIP3    H131752   1.771   2.426  18.816  0.4632  0.4016  0.1243
 2519TIP3    H231753   1.729   2.451  18.960 -0.9063  0.4967 -0.2771
 2520TIP3   OH231754   2.472   1.903  20.648  0.5143  0.0871  0.2908
 2520TIP3    H131755   2.414   1.828  20.638 -3.2998  2.6598  0.7914
 2520TIP3    H231756   2.505   1.921  20.560 -1.9414  0.2374 -0.6654
 2521TIP3   OH231757   2.685   1.234  18.840  0.2285  0.1828 -0.4741
 2521TIP3    H131758   2.743   1.289  18.891  0.3978  2.3265 -2.7852
 2521TIP3    H231759   2.742   1.170  18.797  0.4558  0.2664 -0.2937
 2522TIP3   OH231760   6.257   2.228  18.627  0.0346  0.0668  0.6515
 2522TIP3    H131761   6.176   2.268  18.659 -0.6386  1.3399 -2.3016
 2522TIP3    H231762   6.228   2.169  18.557  1.6609  1.9721 -1.7925
 2523TIP3   OH231763   6.357   3.602  19.484 -0.3177  0.5676 -0.1578
 2523TIP3    H131764   6.348   3.574  19.393 -0.9454  0.8515 -0.1822
 2523TIP3    H231765   6.448   3.579  19.506 -0.4925 -0.5367 -0.4993
 2524TIP3   OH231766   1.190   4.665  17.772  0.4953 -0.4208 -0.6426
 2524TIP3    H131767   1.155   4.580  17.744 -1.6303  0.8778 -2.2431
 2524TIP3    H231768   1.263   4.681  17.712 -1.5639  0.5415 -3.0946
 2525TIP3   OH231769   1.445   1.348  19.688  0.4824 -0.7063 -1.0543
 2525TIP3    H131770   1.386   1.274  19.674  0.1113 -0.3750 -1.2505
 2525TIP3    H231771   1.529   1.308  19.712 -0.4623 -1.1915  1.9567
 2526TIP3   OH231772   3.980   3.747  18.572 -0.7376 -0.5502  0.0712
 2526TIP3    H131773   3.964   3.837  18.545  0.3165 -0.5370 -0.5867
 2526TIP3    H231774   4.064   3.750  18.618 -1.0159 -1.0880  0.6246
 2527TIP3   OH231775   5.434   4.376  17.492  1.2662  0.0706  0.5114
 2527TIP3    H131776   5.360   4.341  17.442  0.9470 -0.2746  1.2126
 2527TIP3    H231777   5.482   4.430  17.429  0.0939  0.7729  0.1879
 2528TIP3   OH231778   4.174   2.601  19.880  0.0675  0.2037 -0.0735
 2528TIP3    H131779   4.218   2.663  19.821 -3.1222  1.8864 -0.9236
 2528TIP3    H231780   4.138   2.656  19.950  0.3235 -1.2499  1.2374
 2529TIP3   OH231781   5.485   5.821  19.850  0.1592 -0.1531 -0.2191
 2529TIP3    H131782   5.449   5.754  19.908  2.4898 -0.1229  1.4211
 2529TIP3    H231783   5.498   5.776  19.766  0.6621 -1.4713  0.5270
 2530TIP3   OH231784   0.977   5.103  16.838 -0.2821  0.0208  0.3268
 2530TIP3    H131785   0.946   5.094  16.748 -1.0466  0.4939  0.5253
 2530TIP3    H231786   0.901   5.139  16.886 -0.1356 -0.9260  1.3162
 2531TIP3   OH231787   1.890   3.664  17.522 -0.0661  0.4816 -0.0144
 2531TIP3    H131788   1.839   3.594  17.482 -0.0109 -0.1558  0.9807
 2531TIP3    H231789   1.825   3.728  17.550 -0.4288 -0.5619  1.7103
 2532TIP3   OH231790   1.572   1.537  18.529 -0.0752 -0.0336  0.0291
 2532TIP3    H131791   1.651   1.528  18.476  0.2345 -2.0777  0.7572
 2532TIP3    H231792   1.565   1.631  18.545  2.3529  0.1982  0.1466
 2533TIP3   OH231793   0.796   0.678  18.660  0.0605 -0.2958 -0.9405
 2533TIP3    H131794   0.851   0.603  18.682  1.7790  0.5105 -2.2371
 2533TIP3    H231795   0.808   0.739  18.732  1.1376 -0.0072 -1.3470
 2534TIP3   OH231796   1.628   3.868  20.790 -0.0333 -0.2612  0.1757
 2534TIP3    H131797   1.569   3.806  20.746 -0.2574  0.6033 -0.7897
 2534TIP3    H231798   1.596   3.871  20.880 -0.0509 -1.4859  0.2405
 2535TIP3   OH231799   1.252   4.974  17.547 -0.2262  0.0681 -0.1346
 2535TIP3    H131800   1.293   4.923  17.477 -1.2346 -2.3854  0.9508
 2535TIP3    H231801   1.262   5.065  17.519  1.2148 -0.7128 -2.4418
 2536TIP3   OH231802   1.803   1.942  18.938 -0.6631 -0.0834  0.2941
 2536TIP3    H131803   1.805   2.015  19.000 -0.5251  0.2539 -0.1065
 2536TIP3    H231804   1.732   1.964  18.878 -0.4154 -0.1250 -0.0130
 2537TIP3   OH231805   2.516   5.110  18.414  0.6229 -0.1065 -0.7714
 2537TIP3    H131806   2.468   5.138  18.336  0.3018  1.3333 -0.0941
 2537TIP3    H231807   2.471   5.031  18.443 -0.2062  0.2117 -1.1729
 2538TIP3   OH231808   4.775   1.586  20.044  0.5394  0.2437 -0.4523
 2538TIP3    H131809   4.750   1.510  19.990  1.1740  0.9630 -1.8191
 2538TIP3    H231810   4.796   1.654  19.980  2.2812  0.8374  0.6881
 2539TIP3   OH231811   6.011   0.682  19.053  0.5213  0.4236 -0.4011
 2539TIP3    H131812   5.928   0.727  19.036  0.6647  2.1918  2.7961
 2539TIP3    H231813   5.986   0.601  19.097  0.4532  0.4285 -0.4305
 2540TIP3   OH231814   3.851   4.075  18.154 -0.1677 -0.8967 -0.7882
 2540TIP3    H131815   3.756   4.079  18.143 -0.0680  1.7018 -1.3049
 2540TIP3    H231816   3.867   4.110  18.241  0.2915 -2.5029 -0.1877
 2541TIP3   OH231817   1.778   5.493  20.866 -0.3143 -0.0537 -0.0343
 2541TIP3    H131818   1.791   5.535  20.951  0.1341  0.4725 -0.3547
 2541TIP3    H231819   1.695   5.528  20.834  0.4210  1.1984 -0.6344
 2542TIP3   OH231820   0.483   4.731  17.946 -0.5808  0.0367  0.2642
 2542TIP3    H131821   0.496   4.739  18.040 -2.2387  0.6205  0.4839
 2542TIP3    H231822   0.469   4.638  17.931  0.6408 -0.1921  0.4308
 2543TIP3   OH231823   2.873   4.437  18.905 -0.1891  0.2083  0.6652
 2543TIP3    H131824   2.876   4.475  18.817 -0.1450  0.4311  0.7613
 2543TIP3    H231825   2.822   4.357  18.895 -0.7084  0.5497  0.5579
 2544TIP3   OH231826   4.473   3.881  20.354  0.4064 -0.3919 -0.2068
 2544TIP3    H131827   4.475   3.792  20.317 -1.6307  0.1166 -1.7578
 2544TIP3    H231828   4.382   3.908  20.344  1.1508  2.2302 -0.6331
 2545TIP3   OH231829   2.251   1.188  17.308  0.2069  0.7435  0.5275
 2545TIP3    H131830   2.340   1.165  17.282  0.4210  2.3548 -0.2927
 2545TIP3    H231831   2.226   1.120  17.371  1.6812 -0.2218  0.1164
 2546TIP3   OH231832   4.547   4.220  17.985  0.0098 -0.3428 -0.5624
 2546TIP3    H131833   4.518   4.174  18.064  0.3663  0.8490  0.2984
 2546TIP3    H231834   4.564   4.151  17.922 -0.4587 -1.3184  0.3431
 2547TIP3   OH231835   0.958   1.277  20.838 -0.0074  0.0095 -0.2125
 2547TIP3    H131836   0.867   1.308  20.840  0.7941  2.6340  0.0277
 2547TIP3    H231837   0.952   1.184  20.815 -2.8288 -0.3005  1.2934
 2548TIP3   OH231838   6.460   3.747  19.768  0.3099  0.4270  0.2530
 2548TIP3    H131839   6.397   3.781  19.704 -0.5905 -0.9083  0.3928
 2548TIP3    H231840   6.536   3.723  19.715 -0.0391  0.2824 -0.1938
 2549TIP3   OH231841   2.538   2.588  18.299 -0.3384 -0.4425 -0.6273
 2549TIP3    H131842   2.507   2.557  18.384  0.3233 -0.5120 -0.4031
 2549TIP3    H231843   2.468   2.643  18.266 -1.2280 -1.5753 -0.6979
 2550TIP3   OH231844   6.429   1.210  19.170 -0.2536  0.4762 -0.4894
 2550TIP3    H131845   6.421   1.239  19.079 -0.3679  2.7617  0.1854
 2550TIP3    H231846   6.439   1.115  19.165  0.0795  0.5956 -2.8949
 2551TIP3   OH231847   0.081   6.313  17.550  0.0765  0.1799 -0.3907
 2551TIP3    H131848   0.063   6.402  17.521 -2.3751 -0.4261 -0.9544
 2551TIP3    H231849   0.108   6.267  17.470 -1.7106 -0.2691 -0.7876
 2552TIP3   OH231850   1.544   5.624  20.788 -0.1474  0.0840 -0.1936
 2552TIP3    H131851   1.581   5.635  20.700 -0.5161  0.2961 -0.3222
 2552TIP3    H231852   1.492   5.703  20.802 -0.7491 -0.3247 -0.1053
 2553TIP3   OH231853   2.571   1.320  19.356 -0.1539 -0.0630 -0.4901
 2553TIP3    H131854   2.531   1.374  19.289 -2.1319  1.5487  1.8151
 2553TIP3    H231855   2.532   1.233  19.344 -0.2407  0.1242 -1.5812
 2554TIP3   OH231856   6.691   2.980  19.138 -0.4568 -0.0693 -0.0429
 2554TIP3    H131857   6.679   2.951  19.229 -1.4111 -0.5782 -0.3179
 2554TIP3    H231858   6.785   2.972  19.123 -0.3842 -0.6896  0.6658
 2555TIP3   OH231859   4.460   1.367  20.337  0.3557  0.3819  0.3976
 2555TIP3    H131860   4.386   1.355  20.277 -0.3701 -0.0908  1.3702
 2555TIP3    H231861   4.507   1.443  20.302 -0.1642  0.2332 -0.6567
 2556TIP3   OH231862   2.244   1.757  19.989 -0.4766 -0.0656 -0.5445
 2556TIP3    H131863   2.235   1.735  19.896 -0.3897 -1.8394 -0.1768
 2556TIP3    H231864   2.330   1.798  19.996 -0.2959 -0.3149 -1.1912
 2557TIP3   OH231865   3.575   2.651  20.565  0.6391  0.0480 -0.6463
 2557TIP3    H131866   3.489   2.689  20.580  0.2805  0.2561 -2.8787
 2557TIP3    H231867   3.558   2.557  20.552  0.5299  0.2728 -2.3549
 2558TIP3   OH231868   4.997   3.471  18.360  0.0394  0.4870 -0.3029
 2558TIP3    H131869   5.009   3.565  18.348  0.0876  0.5272  0.0518
 2558TIP3    H231870   4.947   3.443  18.283  0.8269  0.6386 -0.8854
 2559TIP3   OH231871   6.398   1.621  19.896  0.7327 -0.3990 -0.2413
 2559TIP3    H131872   6.386   1.600  19.988  0.9237 -1.6183 -0.4705
 2559TIP3    H231873   6.324   1.678  19.874  0.8010  0.0734  0.6990
 2560TIP3   OH231874   3.984   2.653  18.996  0.2478 -0.2480  0.1835
 2560TIP3    H131875   4.040   2.598  19.050  0.2114 -0.9569 -0.4748
 2560TIP3    H231876   3.928   2.591  18.949  1.0184  0.2533 -1.4753
 2561TIP3   OH231877   3.889   1.417  17.564 -0.1645 -0.1812 -0.2246
 2561TIP3    H131878   3.903   1.396  17.657  1.1928 -0.9492 -0.5777
 2561TIP3    H231879   3.894   1.512  17.560 -0.0481 -0.1512  0.4663
 2562TIP3   OH231880   5.699   2.437  20.616  0.0128  0.3002 -0.5475
 2562TIP3    H131881   5.711   2.389  20.534  0.9089 -0.7227  0.1505
 2562TIP3    H231882   5.695   2.529  20.590 -1.6755 -0.1180 -1.9055
 2563TIP3   OH231883   2.969   3.278  17.683 -0.1732 -0.2901 -0.0126
 2563TIP3    H131884   3.003   3.362  17.652 -2.8638  0.2990 -1.6989
 2563TIP3    H231885   2.880   3.273  17.648 -1.4178 -2.2806  2.9809
 2564TIP3   OH231886   6.503   5.362  20.526  0.1879 -0.1273 -0.1814
 2564TIP3    H131887   6.533   5.351  20.616 -2.1115  0.3129  0.7129
 2564TIP3    H231888   6.441   5.290  20.512 -0.0611  0.2568 -1.1420
 2565TIP3   OH231889   6.094   3.130  18.944 -0.6247 -0.3044 -0.2527
 2565TIP3    H131890   6.010   3.172  18.962 -0.9058 -0.8249 -0.3315
 2565TIP3    H231891   6.072   3.056  18.888 -0.2420 -1.0114  0.5003
 2566TIP3   OH231892   4.173   4.390  17.855  0.0800  0.3150 -0.4587
 2566TIP3    H131893   4.206   4.315  17.804  0.9595  0.7443 -0.5320
 2566TIP3    H231894   4.127   4.443  17.791  1.0271  0.7593 -0.7907
 2567TIP3   OH231895   2.275   5.303  18.748 -0.0998 -0.1304  0.7065
 2567TIP3    H131896   2.305   5.319  18.837  1.2250  1.1917  0.0601
 2567TIP3    H231897   2.200   5.362  18.737  1.2630  1.5788  0.1860
 2568TIP3   OH231898   2.633   3.579  20.437 -0.0718 -0.5149 -0.0880
 2568TIP3    H131899   2.699   3.618  20.379  0.1538  1.3473  1.3177
 2568TIP3    H231900   2.559   3.560  20.380  0.6259  0.0251 -1.2101
 2569TIP3   OH231901   1.501   6.042  17.703 -0.0304 -0.2760 -0.5558
 2569TIP3    H131902   1.595   6.055  17.719 -0.2572 -0.3363  0.9666
 2569TIP3    H231903   1.491   5.947  17.699 -0.1850 -0.3181  0.4892
 2570TIP3   OH231904   5.077   3.096  20.677  0.1465 -0.0059 -0.8245
 2570TIP3    H131905   5.048   3.113  20.587 -0.7693 -0.4053 -0.6209
 2570TIP3    H231906   5.069   3.181  20.721  0.2066  0.1013 -1.0190
 2571TIP3   OH231907   5.280   4.606  19.740 -0.2709  0.0496  0.1253
 2571TIP3    H131908   5.185   4.598  19.730 -0.5133  1.6388  0.8392
 2571TIP3    H231909   5.296   4.590  19.833  0.4532 -2.2686 -0.3245
 2572TIP3   OH231910   3.563   1.764  20.278 -0.0906 -0.1927 -0.1680
 2572TIP3    H131911   3.531   1.761  20.368 -0.7918 -0.7459 -0.4280
 2572TIP3    H231912   3.530   1.684  20.237  1.2362 -0.5413 -0.5880
 2573TIP3   OH231913   4.893   0.116  19.838 -0.4994  0.2755 -0.3039
 2573TIP3    H131914   4.823   0.135  19.775 -0.8725 -0.6347 -0.1802
 2573TIP3    H231915   4.882   0.024  19.860 -0.4002  0.5744  1.1332
 2574TIP3   OH231916   5.141   3.722  19.385  0.3597  0.2955 -0.4981
 2574TIP3    H131917   5.084   3.744  19.311 -1.5037  2.1599  1.3487
 2574TIP3    H231918   5.198   3.798  19.395  0.4124  0.1775  0.1352
 2575TIP3   OH231919   1.539   3.926  19.072  0.2490  0.2512  0.1687
 2575TIP3    H131920   1.622   3.970  19.054 -0.6865  1.7660 -0.6503
 2575TIP3    H231921   1.482   3.951  18.999 -2.0917  2.3224  2.5233
 2576TIP3   OH231922   1.703   6.707  20.311  0.2458  0.0914  0.4854
 2576TIP3    H131923   1.779   6.750  20.274 -0.4179  0.7630 -0.1414
 2576TIP3    H231924   1.662   6.773  20.367 -1.2620  0.6146 -1.1540
 2577TIP3   OH231925   5.723   1.964  20.236  0.2759  0.5407 -0.3258
 2577TIP3    H131926   5.757   1.879  20.209 -0.3973  0.4512 -0.9185
 2577TIP3    H231927   5.643   1.975  20.184  0.2943  1.4756 -0.1636
 2578TIP3   OH231928   2.092   2.416  18.054  0.0719  0.4866 -0.3246
 2578TIP3    H131929   2.009   2.379  18.025 -0.6523  1.4762  0.4177
 2578TIP3    H231930   2.143   2.340  18.083 -0.3590 -0.1828 -1.2533
 2579TIP3   OH231931   6.646   1.383  18.982  0.4347 -0.0471 -0.4247
 2579TIP3    H131932   6.671   1.401  18.891  0.3717  0.9589 -0.2475
 2579TIP3    H231933   6.558   1.346  18.975  0.3329  0.2510 -0.7574
 2580TIP3   OH231934   3.662   6.661  18.802  0.9193 -0.6426  0.5422
 2580TIP3    H131935   3.591   6.690  18.745 -0.1292  0.5547  2.3562
 2580TIP3    H231936   3.742   6.679  18.753  0.0480 -0.4079 -0.8450
 2581TIP3   OH231937   4.830   5.724  18.292 -0.0137 -0.3374 -0.1351
 2581TIP3    H131938   4.849   5.676  18.211 -1.5835  0.6397 -1.1393
 2581TIP3    H231939   4.759   5.675  18.333  1.0962 -1.1001  0.9463
 2582TIP3   OH231940   5.205   5.840  17.873  0.4311  0.0546  0.2285
 2582TIP3    H131941   5.183   5.884  17.791  2.2186  0.3995 -0.1158
 2582TIP3    H231942   5.134   5.862  17.933 -0.3234  0.7409 -0.8870
 2583TIP3   OH231943   5.769   3.660  17.146 -0.3898  0.1008 -0.1376
 2583TIP3    H131944   5.827   3.717  17.097 -0.3974  1.3946  1.2874
 2583TIP3    H231945   5.681   3.680  17.113 -0.3909  0.9349  0.3456
 2584TIP3   OH231946   5.993   6.398  17.913 -0.1489 -0.2430  0.5759
 2584TIP3    H131947   5.930   6.457  17.870 -0.4613  0.0400  1.3980
 2584TIP3    H231948   5.953   6.312  17.905  0.4257 -0.3945 -0.8463
 2585TIP3   OH231949   4.477   3.376  17.488  0.5011 -0.3507 -0.1796
 2585TIP3    H131950   4.457   3.287  17.516  0.2101 -0.5491 -0.9892
 2585TIP3    H231951   4.404   3.428  17.521  1.3105 -0.1851  1.4015
 2586TIP3   OH231952   3.464   5.206  18.127 -0.2631 -0.3122  0.3351
 2586TIP3    H131953   3.523   5.158  18.185 -0.1164 -1.5716 -0.7995
 2586TIP3    H231954   3.406   5.254  18.186  1.0612 -0.0611  1.4900
 2587TIP3   OH231955   2.062   1.818  18.934 -0.0852 -0.4853  0.0935
 2587TIP3    H131956   1.971   1.848  18.940 -0.8493 -2.3022 -1.2929
 2587TIP3    H231957   2.104   1.880  18.875 -1.0019 -0.7409 -0.8665
 2588TIP3   OH231958   2.010   5.816  19.530 -0.5153  0.4059 -0.0784
 2588TIP3    H131959   2.057   5.751  19.582  1.8582  1.9242 -0.1622
 2588TIP3    H231960   1.981   5.769  19.452  2.3248 -0.3234 -0.7907
 2589TIP3   OH231961   2.406   3.499  20.218 -0.1080  0.2107 -0.5706
 2589TIP3    H131962   2.380   3.409  20.234  0.7172 -0.0265 -0.5389
 2589TIP3    H231963   2.413   3.505  20.123 -0.3313  0.2926 -0.5826
 2590TIP3   OH231964   6.061   4.155  20.228  0.4185  0.1404  0.1602
 2590TIP3    H131965   6.086   4.242  20.257  1.3949 -0.2610  0.5817
 2590TIP3    H231966   6.133   4.098  20.257 -0.1083 -0.7743 -0.2600
 2591TIP3   OH231967   0.718   5.477  17.372 -0.5284  0.1065  0.0296
 2591TIP3    H131968   0.700   5.451  17.281  0.5791  1.4868 -0.6247
 2591TIP3    H231969   0.642   5.529  17.398 -0.7451 -0.0981 -0.1917
 2592TIP3   OH231970   5.595   0.028  18.729 -0.6135  0.6141  0.2129
 2592TIP3    H131971   5.591  -0.063  18.700  0.6782  0.3370  0.8578
 2592TIP3    H231972   5.607   0.024  18.823 -0.8702  1.4653  0.2961
 2593TIP3   OH231973   3.707   3.427  18.321  1.0704  0.3425 -0.0321
 2593TIP3    H131974   3.774   3.477  18.275  1.6214  1.4033  1.7964
 2593TIP3    H231975   3.754   3.352  18.357  0.3622 -1.2624 -2.2752
 2594TIP3   OH231976   6.296   6.280  20.025 -0.1848 -0.0537 -0.3651
 2594TIP3    H131977   6.268   6.357  19.976  0.3575 -0.1312 -0.8047
 2594TIP3    H231978   6.237   6.210  19.996 -0.4539  0.1111 -0.2207
 2595TIP3   OH231979   2.989   0.286  19.305 -0.1461 -0.5298 -0.5686
 2595TIP3    H131980   3.038   0.352  19.354 -0.8999  0.0862 -0.6269
 2595TIP3    H231981   3.056   0.233  19.262  0.4759  0.0028 -0.2683
 2596TIP3   OH231982   0.149   3.670  19.144 -0.0665 -0.0836 -0.3697
 2596TIP3    H131983   0.125   3.660  19.236 -1.0754  1.4303 -0.4410
 2596TIP3    H231984   0.152   3.764  19.130 -0.6096 -0.2934 -2.0645
 2597TIP3   OH231985   0.212   1.630  17.755  0.0109  0.4367  0.4819
 2597TIP3    H131986   0.196   1.706  17.810 -1.9518 -0.1982  0.8541
 2597TIP3    H231987   0.145   1.567  17.780 -0.5106 -0.1589 -2.1398
 2598TIP3   OH231988   2.532   4.854  19.897  0.2511 -0.2394  0.4286
 2598TIP3    H131989   2.443   4.888  19.891  0.8340  1.3657  0.4230
 2598TIP3    H231990   2.584   4.913  19.842  0.8040 -3.1799 -2.4964
 2599TIP3   OH231991   5.341   1.356  18.435  0.1852 -0.1234  0.3948
 2599TIP3    H131992   5.320   1.374  18.526 -2.4239  0.1646 -0.1719
 2599TIP3    H231993   5.340   1.442  18.392 -0.7648 -0.4411 -0.2584
 2600TIP3   OH231994   0.918   3.655  20.722  0.1362 -0.2552  0.4745
 2600TIP3    H131995   0.903   3.742  20.760 -1.0239 -0.8720  1.4869
 2600TIP3    H231996   0.995   3.622  20.768  1.2699  0.6514 -0.7040
 2601TIP3   OH231997   1.417   2.413  19.571 -0.4191  0.0453 -0.2179
 2601TIP3    H131998   1.422   2.325  19.534 -1.6773  0.0212 -0.3771
 2601TIP3    H231999   1.450   2.470  19.501 -2.2277 -0.0572 -1.1977
 2602TIP3   OH232000   0.377   4.342  20.774 -0.3483 -0.6350 -0.1564
 2602TIP3    H132001   0.455   4.379  20.734  0.5635 -1.1767  1.0573
 2602TIP3    H232002   0.345   4.410  20.833 -1.3925 -0.0361 -1.3628
 2603TIP3   OH232003   4.295   4.839  18.425  0.3770  0.0746  0.1038
 2603TIP3    H132004   4.302   4.925  18.465 -1.1391 -0.5359  1.8348
 2603TIP3    H232005   4.295   4.778  18.499 -2.4766 -1.1285 -0.7485
 2604TIP3   OH232006   1.107   3.056  19.072 -0.1105  0.1246 -0.4889
 2604TIP3    H132007   1.164   3.009  19.132  0.0825  0.4753 -0.3964
 2604TIP3    H232008   1.115   3.148  19.098 -0.1456  0.2594 -0.9486
 2605TIP3   OH232009   1.461   2.024  18.666  0.0143  0.2832  0.2963
 2605TIP3    H132010   1.512   2.040  18.587 -0.4305  1.0106  0.1342
 2605TIP3    H232011   1.480   2.100  18.722  1.7067 -1.0841  1.6607
 2606TIP3   OH232012   6.330   0.243  17.736 -0.3140  0.0056 -0.4883
 2606TIP3    H132013   6.374   0.169  17.693 -1.0882 -0.8324  0.1200
 2606TIP3    H232014   6.329   0.219  17.829 -0.6541  0.7491 -0.2945
 2607TIP3   OH232015   6.706   2.506  17.831  0.0936  0.3439  0.5227
 2607TIP3    H132016   6.790   2.512  17.877  0.4108  0.3309 -0.0524
 2607TIP3    H232017   6.729   2.483  17.741 -0.3977  2.2759 -0.1365
 2608TIP3   OH232018   6.495   6.206  19.184 -0.1052  0.4136 -0.3266
 2608TIP3    H132019   6.573   6.251  19.218 -0.6012  1.8357 -0.9890
 2608TIP3    H232020   6.529   6.148  19.116  0.4602  0.4591 -0.0875
 2609TIP3   OH232021   1.199   1.745  19.194  0.2140  0.4269  0.3204
 2609TIP3    H132022   1.219   1.678  19.259  1.1752 -0.0006 -0.3940
 2609TIP3    H232023   1.204   1.699  19.110 -2.0891  0.6948 -0.0436
 2610TIP3   OH232024   6.231   0.779  20.652 -0.5176 -0.4300  0.8737
 2610TIP3    H132025   6.242   0.779  20.557 -0.3564 -0.3839  0.8919
 2610TIP3    H232026   6.153   0.831  20.668 -0.3503 -0.1484  0.7883
 2611TIP3   OH232027   1.391   6.381  20.364  0.3907 -0.1945  0.0076
 2611TIP3    H132028   1.439   6.455  20.400  1.3532 -0.1278 -1.3736
 2611TIP3    H232029   1.361   6.333  20.442 -0.5218  1.7667  0.9384
 2612TIP3   OH232030   2.937   2.458  19.812  0.0676  0.1977  0.2327
 2612TIP3    H132031   3.011   2.404  19.839 -0.4646  0.2895  1.9666
 2612TIP3    H232032   2.965   2.497  19.729  2.7917  1.7761  1.7293
 2613TIP3   OH232033   2.566   0.148  18.489 -0.2508  0.3338  0.3085
 2613TIP3    H132034   2.501   0.077  18.492 -0.2403  0.1373 -2.0871
 2613TIP3    H232035   2.650   0.104  18.492 -0.2309  0.4208  1.1037
 2614TIP3   OH232036   5.814   2.538  19.397  0.1609 -0.2850 -0.1339
 2614TIP3    H132037   5.738   2.566  19.447  0.3574  0.4124 -0.2222
 2614TIP3    H232038   5.783   2.529  19.307 -0.1455 -1.3561  0.0575
 2615TIP3   OH232039   2.258   1.319  18.466  0.4599 -0.2944  0.3826
 2615TIP3    H132040   2.294   1.399  18.428 -1.4971  0.3945 -0.0975
 2615TIP3    H232041   2.214   1.348  18.546 -1.1721 -0.6960 -0.3374
 2616TIP3   OH232042   0.555   2.247  20.617 -0.2738  0.5163 -0.3576
 2616TIP3    H132043   0.474   2.211  20.654 -0.2449 -1.7944 -2.2806
 2616TIP3    H232044   0.621   2.181  20.638  0.3166  0.5915 -1.8811
 2617TIP3   OH232045   4.568   4.966  20.120  0.2973 -0.1431 -0.5567
 2617TIP3    H132046   4.628   4.962  20.194 -0.8669  1.7984  0.5551
 2617TIP3    H232047   4.620   5.002  20.048  1.3616 -1.8073 -0.6760
 2618TIP3   OH232048   2.345   0.452  18.689 -0.1128 -0.0918  0.5959
 2618TIP3    H132049   2.312   0.542  18.679  0.0477 -0.1350 -0.5558
 2618TIP3    H232050   2.274   0.397  18.657  0.1213 -0.3197  0.4608
 2619TIP3   OH232051   4.277   0.132  18.718  0.2568 -0.1916  0.4569
 2619TIP3    H132052   4.363   0.162  18.687  0.6659 -0.9556  0.8031
 2619TIP3    H232053   4.215   0.194  18.681  0.8215 -0.4576 -1.0167
 2620TIP3   OH232054   6.655   0.298  19.055 -0.3827 -0.3716 -0.7738
 2620TIP3    H132055   6.660   0.205  19.030  0.7613 -0.4413 -0.3417
 2620TIP3    H232056   6.666   0.345  18.973  2.7863 -0.6058 -0.5806
 2621TIP3   OH232057   3.817   4.737  18.879  0.1101 -0.0015  0.3266
 2621TIP3    H132058   3.801   4.805  18.945  0.2265  1.0358 -0.6734
 2621TIP3    H232059   3.761   4.763  18.806  2.1995  0.6094 -1.1401
 2622TIP3   OH232060   5.659   4.339  18.866 -0.2590 -0.4187  0.0694
 2622TIP3    H132061   5.606   4.419  18.861  1.8793  1.1980  1.4727
 2622TIP3    H232062   5.711   4.340  18.786 -0.9326 -0.9784 -0.3885
 2623TIP3   OH232063   6.394   2.877  17.327  0.1500 -0.5156 -0.2790
 2623TIP3    H132064   6.362   2.936  17.258 -0.4234  0.4574  0.7786
 2623TIP3    H232065   6.321   2.818  17.344 -0.1855  0.0793  0.3816
 2624TIP3   OH232066   1.651   1.578  19.843 -0.3558  0.7898  0.3417
 2624TIP3    H132067   1.685   1.665  19.819 -1.6503  0.8798 -1.3360
 2624TIP3    H232068   1.648   1.530  19.761  0.3033 -0.8681  1.2524
 2625TIP3   OH232069   6.111   2.979  18.474  0.3011  0.1027 -0.1993
 2625TIP3    H132070   6.155   2.951  18.554  2.3071 -1.1116 -1.6394
 2625TIP3    H232071   6.108   3.074  18.481  2.6288  0.2098  0.3094
 2626TIP3   OH232072   3.301   0.736  19.098  0.0988 -0.7381  0.2125
 2626TIP3    H132073   3.219   0.710  19.058  0.2962 -1.3024  0.1684
 2626TIP3    H232074   3.289   0.829  19.119 -0.8773 -1.0231  1.0134
 2627TIP3   OH232075   0.309   6.016  17.560  0.3695  0.3700 -0.1503
 2627TIP3    H132076   0.356   6.063  17.491  0.8246 -1.2946 -1.0255
 2627TIP3    H232077   0.365   5.941  17.581  0.3456  0.9254  2.2117
 2628TIP3   OH232078   5.478   5.279  17.986 -0.0091 -0.3737 -0.3404
 2628TIP3    H132079   5.529   5.296  18.065 -0.1897  0.2602 -0.3540
 2628TIP3    H232080   5.469   5.365  17.944 -1.3664 -0.4083 -0.1719
 2629TIP3   OH232081   5.618   1.009  18.398 -0.3985  0.1994 -0.0410
 2629TIP3    H132082   5.586   1.059  18.322  1.5224  1.4323 -0.0981
 2629TIP3    H232083   5.554   1.028  18.467 -0.0525  2.3462 -0.2237
 2630TIP3   OH232084   5.588   0.576  18.951 -0.5474 -0.1377  0.0219
 2630TIP3    H132085   5.631   0.498  18.987 -0.3132 -0.3316 -0.6664
 2630TIP3    H232086   5.650   0.609  18.885 -0.6096  0.6751  0.3582
 2631TIP3   OH232087   3.534   3.003  19.200  0.4881 -0.5688 -0.0552
 2631TIP3    H132088   3.472   2.931  19.216  0.2544 -0.3444  0.0635
 2631TIP3    H232089   3.559   2.993  19.108 -0.2815 -0.2374 -0.3087
 2632TIP3   OH232090   1.949   4.363  19.390 -0.3088 -0.0166  0.5460
 2632TIP3    H132091   1.966   4.312  19.311 -0.2839  0.5554  0.1784
 2632TIP3    H232092   1.974   4.452  19.367  0.3888  0.0258  1.4385
 2633TIP3   OH232093   0.793   5.385  19.694  0.3782 -0.2998  0.1995
 2633TIP3    H132094   0.764   5.475  19.683 -0.5816 -0.7228 -0.8356
 2633TIP3    H232095   0.884   5.393  19.724  0.0892  1.0059  0.7967
 2634TIP3   OH232096   6.395   2.002  19.947  1.0401  0.0282 -0.2830
 2634TIP3    H132097   6.323   1.939  19.935  0.6644  0.4643 -0.3257
 2634TIP3    H232098   6.474   1.948  19.945  0.7262 -0.4337 -0.4336
 2635TIP3   OH232099   2.801   4.586  17.742 -0.0993 -0.4823  0.3124
 2635TIP3    H132100   2.766   4.544  17.663  1.2758 -0.3740 -0.3851
 2635TIP3    H232101   2.891   4.553  17.749  0.1471  0.3340  1.2347
 2636TIP3   OH232102   5.127   2.946  19.693  0.2304  0.4511  0.4260
 2636TIP3    H132103   5.062   2.926  19.760 -1.1374  0.8600 -0.7205
 2636TIP3    H232104   5.166   2.861  19.672  0.5512  0.2949  1.5791
 2637TIP3   OH232105   0.170   6.134  18.926 -0.1332  0.6871  0.2034
 2637TIP3    H132106   0.187   6.219  18.886  0.9504 -0.6135 -2.3143
 2637TIP3    H232107   0.095   6.100  18.879  0.7401 -0.6084 -0.3058
 2638TIP3   OH232108   1.457   4.779  18.663 -0.2857  0.8139 -0.0107
 2638TIP3    H132109   1.442   4.703  18.719 -2.9497  0.1559 -1.4347
 2638TIP3    H232110   1.406   4.849  18.704  1.3049  1.5742  0.7193
 2639TIP3   OH232111   3.326   4.055  18.950  0.6502 -0.0200 -0.0303
 2639TIP3    H132112   3.417   4.082  18.962  0.5021  1.0253 -1.1122
 2639TIP3    H232113   3.319   4.033  18.857 -0.2136 -0.0361  0.0280
 2640TIP3   OH232114   2.307   6.112  18.221 -0.2150 -0.4118 -0.6309
 2640TIP3    H132115   2.232   6.053  18.235 -0.7862  0.0975 -1.4626
 2640TIP3    H232116   2.279   6.195  18.261  0.3875 -0.5528  0.0968
 2641TIP3   OH232117   4.108   0.204  20.210 -0.1896  0.4399 -0.2980
 2641TIP3    H132118   4.107   0.202  20.306 -0.3220  0.3695 -0.3009
 2641TIP3    H232119   4.192   0.245  20.188 -1.1080  2.5453 -0.1124
 2642TIP3   OH232120   1.883   1.828  17.974 -0.1868  0.2331 -0.0263
 2642TIP3    H132121   1.920   1.815  17.887  0.9262  1.3998  0.2371
 2642TIP3    H232122   1.792   1.853  17.958  0.2659  1.3942 -0.9240
 2643TIP3   OH232123   6.440   1.284  20.247  0.0776 -0.4455  0.1828
 2643TIP3    H132124   6.411   1.362  20.199 -0.6055 -0.7369  0.1072
 2643TIP3    H232125   6.521   1.311  20.289  0.5479 -0.0891 -0.9060
 2644TIP3   OH232126   1.948   4.090  18.829 -0.0898 -0.0118 -0.3018
 2644TIP3    H132127   1.879   4.148  18.795 -1.7139 -0.1979  2.3978
 2644TIP3    H232128   1.934   4.008  18.782 -2.7151 -0.4897  1.1215
 2645TIP3   OH232129   4.231   6.432  18.403 -0.0918  0.3984  0.2494
 2645TIP3    H132130   4.214   6.516  18.445 -1.7678 -0.7842  2.1035
 2645TIP3    H232131   4.264   6.376  18.473 -2.9755 -1.6496  0.1526
 2646TIP3   OH232132   4.794   0.277  17.968  0.4942  0.4572 -0.3228
 2646TIP3    H132133   4.740   0.350  17.998 -1.6167 -1.5459  1.0737
 2646TIP3    H232134   4.779   0.274  17.873  0.2455  1.5257 -0.3305
 2647TIP3   OH232135   5.222   6.350  20.141 -0.6584  1.2461 -0.7955
 2647TIP3    H132136   5.211   6.360  20.047 -1.7925  0.1806 -0.8046
 2647TIP3    H232137   5.133   6.345  20.175 -0.2813 -0.8144  0.0264
 2648TIP3   OH232138   0.985   2.482  19.836 -0.3280 -0.6542  0.3042
 2648TIP3    H132139   0.971   2.435  19.918  0.9526 -1.0689  0.3095
 2648TIP3    H232140   1.073   2.457  19.809  0.1531  1.2656 -0.0243
 2649TIP3   OH232141   3.871   0.925  19.568  0.3112  0.0317  0.1225
 2649TIP3    H132142   3.857   0.836  19.600 -1.3386  0.4923  0.7577
 2649TIP3    H232143   3.797   0.975  19.601  0.0132  1.1726 -2.0637
 2650TIP3   OH232144   3.595   4.049  18.011  0.9688  0.3086  0.0061
 2650TIP3    H132145   3.587   3.986  17.940  1.4905 -2.7447  2.4121
 2650TIP3    H232146   3.507   4.088  18.019 -0.1563 -2.0540 -0.0016
 2651TIP3   OH232147   4.288   5.763  18.598  0.4757  0.1391 -0.1280
 2651TIP3    H132148   4.371   5.801  18.625  0.7735  0.2328 -1.1390
 2651TIP3    H232149   4.248   5.733  18.679  1.0969  0.8857  0.4684
 2652TIP3   OH232150   3.619   2.777  17.856  0.0163 -0.2921 -0.6387
 2652TIP3    H132151   3.633   2.795  17.763  1.8055 -0.2552 -0.4037
 2652TIP3    H232152   3.649   2.687  17.867 -0.5546 -0.4263 -0.1670
 2653TIP3   OH232153   2.459   6.088  16.836 -0.6732  0.0683  0.0491
 2653TIP3    H132154   2.366   6.103  16.851 -0.7995  0.1121 -0.7736
 2653TIP3    H232155   2.489   6.046  16.917 -1.5668 -0.6565  0.0277
 2654TIP3   OH232156   4.453   0.436  18.837 -0.8375  0.0554  0.2486
 2654TIP3    H132157   4.506   0.381  18.779 -2.3351 -1.1625 -0.0339
 2654TIP3    H232158   4.370   0.446  18.791 -0.8666  1.9601  0.6638
 2655TIP3   OH232159   6.043   4.803  19.094  0.0303  0.2476  0.4775
 2655TIP3    H132160   6.132   4.838  19.081  0.2758 -0.6236 -0.2815
 2655TIP3    H232161   6.038   4.728  19.035 -0.8917 -0.2874  1.2092
 2656TIP3   OH232162   2.956   2.764  20.094  0.4034 -0.3723 -0.2908
 2656TIP3    H132163   3.043   2.723  20.092 -0.0936 -1.4735 -0.0901
 2656TIP3    H232164   2.907   2.713  20.159 -0.9099 -0.8846 -1.6123
 2657TIP3   OH232165   4.805   0.408  18.780  0.2239  0.0487  0.0399
 2657TIP3    H132166   4.762   0.339  18.830  0.7887 -0.3289  0.0157
 2657TIP3    H232167   4.835   0.470  18.847 -1.2019  0.8183 -0.0071
 2658TIP3   OH232168   0.860   4.799  19.127  0.0256  0.0692  0.2701
 2658TIP3    H132169   0.800   4.854  19.177 -0.4032 -2.1757  2.4164
 2658TIP3    H232170   0.808   4.723  19.102  1.6311 -1.4119  1.2181
 2659TIP3   OH232171   0.229   3.218  19.816  0.1757 -0.4615  0.3202
 2659TIP3    H132172   0.226   3.260  19.902  0.5389  3.0048 -1.1750
 2659TIP3    H232173   0.319   3.232  19.786 -0.2873 -0.3949 -1.1405
 2660TIP3   OH232174   2.567   0.900  17.615  0.4275  0.2174  0.5262
 2660TIP3    H132175   2.616   0.958  17.557 -0.3367 -0.1763 -0.5691
 2660TIP3    H232176   2.592   0.926  17.703 -0.1895  2.4959  0.0945
 2661TIP3   OH232177   5.481   4.667  17.771  0.3156  0.0879 -0.6241
 2661TIP3    H132178   5.549   4.653  17.706  0.3682  2.5258 -1.2211
 2661TIP3    H232179   5.489   4.593  17.831  2.7767 -0.2711 -1.2764
 2662TIP3   OH232180   3.015   5.321  17.554 -0.0884 -0.9761 -0.6654
 2662TIP3    H132181   3.087   5.332  17.491 -0.9273 -1.3374 -1.7212
 2662TIP3    H232182   3.017   5.400  17.607  0.1974 -0.3187 -1.6341
 2663TIP3   OH232183   0.286   5.932  20.834  0.0614 -0.1016  0.4152
 2663TIP3    H132184   0.214   5.990  20.811 -0.3121 -0.6045  0.3036
 2663TIP3    H232185   0.364   5.977  20.802 -0.4775 -1.3174 -3.1313
 2664TIP3   OH232186   6.590   3.873  17.739 -0.2983 -0.0611  0.1536
 2664TIP3    H132187   6.664   3.907  17.688 -0.3670 -0.9179 -0.5275
 2664TIP3    H232188   6.516   3.877  17.680 -0.3383 -1.2551  0.0960
 2665TIP3   OH232189   3.638   3.499  17.693  0.2915 -0.1661 -0.0098
 2665TIP3    H132190   3.595   3.455  17.619 -1.3535  0.5048  0.4856
 2665TIP3    H232191   3.663   3.584  17.658  0.8348 -0.3927 -0.1792
 2666TIP3   OH232192   3.806   2.445  17.789  0.2289 -0.4115 -0.0335
 2666TIP3    H132193   3.851   2.362  17.807  2.2731  0.4822 -0.6796
 2666TIP3    H232194   3.822   2.497  17.868 -1.7056 -0.8355  0.6960
 2667TIP3   OH232195   0.666   3.364  17.580 -0.1915  0.1037 -0.3261
 2667TIP3    H132196   0.672   3.406  17.494 -2.7337  3.1667  0.7818
 2667TIP3    H232197   0.649   3.436  17.641 -1.7274 -2.2522  2.2712
 2668TIP3   OH232198   6.127   2.910  20.511 -0.1081  0.0289  0.0479
 2668TIP3    H132199   6.139   2.990  20.459  0.3421 -0.6551 -0.9297
 2668TIP3    H232200   6.041   2.921  20.552 -0.5819  0.5017 -1.0342
 2669TIP3   OH232201   5.930   0.211  19.100  0.1713  0.8286  0.5301
 2669TIP3    H132202   5.965   0.128  19.132 -0.4847  0.4449  0.2756
 2669TIP3    H232203   5.944   0.273  19.172  0.0344  0.3312  0.9869
 2670TIP3   OH232204   5.720   1.566  20.593 -0.1559 -0.2717 -0.6757
 2670TIP3    H132205   5.749   1.594  20.680  0.9588 -0.2660 -1.0327
 2670TIP3    H232206   5.742   1.640  20.536 -0.2122 -0.5732 -1.0902
 2671TIP3   OH232207   1.308   0.780  19.329  0.6097  0.0321  0.5823
 2671TIP3    H132208   1.225   0.734  19.338  0.7182 -0.5051 -0.8009
 2671TIP3    H232209   1.327   0.776  19.235  4.2433 -3.5631  1.1684
 2672TIP3   OH232210   2.552   4.157  18.296  0.4066  0.0491  0.0166
 2672TIP3    H132211   2.604   4.234  18.272  1.3009  0.2077  2.2417
 2672TIP3    H232212   2.611   4.083  18.281  0.1269 -0.0736 -0.5153
 2673TIP3   OH232213   2.081   0.080  19.886  0.1377  0.2212  0.0406
 2673TIP3    H132214   2.162   0.086  19.835  0.2498  2.0330  0.3467
 2673TIP3    H232215   2.104   0.028  19.962  0.7364 -0.1452 -0.3804
 2674TIP3   OH232216   4.063   5.884  17.277 -0.2461 -0.1988 -0.1394
 2674TIP3    H132217   4.139   5.925  17.318  0.4891 -0.9970 -0.6448
 2674TIP3    H232218   4.056   5.926  17.191  0.3331 -0.8878 -0.5427
 2675TIP3   OH232219   5.434   2.356  20.604  0.1404  0.3282 -0.2314
 2675TIP3    H132220   5.389   2.441  20.600 -0.2214  0.0969 -1.2207
 2675TIP3    H232221   5.523   2.375  20.576 -0.0184  0.3356 -0.7423
 2676TIP3   OH232222   5.741   6.490  20.464 -0.4689 -0.3313 -0.0229
 2676TIP3    H132223   5.817   6.435  20.482 -1.4448 -1.6977  0.0893
 2676TIP3    H232224   5.699   6.450  20.388  0.2640  1.8785 -1.7077
 2677TIP3   OH232225   3.714   5.869  20.485 -0.1584 -0.8836 -0.0749
 2677TIP3    H132226   3.702   5.920  20.565 -0.3368 -1.4501  0.2646
 2677TIP3    H232227   3.762   5.927  20.426  0.4828 -0.6737  0.6501
 2678TIP3   OH232228   3.575   1.602  18.993  0.2026  0.2758 -0.7805
 2678TIP3    H132229   3.658   1.559  18.975  0.6999  0.7361  0.3105
 2678TIP3    H232230   3.596   1.671  19.056 -0.6352  1.8799 -2.1672
 2679TIP3   OH232231   0.394   5.613  20.337  0.5668  0.2678 -0.6618
 2679TIP3    H132232   0.382   5.700  20.299  0.2962  0.1495 -0.8496
 2679TIP3    H232233   0.432   5.629  20.423  2.3910  0.4957 -1.4679
 2680TIP3   OH232234   6.692   2.700  20.075  0.1751  0.6232 -0.3752
 2680TIP3    H132235   6.753   2.637  20.037 -1.0449 -0.9810  0.2059
 2680TIP3    H232236   6.745   2.778  20.090  1.8623 -0.3957 -0.6832
 2681TIP3   OH232237   2.950   5.225  18.747 -0.0714 -0.3420  0.2460
 2681TIP3    H132238   2.993   5.187  18.824  1.1838  1.4669  0.5084
 2681TIP3    H232239   3.007   5.201  18.674 -1.2063 -1.9671 -0.1520
 2682TIP3   OH232240   0.030   5.310  18.997 -0.3735 -0.3601 -0.1608
 2682TIP3    H132241  -0.003   5.286  18.910 -1.0088 -0.4904  0.1078
 2682TIP3    H232242   0.009   5.403  19.005  1.1841  0.0650 -0.7999
 2683TIP3   OH232243   4.292   0.710  19.068  0.5741  0.3902 -0.1229
 2683TIP3    H132244   4.200   0.716  19.042 -0.0220 -2.5690  0.9697
 2683TIP3    H232245   4.309   0.794  19.112 -1.7381  0.8317  0.0762
 2684TIP3   OH232246   2.521   2.383  20.139  0.0697  0.3929  0.6043
 2684TIP3    H132247   2.595   2.407  20.083 -1.1872  0.4913 -1.1315
 2684TIP3    H232248   2.538   2.427  20.222  2.1958 -0.0260  0.4589
 2685TIP3   OH232249   2.558   0.881  20.050  0.1831  0.0037  0.0949
 2685TIP3    H132250   2.636   0.841  20.013  1.0314  1.0353  0.7304
 2685TIP3    H232251   2.542   0.959  19.997 -0.3311 -0.1202  0.0571
 2686TIP3   OH232252   3.858   2.628  20.531  0.2331  0.3553 -0.1627
 2686TIP3    H132253   3.915   2.695  20.570  1.5040 -0.8872  0.1798
 2686TIP3    H232254   3.780   2.627  20.587  0.6437  0.8216  0.4306
 2687TIP3   OH232255   2.048   5.456  19.292 -0.1632 -0.0666 -0.0590
 2687TIP3    H132256   2.054   5.502  19.376 -0.8266 -1.1820  0.6119
 2687TIP3    H232257   2.111   5.384  19.300 -0.8015 -0.6477 -0.2044
 2688TIP3   OH232258   6.427   1.609  18.311  0.3032  0.2286  0.7681
 2688TIP3    H132259   6.514   1.588  18.345  0.6006  0.2570  0.0445
 2688TIP3    H232260   6.370   1.611  18.388  0.0846 -3.8186  0.9216
 2689TIP3   OH232261   6.456   0.615  17.997  0.0658  0.3263  0.0463
 2689TIP3    H132262   6.384   0.655  17.949 -1.0764  1.7338  2.7127
 2689TIP3    H232263   6.421   0.531  18.027  0.1279  0.2774 -0.0171
 2690TIP3   OH232264   5.743   4.890  20.023 -0.1137 -0.1160  0.3670
 2690TIP3    H132265   5.793   4.876  19.943  0.9536  1.6607  0.6768
 2690TIP3    H232266   5.653   4.900  19.994 -0.2197 -2.3242 -0.2980
 2691TIP3   OH232267   2.067   0.263  18.141 -0.3220  0.0775 -0.0798
 2691TIP3    H132268   1.997   0.198  18.131 -0.1067 -0.0248 -1.0635
 2691TIP3    H232269   2.038   0.338  18.089  0.9168 -0.5042 -1.6929
 2692TIP3   OH232270   5.280   5.063  19.630  0.0906  0.4769 -0.0147
 2692TIP3    H132271   5.370   5.089  19.612  1.2299 -0.9242  3.0343
 2692TIP3    H232272   5.283   4.969  19.644 -2.0237  0.2629 -0.5761
 2693TIP3   OH232273   1.161   2.091  19.572  0.3001 -0.3141 -0.7601
 2693TIP3    H132274   1.218   2.050  19.637 -0.3739  1.9833  1.4529
 2693TIP3    H232275   1.088   2.030  19.561  0.0940 -0.4726  1.2055
 2694TIP3   OH232276   6.402   5.321  16.804 -0.0553  0.3576 -0.0190
 2694TIP3    H132277   6.419   5.398  16.750  0.9682  0.5268  0.5241
 2694TIP3    H232278   6.382   5.357  16.891  0.1891  0.0203  0.1768
 2695TIP3   OH232279   6.561   1.740  18.092 -0.5121 -0.1018 -0.0149
 2695TIP3    H132280   6.499   1.809  18.071 -0.9787 -0.6886 -0.6217
 2695TIP3    H232281   6.508   1.673  18.137  0.0497  0.1872  1.1141
 2696TIP3   OH232282   5.506   4.230  18.120 -0.1104 -0.3477 -0.0273
 2696TIP3    H132283   5.547   4.212  18.035 -0.0813  1.6333 -0.4842
 2696TIP3    H232284   5.428   4.175  18.121 -0.1911 -0.2901 -1.3943
 2697TIP3   OH232285   6.089   2.626  20.478 -0.0589 -0.5036  0.2562
 2697TIP3    H132286   6.103   2.714  20.514  0.0417 -0.4853  0.1720
 2697TIP3    H232287   6.145   2.569  20.532  2.2063 -0.1259 -1.5380
 2698TIP3   OH232288   0.463   2.757  20.627  0.8164  0.0833  0.9005
 2698TIP3    H132289   0.398   2.714  20.571  1.4141  0.5018 -0.1348
 2698TIP3    H232290   0.504   2.823  20.571  1.1504  0.8011  1.9524
 2699TIP3   OH232291   2.606   1.579  18.865 -0.3003 -0.5729  1.0136
 2699TIP3    H132292   2.619   1.526  18.786 -0.3526 -1.0349  1.3112
 2699TIP3    H232293   2.527   1.629  18.847  0.0740 -0.1600  0.4955
 2700TIP3   OH232294   5.817   2.138  20.445 -0.3232 -0.0077  0.1867
 2700TIP3    H132295   5.734   2.151  20.490 -0.7733  3.1350 -1.3028
 2700TIP3    H232296   5.793   2.105  20.359  0.2624 -2.1246  0.7831
 2701TIP3   OH232297   3.341   3.677  17.964  0.0951  0.6635  0.3773
 2701TIP3    H132298   3.404   3.607  17.983 -0.0638  0.2372 -0.6294
 2701TIP3    H232299   3.393   3.757  17.961  0.4533  0.4299  0.3808
 2702TIP3   OH232300   1.296   6.169  18.431 -0.8547 -0.5518  0.0358
 2702TIP3    H132301   1.248   6.155  18.350 -1.3456 -0.3545  0.2873
 2702TIP3    H232302   1.229   6.169  18.499 -1.0768  3.3892  0.0765
 2703TIP3   OH232303   5.518   3.183  19.806 -0.0451  0.1131  0.0829
 2703TIP3    H132304   5.598   3.141  19.775 -0.3513 -0.7284  0.3944
 2703TIP3    H232305   5.527   3.275  19.781  1.1184  0.0772  0.3350
 2704TIP3   OH232306   0.795   3.092  17.114  0.9590 -0.0256  0.5479
 2704TIP3    H132307   0.852   3.047  17.177  1.1043  1.6330  1.6430
 2704TIP3    H232308   0.716   3.037  17.110  0.7471  0.0746  2.5509
 2705TIP3   OH232309   4.503   6.204  16.969 -0.5022  0.6042 -0.0619
 2705TIP3    H132310   4.472   6.117  16.993  1.9357 -1.0477 -2.4275
 2705TIP3    H232311   4.589   6.212  17.009 -0.3688  1.6265 -0.5051
 2706TIP3   OH232312   4.843   4.641  17.945  0.0500  0.2111 -0.5826
 2706TIP3    H132313   4.781   4.590  17.997  0.6037  1.0908  0.9802
 2706TIP3    H232314   4.928   4.598  17.959  0.0599 -0.1051 -1.5336
 2707TIP3   OH232315   2.837   4.268  17.367 -0.7241  0.1311  0.7038
 2707TIP3    H132316   2.762   4.213  17.343  1.7574 -2.6422 -1.4401
 2707TIP3    H232317   2.871   4.299  17.283  1.1860  0.4221  1.5449
 2708TIP3   OH232318   1.586   2.135  18.885 -0.1939 -0.1328 -0.4360
 2708TIP3    H132319   1.508   2.125  18.939 -0.5651 -1.3594 -1.1371
 2708TIP3    H232320   1.618   2.223  18.903 -1.7649  0.4089 -0.1505
 2709TIP3   OH232321   4.558   4.542  18.907  0.2805  0.0925  0.3624
 2709TIP3    H132322   4.485   4.600  18.929 -1.8471 -1.4020 -2.1375
 2709TIP3    H232323   4.562   4.480  18.980 -0.2107  0.8401  1.0428
 2710TIP3   OH232324   5.712   0.689  20.955 -0.1373  0.8078  0.2066
 2710TIP3    H132325   5.655   0.612  20.951  1.9329 -0.8333  0.9349
 2710TIP3    H232326   5.777   0.676  20.886 -0.7284  2.8028 -0.8140
 2711TIP3   OH232327   6.582   2.646  17.499  0.0064  0.0054 -0.3558
 2711TIP3    H132328   6.648   2.576  17.499 -0.7455 -0.7386 -1.4929
 2711TIP3    H232329   6.500   2.602  17.517 -0.2423  0.8912  0.7789
 2712TIP3   OH232330   6.680   4.103  17.882 -0.0929  0.4409  0.5448
 2712TIP3    H132331   6.714   4.050  17.954 -0.9416  0.2774  0.8346
 2712TIP3    H232332   6.664   4.041  17.811 -0.5050  0.4023  0.6717
 2713TIP3   OH232333   0.981   4.219  18.203 -0.2560 -0.1322  0.0861
 2713TIP3    H132334   0.910   4.284  18.206 -1.1623 -1.0815 -0.0571
 2713TIP3    H232335   0.979   4.178  18.290  1.1264  0.8422  0.6087
 2714TIP3   OH232336   1.428   4.239  18.403 -0.0163 -0.0483  0.4957
 2714TIP3    H132337   1.351   4.285  18.370 -2.1606 -2.5154  1.5843
 2714TIP3    H232338   1.405   4.218  18.494  2.1676 -0.4531  0.9963
 2715TIP3   OH232339   0.335   0.496  20.135 -0.4154  0.0074  0.6534
 2715TIP3    H132340   0.290   0.472  20.054 -1.0295  1.6091  0.4767
 2715TIP3    H232341   0.377   0.579  20.115  0.5747 -0.2523  1.5765
 2716TIP3   OH232342   5.220   3.852  18.650 -0.2249 -0.1491  0.1863
 2716TIP3    H132343   5.295   3.912  18.654 -0.8994  0.7280 -0.1039
 2716TIP3    H232344   5.253   3.777  18.599  0.4502  0.2329  0.0489
 2717TIP3   OH232345   0.400   4.085  19.408 -0.0784  0.1132  0.1397
 2717TIP3    H132346   0.449   4.070  19.327  1.5589  0.2347  1.0741
 2717TIP3    H232347   0.364   4.173  19.398  2.2842  1.2042  0.5567
 2718TIP3   OH232348   4.191   6.033  18.611  0.0617  0.7306  0.0771
 2718TIP3    H132349   4.221   5.960  18.557 -0.8877  0.6278 -0.3334
 2718TIP3    H232350   4.126   5.995  18.670 -2.2798  1.6088 -1.7697
 2719TIP3   OH232351   4.551   5.071  19.805 -0.3871 -0.2298  0.5855
 2719TIP3    H132352   4.625   5.093  19.861 -0.0510 -0.4415  0.2256
 2719TIP3    H232353   4.484   5.135  19.828 -0.4631 -0.6789  1.6466
 2720TIP3   OH232354   4.253   3.119  18.848 -0.1727 -0.4743 -0.4470
 2720TIP3    H132355   4.276   3.099  18.758 -1.1558 -1.8306 -0.4213
 2720TIP3    H232356   4.208   3.041  18.880 -2.0311  0.8791  0.4528
 2721TIP3   OH232357   5.162   5.665  19.499 -0.0025  0.7995 -0.1187
 2721TIP3    H132358   5.122   5.749  19.517 -0.7015  0.5780 -0.6021
 2721TIP3    H232359   5.151   5.653  19.404  0.3990  0.3249 -0.1123
 2722TIP3   OH232360   4.711   3.889  18.273  0.3551 -0.5187 -0.2846
 2722TIP3    H132361   4.782   3.905  18.337  1.2133 -0.2277 -1.2808
 2722TIP3    H232362   4.732   3.947  18.200 -0.0949 -1.5359 -1.2395
 2723TIP3   OH232363   3.524   0.772  20.625 -0.3545 -0.1067  0.2070
 2723TIP3    H132364   3.543   0.727  20.543 -1.2882 -2.0915  1.0060
 2723TIP3    H232365   3.610   0.788  20.664  0.0227 -0.8212 -0.3060
 2724TIP3   OH232366   0.527   3.043  18.783 -0.4051 -0.2839  0.6580
 2724TIP3    H132367   0.500   3.131  18.808 -0.6000 -0.6609  1.8824
 2724TIP3    H232368   0.622   3.043  18.793 -0.1445  0.3870 -1.4452
 2725TIP3   OH232369   1.975   6.061  20.832 -0.4269  0.2052 -0.3196
 2725TIP3    H132370   2.067   6.083  20.821  0.1295 -2.1902 -1.1170
 2725TIP3    H232371   1.975   5.979  20.881 -1.9949 -0.8735 -1.9755
 2726TIP3   OH232372   6.445   2.320  18.792 -0.2275  0.4251 -0.0418
 2726TIP3    H132373   6.382   2.270  18.740  0.7821 -1.6243  0.5998
 2726TIP3    H232374   6.429   2.411  18.768 -2.9487 -0.0618 -0.4178
 2727TIP3   OH232375   5.400   3.033  19.413 -0.6402 -0.7187  0.3630
 2727TIP3    H132376   5.418   3.064  19.325  0.3596 -0.3437  0.6786
 2727TIP3    H232377   5.305   3.027  19.418 -0.6859 -2.3475 -1.2660
 2728TIP3   OH232378   4.139   4.061  18.419 -0.3685  0.6397 -0.5352
 2728TIP3    H132379   4.059   4.030  18.462  1.7919 -1.6666  2.2233
 2728TIP3    H232380   4.123   4.154  18.402 -2.8355  0.7975  1.9204
 2729TIP3   OH232381   0.450   1.591  18.795 -0.7061  0.3502  0.1361
 2729TIP3    H132382   0.450   1.562  18.887 -2.3023  0.7953  0.2951
 2729TIP3    H232383   0.409   1.677  18.797 -0.5476  0.4626 -0.9754
 2730TIP3   OH232384   6.482   4.670  17.237 -0.6899  0.0631 -0.3535
 2730TIP3    H132385   6.508   4.723  17.161 -1.9474  1.2289 -0.0188
 2730TIP3    H232386   6.428   4.729  17.289  1.0529 -0.3464  2.0548
 2731TIP3   OH232387   1.271   1.706  19.828 -0.1814 -0.7623 -0.1239
 2731TIP3    H132388   1.177   1.687  19.833 -0.7799  0.8496 -3.0887
 2731TIP3    H232389   1.275   1.800  19.810  2.0819 -0.6137  0.8750
 2732TIP3   OH232390   2.222   3.092  17.203  0.2624  0.4126  0.0523
 2732TIP3    H132391   2.216   3.179  17.163  1.1238  0.0246 -0.9591
 2732TIP3    H232392   2.282   3.043  17.146  0.1722 -0.6968  0.8769
 2733TIP3   OH232393   6.378   5.313  17.198  0.5484 -0.4189  0.4532
 2733TIP3    H132394   6.393   5.233  17.248  0.3844 -0.7348  0.0038
 2733TIP3    H232395   6.436   5.378  17.238  1.8837 -1.1728 -0.1734
 2734TIP3   OH232396   6.521   1.882  19.153  0.4085 -0.0316  0.0978
 2734TIP3    H132397   6.561   1.801  19.184  0.4809 -1.1277 -2.6278
 2734TIP3    H232398   6.593   1.930  19.112  0.1010  0.8279  0.5421
 2735TIP3   OH232399   5.750   0.899  18.756 -0.2238  0.3691 -0.3172
 2735TIP3    H132400   5.790   0.842  18.691 -0.0605  1.3695 -1.1034
 2735TIP3    H232401   5.655   0.884  18.747 -0.1986  0.4720 -0.7508
 2736TIP3   OH232402   5.863   6.351  20.069  0.0505 -0.4288 -0.3793
 2736TIP3    H132403   5.893   6.354  19.977 -0.2813 -0.2394 -0.4805
 2736TIP3    H232404   5.809   6.272  20.074  1.7472 -1.6178  0.1694
 2737TIP3   OH232405   1.759   2.479  19.568  0.5166 -0.3248 -0.6080
 2737TIP3    H132406   1.793   2.566  19.545  1.9733 -0.3969  1.0332
 2737TIP3    H232407   1.678   2.497  19.616 -0.4132 -0.0112 -2.2450
 2738TIP3   OH232408   3.362   4.692  20.373  0.5773 -0.0650  0.0962
 2738TIP3    H132409   3.358   4.670  20.280  0.9692 -0.0345  0.0657
 2738TIP3    H232410   3.275   4.673  20.406  0.4306 -0.0679 -0.2809
 2739TIP3   OH232411   6.674   1.610  18.343 -0.2796  0.2771 -0.5004
 2739TIP3    H132412   6.710   1.660  18.416 -1.2260 -0.2319  0.3473
 2739TIP3    H232413   6.743   1.609  18.277  0.0616  1.9809 -0.2011
 2740TIP3   OH232414   0.055   1.112  18.777  0.1259  0.3453 -0.3105
 2740TIP3    H132415   0.062   1.104  18.872  0.4934 -1.2220 -0.4524
 2740TIP3    H232416   0.129   1.062  18.743  0.8980  2.1329 -1.4244
 2741TIP3   OH232417   1.943   3.239  19.643 -0.6171 -0.3521 -0.1511
 2741TIP3    H132418   1.985   3.272  19.563  0.5725 -1.5543 -0.0629
 2741TIP3    H232419   2.004   3.261  19.713  0.5233 -3.1100 -0.1563
 2742TIP3   OH232420   2.224   5.249  19.349 -0.3417  0.0847 -0.0735
 2742TIP3    H132421   2.214   5.154  19.355 -0.9928  0.0928 -0.8692
 2742TIP3    H232422   2.314   5.262  19.318 -1.0928 -0.3954 -2.6554
 2743TIP3   OH232423   3.961   3.494  18.611  0.0036 -0.1257 -0.2103
 2743TIP3    H132424   4.017   3.460  18.541 -0.4794 -0.0530 -0.6374
 2743TIP3    H232425   3.972   3.589  18.606  1.4042 -0.2013  1.0265
 2744TIP3   OH232426   4.235   6.018  17.942  0.4247  0.3780  0.0166
 2744TIP3    H132427   4.165   5.959  17.970 -0.5121  1.2321 -0.4588
 2744TIP3    H232428   4.285   5.968  17.878  0.3535 -0.3007  0.4861
 2745TIP3   OH232429   3.058   4.509  17.704  0.4957 -0.4873  0.1799
 2745TIP3    H132430   3.124   4.576  17.690  1.7597 -1.7001  0.1286
 2745TIP3    H232431   3.090   4.433  17.654 -0.9146 -1.1132  0.1815
 2746TIP3   OH232432   3.473   3.771  19.411 -0.0421  0.5496  0.5200
 2746TIP3    H132433   3.451   3.704  19.475 -0.7753  0.5859  0.3130
 2746TIP3    H232434   3.496   3.721  19.332  0.2010  0.5254  0.6046
 2747TIP3   OH232435   0.979   0.922  17.089  0.4234 -0.5935  0.0805
 2747TIP3    H132436   0.904   0.919  17.031 -0.7906 -1.4968  1.6179
 2747TIP3    H232437   0.991   0.831  17.118 -1.0095  0.1440  3.5707
 2748TIP3   OH232438   6.270   6.436  19.337 -0.0756 -0.0741  0.0035
 2748TIP3    H132439   6.362   6.427  19.312  0.0625  0.5549  0.2702
 2748TIP3    H232440   6.267   6.516  19.390 -0.7751 -0.0962  0.0060
 2749TIP3   OH232441   3.289   4.499  17.919 -0.2537 -0.1162 -0.6511
 2749TIP3    H132442   3.359   4.439  17.946  0.1704  0.7696  0.2801
 2749TIP3    H232443   3.208   4.455  17.944 -0.0507 -1.0963 -1.6231
 2750TIP3   OH232444   2.758   0.702  19.979  0.2757  0.1870  0.4608
 2750TIP3    H132445   2.838   0.745  20.008 -0.2960  1.3075  0.4375
 2750TIP3    H232446   2.752   0.624  20.034  1.0894  0.3796  0.8452
 2751TIP3   OH232447   1.633   4.997  19.183 -0.2624  0.4699  0.0055
 2751TIP3    H132448   1.554   5.012  19.132  0.0832 -1.1515 -1.1053
 2751TIP3    H232449   1.704   5.026  19.126  0.0425  0.2215  0.2505
 2752TIP3   OH232450   5.363   1.965  17.447  0.0561  0.3565  0.0450
 2752TIP3    H132451   5.379   1.922  17.363 -0.5369  1.7211 -0.7918
 2752TIP3    H232452   5.272   1.994  17.443 -0.2673 -0.3491  1.5483
 2753TIP3   OH232453   6.222   6.274  17.427  0.0300 -0.0243  0.0554
 2753TIP3    H132454   6.174   6.196  17.401  0.5191 -0.6466  0.9654
 2753TIP3    H232455   6.300   6.274  17.371  0.7054 -0.9445  0.9622
 2754TIP3   OH232456   2.303   4.960  19.867 -0.4916 -0.0601 -0.4923
 2754TIP3    H132457   2.210   4.961  19.846 -0.3926 -0.2931 -0.9547
 2754TIP3    H232458   2.332   5.050  19.850 -0.3352 -0.3242 -1.7708
 2755TIP3   OH232459   3.081   3.748  20.055 -0.4936 -0.3042 -0.2099
 2755TIP3    H132460   3.075   3.652  20.051 -2.7404 -0.3016  1.4306
 2755TIP3    H232461   3.173   3.765  20.076 -0.3238 -2.1966  0.8121
 2756TIP3   OH232462   5.157   1.751  19.970 -0.0372  0.3689  0.7417
 2756TIP3    H132463   5.098   1.797  19.911  0.5598  0.9611  0.5926
 2756TIP3    H232464   5.218   1.704  19.913  0.0849  0.3510  0.8836
 2757TIP3   OH232465   3.628   1.016  17.765 -0.4820  0.6128  0.6888
 2757TIP3    H132466   3.543   1.053  17.742 -0.0349  1.3345  0.1748
 2757TIP3    H232467   3.675   1.011  17.682 -0.3260 -0.5861  0.8363
 2758TIP3   OH232468   6.079   3.026  19.598 -0.0195 -0.4317  0.1581
 2758TIP3    H132469   6.067   3.121  19.599 -0.0421 -0.3481 -2.3244
 2758TIP3    H232470   6.173   3.014  19.584 -0.2058 -0.7316 -0.8916
 2759TIP3   OH232471   4.807   4.234  19.580 -0.1944  0.5619  0.0798
 2759TIP3    H132472   4.737   4.196  19.527  1.0482 -0.8630 -0.6211
 2759TIP3    H232473   4.837   4.161  19.635  0.5557  1.2111  0.5572
 2760TIP3   OH232474   2.548   1.920  19.723  0.2699 -0.1050  0.2798
 2760TIP3    H132475   2.531   1.842  19.670 -0.2237  0.9631 -1.2078
 2760TIP3    H232476   2.632   1.902  19.767  0.5292 -1.1621 -0.6086
 2761TIP3   OH232477   2.869   4.829  17.895  0.1125  0.7395  0.1638
 2761TIP3    H132478   2.959   4.847  17.868  0.1714  0.5567  0.2371
 2761TIP3    H232479   2.840   4.757  17.838  0.3379  0.1478  0.7791
 2762TIP3   OH232480   1.896   0.574  18.604  0.2842  0.1031 -0.0448
 2762TIP3    H132481   1.984   0.581  18.567  0.3814  1.3124  0.3620
 2762TIP3    H232482   1.911   0.553  18.696  0.0419 -3.2031 -0.6205
 2763TIP3   OH232483   3.069   3.041  18.160 -0.1223  0.1355  0.1445
 2763TIP3    H132484   3.047   3.109  18.097  1.4184  1.2971  0.8243
 2763TIP3    H232485   3.090   2.965  18.106 -0.3886  0.6210 -0.6672
 2764TIP3   OH232486   5.192   2.950  18.448  0.3976  0.1326 -0.5141
 2764TIP3    H132487   5.279   2.945  18.409  0.0194  1.8847 -1.7013
 2764TIP3    H232488   5.133   2.960  18.374 -0.7543 -0.2999  0.3145
 2765TIP3   OH232489   3.907   4.003  18.534  0.6293  0.0328  0.6359
 2765TIP3    H132490   3.940   4.066  18.598  0.9894  0.3844  0.1077
 2765TIP3    H232491   3.813   3.997  18.553  0.6329  0.5424  0.8422
 2766TIP3   OH232492   0.793   3.600  16.641 -0.2467  0.4006  0.5283
 2766TIP3    H132493   0.768   3.517  16.601 -0.1148 -0.3466  1.9259
 2766TIP3    H232494   0.872   3.626  16.594 -1.4950  0.8996 -1.4149
 2767TIP3   OH232495   1.970   2.996  19.974  0.6733 -0.1496 -0.0846
 2767TIP3    H132496   1.959   2.954  19.888 -0.8495 -0.0311  0.0302
 2767TIP3    H232497   2.005   3.083  19.953  1.4730 -0.5566 -0.4864
 2768TIP3   OH232498   2.283   4.584  20.587  0.3753 -0.3139  0.8549
 2768TIP3    H132499   2.371   4.596  20.550  0.0198 -0.2930  0.0022
 2768TIP3    H232500   2.296   4.521  20.658  0.5540 -3.0455 -1.4588
 2769TIP3   OH232501   1.372   2.037  19.073 -0.3526  0.1048 -0.2134
 2769TIP3    H132502   1.443   1.982  19.107  0.1069  0.3583 -0.7574
 2769TIP3    H232503   1.307   2.038  19.144  0.3799  0.2443  0.4720
 2770TIP3   OH232504   2.162   2.025  18.272 -0.4956 -0.0367 -0.1315
 2770TIP3    H132505   2.104   2.064  18.337  0.2699 -0.7196  0.9960
 2770TIP3    H232506   2.115   1.948  18.240 -1.2988  0.8410 -1.1508
 2771TIP3   OH232507   5.032   2.651  19.742 -0.0313 -0.3485  0.0924
 2771TIP3    H132508   5.046   2.660  19.837 -3.9493  2.4776  0.6456
 2771TIP3    H232509   4.996   2.563  19.732 -2.2762  0.2734  1.8114
 2772TIP3   OH232510   0.305   4.350  19.440 -0.2822 -0.1718 -0.3924
 2772TIP3    H132511   0.342   4.342  19.529  1.3382 -0.9814 -1.0976
 2772TIP3    H232512   0.237   4.417  19.449  0.9274  0.9393  1.1346
 2773TIP3   OH232513   5.475   6.589  19.072  0.1060 -0.4777  0.1026
 2773TIP3    H132514   5.493   6.504  19.033 -1.5262  0.3446 -2.7671
 2773TIP3    H232515   5.393   6.577  19.120  0.9054 -0.9428  1.3924
 2774TIP3   OH232516   3.185   0.391  20.082 -0.5569 -0.1737 -0.4406
 2774TIP3    H132517   3.164   0.429  20.167 -0.7120 -0.8417 -0.1752
 2774TIP3    H232518   3.274   0.421  20.063  0.1316 -1.3707  0.7374
 2775TIP3   OH232519   1.971   0.357  19.984  0.1300 -0.4327  0.0500
 2775TIP3    H132520   1.971   0.444  19.944  1.1426 -0.3337  0.2593
 2775TIP3    H232521   2.018   0.302  19.922  1.2100 -0.4033  0.8244
 2776TIP3   OH232522   3.424   6.468  19.722 -0.3879 -0.0471 -0.0890
 2776TIP3    H132523   3.371   6.393  19.750  0.3181  0.0770  1.7235
 2776TIP3    H232524   3.371   6.545  19.740 -0.6504 -0.0424 -0.8512
 2777TIP3   OH232525   3.249   3.550  19.870 -0.8563  0.7358  0.0746
 2777TIP3    H132526   3.207   3.543  19.784 -0.2352 -0.5853 -0.1476
 2777TIP3    H232527   3.302   3.630  19.863  0.6577 -0.3300 -1.4773
 2778TIP3   OH232528   2.941   6.307  19.184 -0.1290 -0.0297 -0.1284
 2778TIP3    H132529   2.930   6.280  19.275 -0.5257  1.2913  0.2320
 2778TIP3    H232530   2.852   6.305  19.148 -0.3465  1.7544  0.2093
 2779TIP3   OH232531   2.085   4.138  18.141  0.0009 -0.1330  0.0211
 2779TIP3    H132532   2.037   4.056  18.155 -0.6390 -0.3902 -3.0468
 2779TIP3    H232533   2.124   4.128  18.054 -0.4653  3.0007 -0.6453
 2780TIP3   OH232534   3.752   5.806  19.349 -0.1952  0.0679 -0.2470
 2780TIP3    H132535   3.789   5.885  19.387  1.5606 -1.1205  0.6300
 2780TIP3    H232536   3.826   5.762  19.307 -1.1061 -1.1799 -0.6055
 2781TIP3   OH232537   3.505   6.686  19.036 -0.4847  0.4274 -0.5627
 2781TIP3    H132538   3.431   6.634  19.006 -1.1676  2.5553 -2.9328
 2781TIP3    H232539   3.574   6.670  18.972  0.5559 -0.1894  0.6577
 2782TIP3   OH232540   1.656   0.145  20.552  0.3382 -0.0748 -0.3669
 2782TIP3    H132541   1.573   0.174  20.589  0.1679 -0.6227 -0.3072
 2782TIP3    H232542   1.688   0.079  20.614  0.8054  0.1128 -0.4020
 2783TIP3   OH232543   0.041   1.483  18.644 -0.0370  0.0968  0.5364
 2783TIP3    H132544   0.016   1.576  18.642  1.5358  0.5955 -2.2571
 2783TIP3    H232545  -0.041   1.435  18.636 -0.6892  1.4447 -2.0003
 2784TIP3   OH232546   4.635   3.573  20.374  0.2703  0.0904 -0.1364
 2784TIP3    H132547   4.586   3.611  20.302  0.2577  2.1923  0.9238
 2784TIP3    H232548   4.578   3.505  20.409 -0.1532 -0.2409 -1.4330
 2785TIP3   OH232549   1.938   0.439  19.699 -0.4603 -0.6301 -0.6972
 2785TIP3    H132550   2.024   0.398  19.688 -1.5438 -3.6057  0.7123
 2785TIP3    H232551   1.920   0.479  19.614  2.3345  0.2323 -0.9869
 2786TIP3   OH232552   6.681   4.651  20.471  0.0930  0.1710 -0.1155
 2786TIP3    H132553   6.693   4.636  20.565  2.3792 -0.0745 -0.3732
 2786TIP3    H232554   6.626   4.729  20.466  1.4512  1.3012  1.4821
 2787TIP3   OH232555   0.200   5.626  18.689  0.6514 -0.0841 -0.0685
 2787TIP3    H132556   0.288   5.590  18.682  1.0627  0.7887  0.5163
 2787TIP3    H232557   0.203   5.707  18.638 -0.6055 -1.3942 -2.4177
 2788TIP3   OH232558   2.261   1.400  19.369 -0.5157  0.5364 -0.0136
 2788TIP3    H132559   2.209   1.321  19.381 -0.3806  0.3466 -0.6722
 2788TIP3    H232560   2.305   1.412  19.453 -1.5269  0.6374  0.5215
 2789TIP3   OH232561   0.732   3.375  17.284 -0.5942  0.1662 -0.6238
 2789TIP3    H132562   0.717   3.470  17.288  0.0826  0.2622 -0.1176
 2789TIP3    H232563   0.644   3.337  17.277 -0.8957  0.8143 -0.4333
 2790TIP3   OH232564   2.394   6.701  18.925 -0.0939 -0.6524 -0.4525
 2790TIP3    H132565   2.309   6.688  18.882 -1.3427  1.3394  1.1887
 2790TIP3    H232566   2.424   6.786  18.893  1.2462 -1.2805 -0.9108
 2791TIP3   OH232567   2.643   4.111  18.968  0.0071  1.4635  0.1024
 2791TIP3    H132568   2.707   4.131  18.900 -0.0940  1.9851  0.1581
 2791TIP3    H232569   2.685   4.043  19.022 -0.4318  0.0682 -1.2496
 2792TIP3   OH232570   4.035   1.960  17.220  0.4045 -0.0105  0.2499
 2792TIP3    H132571   4.062   1.913  17.141 -0.0716 -0.2428  0.2267
 2792TIP3    H232572   4.062   2.051  17.203 -0.9475  0.2339 -0.7939
 2793TIP3   OH232573   0.364   5.014  20.384 -0.7830  0.0685  0.1038
 2793TIP3    H132574   0.301   5.013  20.456  0.6176 -1.8555  1.4123
 2793TIP3    H232575   0.365   4.925  20.351 -0.1858  0.5393 -1.2435
 2794TIP3   OH232576   3.078   1.386  17.572 -0.1115 -0.2182  0.3301
 2794TIP3    H132577   3.091   1.447  17.500  1.2881 -0.1527  0.6233
 2794TIP3    H232578   2.999   1.337  17.548 -1.0938  1.4723 -0.0534
 2795TIP3   OH232579   1.914   4.969  17.900 -0.1234 -0.1838 -0.4370
 2795TIP3    H132580   1.944   5.058  17.882  0.4087 -0.0991  0.7676
 2795TIP3    H232581   1.934   4.920  17.820  1.6313  0.2815 -0.3203
 2796TIP3   OH232582   2.832   2.673  18.075  0.2209  0.1550  0.3726
 2796TIP3    H132583   2.803   2.761  18.051 -0.4231 -0.3356 -0.7332
 2796TIP3    H232584   2.925   2.671  18.054  0.2632  0.6103  0.5110
 2797TIP3   OH232585   2.560   4.035  18.541 -0.3822 -0.0793  0.5782
 2797TIP3    H132586   2.497   3.963  18.544 -1.4846  0.8771  0.7751
 2797TIP3    H232587   2.535   4.085  18.464 -0.7378  1.0846  1.4319
 2798TIP3   OH232588   6.408   4.349  19.209 -0.0221 -0.3762 -0.6580
 2798TIP3    H132589   6.401   4.311  19.297 -1.1419  1.1733 -0.0124
 2798TIP3    H232590   6.500   4.376  19.203 -0.2133  0.6934  0.6108
 2799TIP3   OH232591   3.361   6.115  17.042  0.1218  0.8453 -0.1869
 2799TIP3    H132592   3.279   6.070  17.060  1.3374 -1.8113 -0.7984
 2799TIP3    H232593   3.373   6.173  17.117 -2.1013  1.0519  0.0863
 2800TIP3   OH232594   4.532   5.273  20.482 -0.2035  0.4227  0.1714
 2800TIP3    H132595   4.568   5.354  20.518  0.7976 -0.2248  0.6653
 2800TIP3    H232596   4.594   5.247  20.414 -0.0396 -0.3975  0.6262
 2801TIP3   OH232597   5.929   5.318  19.514 -0.3056 -0.4067  0.1093
 2801TIP3    H132598   6.002   5.356  19.563 -0.7605 -0.5069  0.8864
 2801TIP3    H232599   5.859   5.309  19.579 -0.0161 -3.2165  0.1269
 2802TIP3   OH232600   0.476   4.807  20.246 -0.2045 -0.5713  0.3498
 2802TIP3    H132601   0.414   4.781  20.314  0.2001 -1.4091  0.4156
 2802TIP3    H232602   0.494   4.725  20.198 -0.4924 -0.0044 -0.7720
 2803TIP3   OH232603   4.267   3.867  19.191 -0.0117  0.2307  0.2120
 2803TIP3    H132604   4.350   3.820  19.191  0.4652  0.9530 -1.8504
 2803TIP3    H232605   4.201   3.799  19.173  0.2012 -0.2292  1.1326
 2804TIP3   OH232606   2.174   3.639  20.296 -0.1096  0.0148  0.1967
 2804TIP3    H132607   2.259   3.603  20.269  1.1456  2.1969  1.0007
 2804TIP3    H232608   2.170   3.624  20.390 -0.0021  1.0342  0.3795
 2805TIP3   OH232609   3.823   4.481  19.871 -0.5154 -0.4292  0.1537
 2805TIP3    H132610   3.912   4.492  19.905 -0.5906 -0.6154  0.4131
 2805TIP3    H232611   3.831   4.498  19.777 -0.0599 -1.2085  0.0410
 2806TIP3   OH232612   3.831   5.798  18.269 -0.4729  0.3304 -0.4224
 2806TIP3    H132613   3.786   5.714  18.269  0.2946 -0.1137 -2.1236
 2806TIP3    H232614   3.924   5.776  18.282 -0.3436  0.9753 -0.2086
 2807TIP3   OH232615   2.013   5.129  18.850 -0.0626  0.2782  0.1100
 2807TIP3    H132616   2.011   5.067  18.776  0.4716  1.3199 -0.8088
 2807TIP3    H232617   1.954   5.199  18.823 -1.1090 -0.0680  1.3958
 2808TIP3   OH232618   0.635   0.777  20.875  0.1720  0.1350 -0.0802
 2808TIP3    H132619   0.629   0.698  20.928 -0.5326 -0.1675 -0.5957
 2808TIP3    H232620   0.545   0.811  20.872  0.3987  0.7397 -0.1863
 2809TIP3   OH232621   4.096   6.046  18.877  0.0370 -0.1026  0.1568
 2809TIP3    H132622   4.074   6.130  18.837  2.0891 -0.5155 -2.0650
 2809TIP3    H232623   4.019   6.023  18.929 -1.1891  2.3806 -0.3968
 2810TIP3   OH232624   4.118   0.251  19.141 -0.0274 -0.0189  0.3379
 2810TIP3    H132625   4.039   0.305  19.143 -0.4920 -0.6955  1.2657
 2810TIP3    H232626   4.186   0.309  19.107 -0.9849  0.4683 -0.8120
 2811TIP3   OH232627   6.103   5.420  17.922  0.1336 -0.0194  0.0747
 2811TIP3    H132628   6.091   5.508  17.885  0.4884  0.3687  0.8577
 2811TIP3    H232629   6.016   5.381  17.920 -0.3343  0.8939  1.0524
 2812TIP3   OH232630   3.979   4.217  19.639 -0.0004  0.4603 -0.0999
 2812TIP3    H132631   3.886   4.240  19.644  0.2371  1.6152 -0.7179
 2812TIP3    H232632   3.999   4.184  19.727 -1.0606 -0.1254 -0.0508
 2813TIP3   OH232633   1.155   0.781  17.841  0.2608  0.6373  0.0442
 2813TIP3    H132634   1.220   0.712  17.829 -0.9655 -0.5509  0.0845
 2813TIP3    H232635   1.156   0.829  17.758 -1.3997 -1.6613 -1.4094
 2814TIP3   OH232636   6.691   2.580  19.137 -0.0816  0.6088  0.1306
 2814TIP3    H132637   6.759   2.513  19.128  0.0331  0.3785  2.3007
 2814TIP3    H232638   6.724   2.654  19.087  0.3779 -0.4949 -1.2583
 2815TIP3   OH232639   5.959   0.274  18.577  0.6343  0.6552  0.6937
 2815TIP3    H132640   5.944   0.220  18.499  0.8798  0.4594  0.7821
 2815TIP3    H232641   5.884   0.334  18.579 -0.0402 -0.1671  1.0004
 2816TIP3   OH232642   5.671   0.948  20.890  0.5535 -0.7503 -0.0787
 2816TIP3    H132643   5.668   0.868  20.943  2.4241  0.0130  1.2957
 2816TIP3    H232644   5.742   0.999  20.929 -1.0945  1.9513 -0.4223
 2817TIP3   OH232645   3.535   6.602  19.321  0.2082 -0.4185 -0.2311
 2817TIP3    H132646   3.511   6.655  19.244  1.3261 -0.4381 -0.6233
 2817TIP3    H232647   3.624   6.572  19.301  1.3738  1.2851  1.9706
 2818TIP3   OH232648   1.341   3.096  20.142  0.0567  0.1388 -0.1867
 2818TIP3    H132649   1.387   3.123  20.062 -0.6185 -0.0368 -0.6379
 2818TIP3    H232650   1.346   3.173  20.200  0.2986  0.3652 -0.5064
 2819TIP3   OH232651   4.985   4.390  17.986 -0.1361 -0.3865 -0.0664
 2819TIP3    H132652   5.001   4.307  17.942 -0.0534  0.2165 -1.2154
 2819TIP3    H232653   5.043   4.389  18.062  0.8481 -0.8297 -0.8033
 2820TIP3   OH232654   3.638   4.898  19.654  0.1989 -0.0938  0.3979
 2820TIP3    H132655   3.679   4.870  19.572  1.1139 -0.4458  0.9659
 2820TIP3    H232656   3.711   4.911  19.714 -0.5726 -2.7676  2.0819
 2821TIP3   OH232657   1.305   3.673  18.059  0.3594 -0.0602  0.1015
 2821TIP3    H132658   1.361   3.602  18.026  1.8201  0.4394  1.3992
 2821TIP3    H232659   1.355   3.712  18.130 -1.0394  1.3747  0.3520
 2822TIP3   OH232660   4.653   1.632  20.887  0.2489  0.4393  0.0862
 2822TIP3    H132661   4.697   1.693  20.827  2.1686  0.0893  1.0653
 2822TIP3    H232662   4.702   1.551  20.879  1.3526  0.7084  2.9369
 2823TIP3   OH232663   0.626   1.366  17.718  0.0984 -0.7743 -0.5169
 2823TIP3    H132664   0.649   1.294  17.776 -1.3983 -1.6048 -0.9128
 2823TIP3    H232665   0.691   1.362  17.648  0.3071 -1.4434 -0.2910
 2824TIP3   OH232666   4.706   4.681  18.675 -0.1032 -0.1911  0.6985
 2824TIP3    H132667   4.797   4.669  18.651 -0.5288  0.8929 -1.7611
 2824TIP3    H232668   4.697   4.636  18.760  2.6548 -0.3245  0.9953
 2825TIP3   OH232669   4.532   0.577  19.927  0.3182 -0.7870  0.1330
 2825TIP3    H132670   4.544   0.671  19.917  1.0692 -1.0572 -1.9141
 2825TIP3    H232671   4.473   0.553  19.855 -1.0447 -1.6946  1.4822
 2826TIP3   OH232672   3.314   0.914  18.711  0.2680  0.5064 -0.0695
 2826TIP3    H132673   3.371   0.972  18.661 -0.2293  0.0123 -1.2460
 2826TIP3    H232674   3.241   0.894  18.652  0.0371 -0.7006  0.5768
 2827TIP3   OH232675   6.197   5.765  18.908  0.0717 -0.4232  0.1649
 2827TIP3    H132676   6.190   5.851  18.948  1.9627  0.4059 -1.1583
 2827TIP3    H232677   6.136   5.710  18.958 -1.0930  1.6278  1.0984
 2828TIP3   OH232678   1.432   6.504  18.729  0.0916  0.2058  0.4382
 2828TIP3    H132679   1.454   6.525  18.820  0.9294 -1.0611  0.5572
 2828TIP3    H232680   1.336   6.503  18.727  0.0612 -0.5150  1.5144
 2829TIP3   OH232681   0.978   2.842  19.285  0.2701  0.3426 -1.3240
 2829TIP3    H132682   0.988   2.934  19.313 -1.5880  0.6830 -1.6701
 2829TIP3    H232683   0.907   2.844  19.221  1.4314 -1.0994 -2.7348
 2830TIP3   OH232684   2.114   1.378  18.682  0.1555  0.1679  0.4311
 2830TIP3    H132685   2.028   1.404  18.649  0.0222  0.4100  0.9546
 2830TIP3    H232686   2.136   1.445  18.747 -0.9178 -1.7876  2.9903
 2831TIP3   OH232687   6.011   4.802  18.649  0.1454  0.0742 -0.0821
 2831TIP3    H132688   5.963   4.871  18.693  0.3084  0.9904 -1.2691
 2831TIP3    H232689   5.961   4.784  18.569  0.1869 -1.0823  0.1311
 2832TIP3   OH232690   3.291   0.101  18.282  0.4677 -0.4693  0.1004
 2832TIP3    H132691   3.215   0.048  18.304 -1.9525  2.6520 -0.0308
 2832TIP3    H232692   3.280   0.121  18.189 -0.7939  3.0545  0.8603
 2833TIP3   OH232693   3.662   1.603  18.123  0.0529 -0.0091 -0.2286
 2833TIP3    H132694   3.732   1.662  18.151 -0.4497  1.5811 -2.1629
 2833TIP3    H232695   3.697   1.515  18.141  1.6348  0.7895  0.8587
 2834TIP3   OH232696   1.182   6.611  18.783  0.0380 -0.3778  0.0270
 2834TIP3    H132697   1.098   6.630  18.826  0.6984  1.3344  0.6300
 2834TIP3    H232698   1.172   6.645  18.695 -0.1834 -0.9476 -0.1726
 2835TIP3   OH232699   5.715   2.800  17.664 -0.4031  0.9034 -0.0833
 2835TIP3    H132700   5.785   2.736  17.663  0.1990  1.4614  1.6226
 2835TIP3    H232701   5.635   2.748  17.663  0.0051  0.2569 -1.8976
 2836TIP3   OH232702   0.900   3.716  17.472  0.0961  0.0822 -0.7948
 2836TIP3    H132703   0.895   3.788  17.409 -0.5315  2.9224  2.2319
 2836TIP3    H232704   0.993   3.694  17.477  0.8752  3.2010  0.6686
 2837TIP3   OH232705   5.998   2.944  18.764  0.0112  0.4537 -0.6131
 2837TIP3    H132706   5.935   3.016  18.764  0.0652  0.5041  0.0545
 2837TIP3    H232707   5.946   2.866  18.745 -0.5682  0.2496  1.5374
 2838TIP3   OH232708   1.285   0.897  19.834 -0.1756  0.0145 -0.6054
 2838TIP3    H132709   1.253   0.987  19.833  0.4852  0.2646 -0.3770
 2838TIP3    H232710   1.301   0.878  19.927 -1.6225 -0.8347 -0.4986
 2839TIP3   OH232711   6.635   1.664  19.294 -0.0482 -0.2694  0.4239
 2839TIP3    H132712   6.709   1.632  19.244 -3.0994 -0.4834 -4.7207
 2839TIP3    H232713   6.598   1.586  19.335  0.9645 -0.6573  0.6139
 2840TIP3   OH232714   2.474   5.567  19.451 -0.2255  0.0121 -0.2233
 2840TIP3    H132715   2.462   5.647  19.400  1.1079 -0.8691 -2.0320
 2840TIP3    H232716   2.568   5.551  19.448 -0.4548 -1.5589  0.1891
 2841TIP3   OH232717   5.390   0.213  17.923  0.0318 -0.1621  0.2258
 2841TIP3    H132718   5.463   0.216  17.861  0.0740  0.6709  0.3093
 2841TIP3    H232719   5.421   0.260  18.000 -1.3351  2.1671 -0.5578
 2842TIP3   OH232720   2.345   4.303  18.784  0.2236  0.7340 -0.7242
 2842TIP3    H132721   2.437   4.326  18.793  0.2287  0.3297  0.4745
 2842TIP3    H232722   2.321   4.266  18.869 -0.9953  0.6523 -1.0795
 2843TIP3   OH232723   4.883   5.282  17.826  0.3051 -0.5961 -0.1727
 2843TIP3    H132724   4.901   5.250  17.914 -0.1910  0.1814  0.2211
 2843TIP3    H232725   4.843   5.207  17.781 -0.3736 -0.7010  0.5828
 2844TIP3   OH232726   6.582   0.067  17.667  0.1797  0.4373  0.3701
 2844TIP3    H132727   6.667   0.098  17.699  0.1703  0.3221  0.5100
 2844TIP3    H232728   6.577  -0.024  17.696  1.3161 -0.5458 -2.2173
 2845TIP3   OH232729   5.860   5.272  20.488  0.5179 -0.3604  0.0484
 2845TIP3    H132730   5.949   5.289  20.458  1.5381  1.2116  3.3752
 2845TIP3    H232731   5.870   5.205  20.556 -0.5965  0.5670  1.1987
 2846TIP3   OH232732   4.866   1.158  18.217  0.2519 -0.1892  0.1498
 2846TIP3    H132733   4.944   1.213  18.222 -0.5721  0.9318  1.7113
 2846TIP3    H232734   4.813   1.186  18.292 -0.4560 -2.7455  0.6938
 2847TIP3   OH232735   4.458   3.799  18.218 -0.4479  0.4902  0.0308
 2847TIP3    H132736   4.418   3.884  18.198 -2.0942 -0.2293  0.1229
 2847TIP3    H232737   4.548   3.821  18.241 -0.5116  2.0927 -1.0462
 2848TIP3   OH232738   1.644   4.339  20.459  0.2928  0.5287 -0.4125
 2848TIP3    H132739   1.680   4.383  20.536  2.2975  1.5220 -1.8171
 2848TIP3    H232740   1.602   4.261  20.493 -0.5941  1.9196  1.8604
 2849TIP3   OH232741   3.602   2.727  20.241  0.1514 -0.2739  0.2123
 2849TIP3    H132742   3.530   2.669  20.215 -1.8252  1.7424  0.7943
 2849TIP3    H232743   3.577   2.756  20.329  2.3241 -0.3993  0.9077
 2850TIP3   OH232744   4.969   5.394  19.077 -0.0582 -0.1957 -0.1537
 2850TIP3    H132745   5.041   5.426  19.022 -0.7058  0.7037 -0.5197
 2850TIP3    H232746   4.891   5.428  19.034 -0.5773  0.8651  1.5174
 2851TIP3   OH232747   4.743   6.055  20.082  0.0813 -0.3116  0.0251
 2851TIP3    H132748   4.704   5.978  20.041 -0.7826 -0.0363  0.3097
 2851TIP3    H232749   4.788   6.101  20.011 -0.7094 -0.2656 -0.4502
 2852TIP3   OH232750   6.468   2.529  19.926  0.1866  0.1068  0.6308
 2852TIP3    H132751   6.521   2.458  19.890 -1.4098 -0.7304 -0.1608
 2852TIP3    H232752   6.381   2.491  19.937 -1.1159  2.2950 -1.1944
 2853TIP3   OH232753   4.014   1.751  20.100 -0.0740 -0.2159 -0.2177
 2853TIP3    H132754   3.996   1.844  20.111 -0.7498 -0.5253  1.6177
 2853TIP3    H232755   3.935   1.716  20.058 -0.4722 -0.2217  0.5322
 2854TIP3   OH232756   4.584   0.526  18.543 -0.2669 -0.3496  0.2494
 2854TIP3    H132757   4.605   0.600  18.485  0.9304  0.5823  1.7785
 2854TIP3    H232758   4.543   0.567  18.619  0.4769 -1.2272  1.1515
 2855TIP3   OH232759   0.988   6.307  19.412  0.2239  0.8691  0.5194
 2855TIP3    H132760   1.081   6.292  19.434 -0.2249 -1.5550  1.0391
 2855TIP3    H232761   0.940   6.263  19.482 -1.3035 -0.0451 -1.0377
 2856TIP3   OH232762   6.615   3.533  19.607  0.2566  0.2993  0.0041
 2856TIP3    H132763   6.568   3.453  19.630  0.7758  0.4298  1.6759
 2856TIP3    H232764   6.688   3.536  19.669 -0.9014  3.1222  1.3917
 2857TIP3   OH232765   1.156   0.762  19.035 -0.2399 -0.0653  0.6383
 2857TIP3    H132766   1.189   0.683  19.077  0.0024  0.0143  0.5997
 2857TIP3    H232767   1.150   0.739  18.942  1.2182  0.4108  0.3993
 2858TIP3   OH232768   4.385   3.398  20.683  0.0072  0.2899  0.2045
 2858TIP3    H132769   4.448   3.419  20.614 -0.2403 -0.8746 -0.4132
 2858TIP3    H232770   4.435   3.398  20.764  0.1137  2.6392  0.1810
 2859TIP3   OH232771   2.422   6.097  17.346 -0.3773 -0.3148  0.2367
 2859TIP3    H132772   2.453   6.181  17.380 -1.7118  0.0782  0.5392
 2859TIP3    H232773   2.354   6.069  17.408  0.1131 -1.6812  0.2018
 2860TIP3   OH232774   0.718   1.544  20.072  0.5611 -0.3410  0.2809
 2860TIP3    H132775   0.795   1.498  20.039 -0.0839 -0.8225 -0.5927
 2860TIP3    H232776   0.675   1.577  19.993 -0.1953 -0.1944  0.7542
 2861TIP3   OH232777   0.121   2.936  20.186  0.8567 -1.1382 -0.1972
 2861TIP3    H132778   0.191   2.949  20.251  0.0358 -3.0026  1.1592
 2861TIP3    H232779   0.042   2.927  20.239 -0.0350 -1.5568 -1.5613
 2862TIP3   OH232780   1.580   3.792  19.814  0.3083 -0.5274 -0.2304
 2862TIP3    H132781   1.538   3.878  19.807 -0.1772 -0.7498 -0.0760
 2862TIP3    H232782   1.667   3.811  19.849  0.6379  0.0106 -1.2963
 2863TIP3   OH232783   5.545   2.326  17.926 -0.0474 -0.2771 -0.3438
 2863TIP3    H132784   5.543   2.364  17.838 -0.7578 -0.6621 -0.4961
 2863TIP3    H232785   5.588   2.241  17.914 -1.0681 -0.7794 -0.5001
 2864TIP3   OH232786   0.058   5.229  19.821  0.1846  0.5367 -0.0967
 2864TIP3    H132787   0.053   5.277  19.904 -0.7391  1.3268 -0.5845
 2864TIP3    H232788  -0.018   5.172  19.822  0.4789  0.1368 -0.1700
 2865TIP3   OH232789   3.736   2.163  20.402 -0.5746 -0.1284  0.1190
 2865TIP3    H132790   3.720   2.082  20.450  0.5559 -0.6653 -0.3585
 2865TIP3    H232791   3.817   2.197  20.440 -0.5029  0.2423 -0.3580
 2866TIP3   OH232792   2.441   1.528  18.313  0.3606 -0.0690  0.4910
 2866TIP3    H132793   2.352   1.563  18.314  0.8424  1.1976  0.5242
 2866TIP3    H232794   2.491   1.588  18.369  1.1594 -0.9861  0.7908
 2867TIP3   OH232795   0.563   3.994  20.830  0.2492 -0.0474 -0.0894
 2867TIP3    H132796   0.624   3.920  20.830 -0.5556 -0.7751  1.9530
 2867TIP3    H232797   0.619   4.070  20.814  1.3334 -0.9073 -0.5963
 2868TIP3   OH232798   3.108   0.564  18.983  0.5649  0.1321  0.3025
 2868TIP3    H132799   3.143   0.595  18.900 -0.0186  0.2888  0.1080
 2868TIP3    H232800   3.025   0.610  18.993  0.6964  0.2192  1.0448
 2869TIP3   OH232801   2.182   3.907  20.439 -0.4665 -0.9432  0.1302
 2869TIP3    H132802   2.249   3.876  20.378  0.0929  2.7329 -1.3709
 2869TIP3    H232803   2.099   3.887  20.396 -0.2196 -2.0176  0.1339
 2870TIP3   OH232804   1.899   3.583  18.340  0.1943 -0.2528 -0.4530
 2870TIP3    H132805   1.922   3.519  18.272  1.7248 -2.1591  1.7367
 2870TIP3    H232806   1.803   3.580  18.343  0.2138 -2.7351 -0.2039
 2871TIP3   OH232807   1.025   4.608  19.555 -0.0416 -0.3028 -0.2463
 2871TIP3    H132808   1.031   4.615  19.460 -0.5999  1.7852 -0.1757
 2871TIP3    H232809   1.112   4.632  19.587 -0.1080 -0.1352 -0.1938
 2872TIP3   OH232810   3.019   2.591  20.528 -0.7696  0.0448  0.1962
 2872TIP3    H132811   3.032   2.609  20.621 -0.0843 -0.6111  0.2372
 2872TIP3    H232812   3.031   2.497  20.521 -2.2260 -0.1110 -0.3370
 2873TIP3   OH232813   3.866   5.391  20.353 -0.2815  0.4829 -0.2533
 2873TIP3    H132814   3.805   5.450  20.309 -2.5330 -1.5930 -0.1480
 2873TIP3    H232815   3.860   5.415  20.446 -0.8402  0.3752 -0.2605
 2874TIP3   OH232816   4.145   0.228  17.728  0.3307  0.2361 -0.0212
 2874TIP3    H132817   4.233   0.241  17.692  1.0700 -1.2385  1.1503
 2874TIP3    H232818   4.128   0.307  17.779  0.7056  0.8169 -0.7807
 2875TIP3   OH232819   3.418   1.809  18.524 -0.0776 -0.2576  0.2950
 2875TIP3    H132820   3.358   1.775  18.458 -0.0622 -0.8207  0.5686
 2875TIP3    H232821   3.464   1.732  18.558 -1.4547 -0.2756  2.3302
 2876TIP3   OH232822   6.020   2.427  18.382 -0.1754  0.2891  0.5774
 2876TIP3    H132823   5.987   2.370  18.313 -1.8190 -1.0371  2.3459
 2876TIP3    H232824   6.115   2.412  18.381 -0.4143 -1.4802  0.0890
 2877TIP3   OH232825   5.279   5.956  19.672 -0.2046  0.3126 -0.2266
 2877TIP3    H132826   5.318   5.908  19.746 -0.4627 -0.4516 -0.5833
 2877TIP3    H232827   5.187   5.931  19.673 -0.0108 -0.5552 -1.4488
 2878TIP3   OH232828   2.821   0.051  18.493 -0.4143  0.0230 -0.2808
 2878TIP3    H132829   2.837  -0.041  18.514  0.2761 -0.0979 -1.2648
 2878TIP3    H232830   2.888   0.099  18.542 -0.9571  0.0375  0.4617
 2879TIP3   OH232831   5.585   1.440  20.327  0.2390 -0.2681 -0.0596
 2879TIP3    H132832   5.627   1.366  20.283 -0.7414  0.2450 -1.9769
 2879TIP3    H232833   5.548   1.493  20.256 -2.1404  0.2160  1.3982
 2880TIP3   OH232834   3.953   5.012  18.777  0.1979 -0.0359  0.0695
 2880TIP3    H132835   4.010   4.946  18.816  1.4159  0.6538 -0.4939
 2880TIP3    H232836   3.940   4.982  18.687  0.9424  0.5855 -0.2565
 2881TIP3   OH232837   5.807   1.921  19.674 -0.1558 -0.5705  0.6331
 2881TIP3    H132838   5.747   1.992  19.699  0.1116  0.2472 -0.9374
 2881TIP3    H232839   5.882   1.966  19.635 -0.3826 -1.7369 -1.2297
 2882TIP3   OH232840   3.564   1.359  18.318  0.2211  0.1135 -0.3522
 2882TIP3    H132841   3.519   1.279  18.346  1.4496 -0.3748  0.3187
 2882TIP3    H232842   3.495   1.426  18.318 -0.6176 -0.7124  0.1103
 2883TIP3   OH232843   5.343   0.318  19.296  0.2986 -0.4381 -0.0334
 2883TIP3    H132844   5.259   0.278  19.317  0.9098 -1.7106  0.0536
 2883TIP3    H232845   5.354   0.302  19.203  1.2601 -1.8942  0.3058
 2884TIP3   OH232846   2.974   6.502  19.892  0.0105 -0.2274  0.3370
 2884TIP3    H132847   2.891   6.520  19.849  0.4121  2.4883  0.5086
 2884TIP3    H232848   2.982   6.407  19.891 -3.1628 -0.5897  0.4844
 2885TIP3   OH232849   5.450   2.719  17.996 -0.3555 -0.2692 -0.0113
 2885TIP3    H132850   5.361   2.706  18.030 -0.9453  0.0858 -1.3438
 2885TIP3    H232851   5.447   2.686  17.906  1.0960 -0.9857  0.1733
 2886TIP3   OH232852   1.626   1.799  20.638  0.1384  0.1635  0.1713
 2886TIP3    H132853   1.709   1.751  20.640  0.6661  1.0472 -0.3134
 2886TIP3    H232854   1.637   1.864  20.569 -0.4205  1.2568  1.0738
 2887TIP3   OH232855   6.708   0.093  18.312 -0.1320 -0.2274  0.2847
 2887TIP3    H132856   6.664   0.019  18.353  1.1881 -1.1968  0.0157
 2887TIP3    H232857   6.797   0.062  18.296  0.8003  1.8254  1.2226
 2888TIP3   OH232858   0.984   0.066  20.843  0.0113 -0.7650 -0.0496
 2888TIP3    H132859   0.971   0.159  20.862 -1.4557 -0.2454 -3.0771
 2888TIP3    H232860   0.913   0.022  20.891 -1.6961  0.1407 -1.6593
 2889TIP3   OH232861   2.322   2.792  18.310 -0.8912 -0.6054 -0.3727
 2889TIP3    H132862   2.244   2.847  18.305 -1.2753 -0.6157  2.8973
 2889TIP3    H232863   2.290   2.702  18.302 -0.6513 -0.5357 -2.7169
 2890TIP3   OH232864   3.705   0.479  18.331 -0.3696  0.1701  0.2328
 2890TIP3    H132865   3.675   0.522  18.411 -2.0804 -0.6027  0.0535
 2890TIP3    H232866   3.728   0.550  18.272 -0.5814  0.7793  0.8796
 2891TIP3   OH232867   1.432   3.107  18.997 -0.0981  0.2292 -0.2017
 2891TIP3    H132868   1.445   3.167  19.071 -2.2490  2.8201 -1.7065
 2891TIP3    H232869   1.358   3.053  19.023 -0.1213  0.3552 -0.0030
 2892TIP3   OH232870   3.218   4.823  19.368 -0.3814 -0.4970  0.2602
 2892TIP3    H132871   3.247   4.825  19.460  0.9439  0.7035 -0.1350
 2892TIP3    H232872   3.295   4.793  19.320  0.0088  1.8761 -0.7422
 2893TIP3   OH232873   0.885   3.905  17.903  0.1000 -0.2877 -0.8018
 2893TIP3    H132874   0.976   3.889  17.926 -0.1405 -2.5665 -1.1789
 2893TIP3    H232875   0.885   3.910  17.807 -0.0951  0.2988 -0.7743
 2894TIP3   OH232876   0.540   5.135  18.142  0.0815  1.1287  0.1771
 2894TIP3    H132877   0.619   5.129  18.197  0.6580  1.2080 -0.6148
 2894TIP3    H232878   0.557   5.075  18.070 -0.8248  0.7500  0.2673
 2895TIP3   OH232879   0.467   4.031  19.101 -0.3764  0.5175  0.1830
 2895TIP3    H132880   0.492   4.123  19.089 -0.3260  0.7021  1.5414
 2895TIP3    H232881   0.511   3.985  19.029  1.1283  1.3104  0.5511
 2896TIP3   OH232882   4.387   1.741  19.290  0.4949 -0.4794  0.5508
 2896TIP3    H132883   4.303   1.740  19.336 -1.0392  2.2246 -1.8236
 2896TIP3    H232884   4.419   1.651  19.295 -3.0754 -1.8999  0.6508
 2897TIP3   OH232885   1.158   5.356  20.708  0.2134 -0.1472 -0.5098
 2897TIP3    H132886   1.103   5.370  20.785 -0.9033  0.1813 -1.3485
 2897TIP3    H232887   1.103   5.308  20.647  1.5860 -1.7659 -0.5484
 2898TIP3   OH232888   3.932   0.824  17.901  0.2794 -0.2199 -0.4038
 2898TIP3    H132889   3.978   0.761  17.847  1.6976  1.3561 -1.1476
 2898TIP3    H232890   3.909   0.895  17.840 -0.4494  0.3844  0.5491
 2899TIP3   OH232891   1.524   4.310  18.874 -0.4422 -0.5168 -0.4146
 2899TIP3    H132892   1.502   4.307  18.967  0.2498  0.8090 -0.1757
 2899TIP3    H232893   1.498   4.398  18.847  0.0741 -0.6223 -1.2804
 2900TIP3   OH232894   4.299   1.369  20.103 -0.3259  0.2630  0.3009
 2900TIP3    H132895   4.210   1.380  20.071 -0.5489  0.7510  1.0715
 2900TIP3    H232896   4.347   1.445  20.067 -0.9960  1.8504  2.5318
 2901TIP3   OH232897   1.718   0.786  19.306 -0.0959  0.0849  0.5026
 2901TIP3    H132898   1.672   0.857  19.261 -1.0021 -0.2333  0.9033
 2901TIP3    H232899   1.738   0.722  19.238 -0.2311  0.2354  0.3200
 2902TIP3   OH232900   6.042   0.743  18.114  0.2778  0.1265  0.2864
 2902TIP3    H132901   6.124   0.772  18.154  0.3546  0.3411 -0.0219
 2902TIP3    H232902   5.999   0.824  18.086  0.3660 -0.0317 -0.3335
 2903TIP3   OH232903   3.156   0.086  19.175 -0.0178  0.3480  0.1580
 2903TIP3    H132904   3.102   0.009  19.160  0.5174  0.2669 -1.5614
 2903TIP3    H232905   3.186   0.111  19.088  0.3531  2.1143  0.7608
 2904TIP3   OH232906   5.380   0.966  20.832 -0.0093 -0.3502 -0.2261
 2904TIP3    H132907   5.475   0.974  20.829 -0.1219  0.8283 -1.9791
 2904TIP3    H232908   5.348   1.057  20.831 -1.1644 -0.7390 -1.7243
 2905TIP3   OH232909   6.617   3.177  19.438  0.1271 -0.5681  0.1405
 2905TIP3    H132910   6.585   3.183  19.348  0.3091 -0.1499  0.0971
 2905TIP3    H232911   6.538   3.181  19.492  0.0846  0.4142  0.0375
 2906TIP3   OH232912   5.053   6.193  18.898 -0.0761  0.0471 -0.1643
 2906TIP3    H132913   4.980   6.175  18.838 -0.0968  1.4756 -0.6144
 2906TIP3    H232914   5.030   6.277  18.939  0.4940 -0.3508  1.0042
 2907TIP3   OH232915   0.674   4.103  20.188 -0.3583  0.0179  0.0597
 2907TIP3    H132916   0.690   4.196  20.200 -0.4155  0.0681 -0.2486
 2907TIP3    H232917   0.686   4.088  20.094  0.0384 -0.3602  0.1668
 2908TIP3   OH232918   4.216   0.888  18.362 -0.3346 -0.0898 -0.2042
 2908TIP3    H132919   4.164   0.824  18.410  0.0817 -0.4497 -0.2218
 2908TIP3    H232920   4.178   0.889  18.274  0.0401 -0.7900 -0.3923
 2909TIP3   OH232921   3.044   4.063  20.029  0.4411 -0.3529 -0.5378
 2909TIP3    H132922   2.961   4.057  20.078  0.8862  0.6588  0.3817
 2909TIP3    H232923   3.099   3.995  20.069 -0.0210 -1.2249 -1.3448
 2910TIP3   OH232924   1.688   3.356  20.290 -0.1182  0.7390  0.2930
 2910TIP3    H132925   1.764   3.385  20.341 -0.5780  0.6980  1.0131
 2910TIP3    H232926   1.725   3.305  20.219  0.4404 -1.6786  2.1775
 2911TIP3   OH232927   3.287   1.041  19.176  0.3972  0.1064  0.1695
 2911TIP3    H132928   3.233   1.009  19.104  0.1559 -1.0377  0.8446
 2911TIP3    H232929   3.226   1.089  19.233  0.1544 -0.8284  0.7146
 2912TIP3   OH232930   4.075   3.664  19.196  0.1769 -0.8232 -0.1927
 2912TIP3    H132931   4.126   3.585  19.177 -0.7264 -1.3067 -0.6958
 2912TIP3    H232932   4.013   3.669  19.124 -0.4693 -0.2381  0.3974
 2913TIP3   OH232933   1.142   1.932  18.885  0.6683  0.4797 -0.4636
 2913TIP3    H132934   1.129   1.983  18.805  3.5834 -0.7011 -1.8206
 2913TIP3    H232935   1.214   1.976  18.930 -2.3521  2.5582  2.9679
 2914TIP3   OH232936   2.806   1.458  19.437 -0.4713 -0.0246  0.2502
 2914TIP3    H132937   2.739   1.396  19.408 -0.7375  0.1580  0.4657
 2914TIP3    H232938   2.887   1.408  19.439 -0.5985 -0.2425 -0.0337
 2915TIP3   OH232939   1.212   3.128  19.542 -0.0804  0.3033  0.1488
 2915TIP3    H132940   1.128   3.104  19.504  0.5097 -1.0688 -0.3614
 2915TIP3    H232941   1.215   3.223  19.535 -1.1657  0.2950 -0.7346
 2916TIP3   OH232942   4.111   1.617  19.833  0.0961  0.1212 -0.2490
 2916TIP3    H132943   4.102   1.580  19.921 -0.5557  1.5426  0.3114
 2916TIP3    H232944   4.056   1.694  19.834  1.8231  1.4351 -1.1906
 2917TIP3   OH232945   1.495   5.756  20.056  0.4470  0.3473  0.3411
 2917TIP3    H132946   1.423   5.694  20.072  0.3178  0.3996 -0.0395
 2917TIP3    H232947   1.461   5.815  19.988 -0.0571  1.8326  1.7903
 2918TIP3   OH232948   0.024   2.780  18.445  0.9360  0.4824  0.0672
 2918TIP3    H132949  -0.035   2.851  18.419 -0.7360 -1.1761 -0.9171
 2918TIP3    H232950   0.013   2.714  18.377  4.7077  0.4302 -0.6871
 2919TIP3   OH232951   2.672   5.643  19.881  0.0204 -0.6012 -0.1955
 2919TIP3    H132952   2.614   5.597  19.820  1.5097 -1.4245 -1.0235
 2919TIP3    H232953   2.686   5.728  19.841 -1.6000  0.1049  0.6413
 2920TIP3   OH232954   6.629   3.351  17.583 -0.1464  0.2535 -0.7578
 2920TIP3    H132955   6.552   3.381  17.631 -0.4027 -0.0558 -0.9808
 2920TIP3    H232956   6.649   3.265  17.621  0.5319  0.6472 -0.1850
 2921TIP3   OH232957   3.113   6.019  17.092  0.1838 -0.5283  0.4896
 2921TIP3    H132958   3.118   6.032  17.186  0.6276  0.8265  0.3060
 2921TIP3    H232959   3.062   5.938  17.081  0.0105 -0.6259  1.8718
 2922TIP3   OH232960   4.158   2.047  19.119  0.0906 -0.3805  0.3474
 2922TIP3    H132961   4.126   2.026  19.207 -1.0071  0.0904  0.0809
 2922TIP3    H232962   4.221   1.978  19.099  1.1656  0.0942  1.9227
 2923TIP3   OH232963   2.811   4.861  19.127  0.1156  0.4780 -0.3384
 2923TIP3    H132964   2.820   4.901  19.214  0.5122  2.1860 -1.1118
 2923TIP3    H232965   2.718   4.869  19.106 -0.1808 -0.9153  0.3405
 2924TIP3   OH232966   3.656   0.001  18.381  0.6125 -0.0189 -0.8390
 2924TIP3    H132967   3.664   0.060  18.306  1.9110  1.0383  0.0818
 2924TIP3    H232968   3.736   0.016  18.432 -1.7631  2.1282  2.7571
 2925TIP3   OH232969   0.769   4.460  19.209  0.0663 -0.1234 -0.0625
 2925TIP3    H132970   0.688   4.506  19.186  0.3358  0.4954  0.1925
 2925TIP3    H232971   0.746   4.410  19.287 -0.2142 -0.3737 -0.3047
 2926TIP3   OH232972   3.705   4.313  20.153  0.4864 -0.5870 -0.3040
 2926TIP3    H132973   3.667   4.349  20.073 -1.1350  0.1498  0.7366
 2926TIP3    H232974   3.670   4.368  20.223  0.7649 -2.0439  1.0424
 2927TIP3   OH232975   2.169   2.985  17.987 -0.5378  0.1817  0.2543
 2927TIP3    H132976   2.113   3.044  17.936  0.5989  1.5987  0.5879
 2927TIP3    H232977   2.222   2.941  17.922 -0.5956  0.3778  0.0719
 2928TIP3   OH232978   0.312   0.353  20.510 -0.1004 -0.1571 -0.0960
 2928TIP3    H132979   0.312   0.376  20.603 -1.5882  0.0290 -0.1192
 2928TIP3    H232980   0.368   0.420  20.470 -2.5107  2.2158  0.1701
 2929TIP3   OH232981   2.425   4.246  19.835  0.2865  0.3382 -0.3906
 2929TIP3    H132982   2.423   4.273  19.743  0.2166 -0.0665 -0.5120
 2929TIP3    H232983   2.365   4.306  19.879  1.3140  1.3635 -0.3736
 2930TIP3   OH232984   5.263   3.550  20.587  0.1560  0.4146 -0.1253
 2930TIP3    H132985   5.196   3.598  20.538  0.3419  0.5578 -0.2442
 2930TIP3    H232986   5.319   3.619  20.623  0.5888  0.2781 -0.5322
 2931TIP3   OH232987   3.695   1.944  20.562 -0.4877 -0.0138  0.1424
 2931TIP3    H132988   3.629   1.879  20.586 -1.8643  1.5274  0.7080
 2931TIP3    H232989   3.772   1.919  20.613 -1.5259 -0.2475  1.6906
 2932TIP3   OH232990   0.241   2.188  18.886  0.0684 -0.6478 -0.4828
 2932TIP3    H132991   0.181   2.227  18.822  0.6407  0.9715 -0.0765
 2932TIP3    H232992   0.277   2.112  18.841 -1.6174 -1.1470 -1.0577
 2933TIP3   OH232993   6.223   1.533  19.465 -0.2254 -0.1200 -0.6489
 2933TIP3    H132994   6.179   1.617  19.451  0.9985  0.7351  0.3988
 2933TIP3    H232995   6.287   1.528  19.394 -0.2029 -0.0885 -0.6313
 2934TIP3   OH232996   4.847   1.947  19.398  0.2139 -0.0350 -0.0782
 2934TIP3    H132997   4.886   1.897  19.326  1.7807  0.2078  0.5485
 2934TIP3    H232998   4.782   1.888  19.436 -0.6901 -0.1325 -1.7184
 2935TIP3   OH232999   5.426   1.102  19.717 -0.3863 -0.5768 -0.0095
 2935TIP3    H133000   5.346   1.153  19.700  0.0892 -0.1968 -1.1879
 2935TIP3    H233001   5.404   1.014  19.686  0.1050 -0.1413 -1.7081
 2936TIP3   OH233002   2.925   0.822  18.154  0.1187 -0.4358 -0.2810
 2936TIP3    H133003   2.903   0.886  18.221 -1.9986 -1.9223  0.5557
 2936TIP3    H233004   3.013   0.792  18.178 -0.0592  0.0308  1.0335
 2937TIP3   OH233005   3.713   4.965  20.293 -0.1619 -0.2057  0.1260
 2937TIP3    H133006   3.679   4.949  20.381  0.7864 -0.4548  0.4624
 2937TIP3    H233007   3.777   4.896  20.278  0.8362  0.7345 -0.1235
 2938TIP3   OH233008   3.122   2.868  20.480 -0.2632 -0.4667  0.9119
 2938TIP3    H133009   3.098   2.775  20.484 -0.7471 -0.3709  0.2618
 2938TIP3    H233010   3.040   2.914  20.465  0.2796 -0.1608 -1.6200
 2939TIP3   OH233011   3.171   4.266  18.220  0.2042  0.0591 -0.1133
 2939TIP3    H133012   3.102   4.258  18.154 -0.6765 -4.2026  1.0426
 2939TIP3    H233013   3.150   4.347  18.267 -2.3807  0.3313 -1.5471
 2940TIP3   OH233014   5.027   3.958  18.053  0.0308  0.6003 -0.5173
 2940TIP3    H133015   5.053   4.027  17.991  1.7117 -0.8607 -1.5229
 2940TIP3    H233016   5.105   3.944  18.107 -0.3988 -0.3013 -0.1201
 2941TIP3   OH233017   4.857   0.112  19.231 -0.2576 -0.0700  0.3338
 2941TIP3    H133018   4.851   0.043  19.297 -0.2328 -1.0576 -0.6682
 2941TIP3    H233019   4.946   0.106  19.198 -1.1047 -1.5899 -1.8595
 2942TIP3   OH233020   6.345   2.889  19.497 -0.7184 -0.7566 -0.5340
 2942TIP3    H133021   6.351   2.962  19.434 -0.5741 -1.5207 -1.4289
 2942TIP3    H233022   6.412   2.908  19.562 -0.3322 -0.3468 -1.0367
 2943TIP3   OH233023   2.798   2.770  19.579  0.3007  0.0551 -0.0883
 2943TIP3    H133024   2.827   2.846  19.529  0.7331  0.0672  0.1708
 2943TIP3    H233025   2.817   2.793  19.670 -0.8422  0.1957  0.1258
 2944TIP3   OH233026   1.632   3.604  17.781  0.1468  0.4432  0.5489
 2944TIP3    H133027   1.621   3.572  17.691  1.0033 -0.4247  0.7377
 2944TIP3    H233028   1.634   3.699  17.772 -0.4452  0.3984 -0.2660
 2945TIP3   OH233029   1.709   4.194  18.722  0.1433 -0.0484  0.2804
 2945TIP3    H133030   1.628   4.234  18.755  0.5907  0.3727  0.8888
 2945TIP3    H233031   1.774   4.263  18.729  0.6840 -0.5563  0.3005
 2946TIP3   OH233032   3.420   0.366  19.902  0.4635 -0.4161 -0.1167
 2946TIP3    H133033   3.379   0.322  19.828 -0.1551  0.5251 -0.3553
 2946TIP3    H233034   3.512   0.343  19.897  0.3719 -0.6068 -1.0036
 2947TIP3   OH233035   3.489   1.856  19.469  0.5251 -0.2031  0.1491
 2947TIP3    H133036   3.520   1.945  19.453  0.3538 -0.2942 -0.7957
 2947TIP3    H233037   3.397   1.866  19.490  0.3895 -0.1755 -0.4195
 2948TIP3   OH233038   5.307   2.120  20.828 -0.1651 -0.7125 -0.1037
 2948TIP3    H133039   5.335   2.208  20.802  0.6690 -1.2800 -1.1883
 2948TIP3    H233040   5.382   2.085  20.876 -0.0825 -1.2257 -0.6094
 2949TIP3   OH233041   5.634   3.549  20.728 -0.9827  0.1084 -0.5586
 2949TIP3    H133042   5.700   3.520  20.791 -1.8323 -0.6387  0.0105
 2949TIP3    H233043   5.681   3.552  20.644  0.2297  1.3915  0.1364
 2950TIP3   OH233044   1.319   1.133  20.853  0.8114  0.0482  0.5031
 2950TIP3    H133045   1.234   1.168  20.827  1.0176 -0.1949 -0.5111
 2950TIP3    H233046   1.379   1.207  20.845  0.8248  0.0462  0.5790
 2951TIP3   OH233047   4.067   3.242  19.244 -0.2220 -0.2834  0.1576
 2951TIP3    H133048   3.983   3.209  19.276 -0.1891 -0.2204  0.3103
 2951TIP3    H233049   4.118   3.257  19.324 -0.5007  0.8695  0.1286
 2952TIP3   OH233050   0.192   5.339  18.319  0.2832  0.2864 -0.1225
 2952TIP3    H133051   0.161   5.366  18.406 -0.6581 -0.3324 -0.2518
 2952TIP3    H233052   0.224   5.421  18.279  2.9804  0.2009  1.6546
 2953TIP3   OH233053   2.744   2.090  18.590  0.2767 -0.0457 -0.3392
 2953TIP3    H133054   2.762   2.176  18.629 -0.5570  0.2898 -0.6476
 2953TIP3    H233055   2.767   2.027  18.657 -0.8243  0.5040  0.5913
 2954TIP3   OH233056   4.057   3.458  20.518  0.1639 -0.3699 -0.6566
 2954TIP3    H133057   3.974   3.411  20.505 -0.2183  0.2570 -0.5353
 2954TIP3    H233058   4.096   3.419  20.595  0.2280 -1.0145 -1.0091
 2955TIP3   OH233059   3.549   1.949  18.796  0.1234 -0.7991  0.0626
 2955TIP3    H133060   3.598   1.882  18.747  2.0279 -0.4828  1.4078
 2955TIP3    H233061   3.582   2.032  18.763  0.7221 -0.5823  1.1357
 2956TIP3   OH233062   2.274   5.226  20.142  0.2039  0.2511 -0.1189
 2956TIP3    H133063   2.190   5.264  20.116  0.0926 -0.4893 -0.8594
 2956TIP3    H233064   2.257   5.132  20.148  0.9169  0.1266 -0.0039
 2957TIP3   OH233065   2.924   0.094  17.937 -0.3229 -0.0432 -0.2365
 2957TIP3    H133066   2.899   0.089  18.029 -0.3740 -0.2386 -0.2597
 2957TIP3    H233067   2.864   0.034  17.893 -1.0527  0.9042 -0.5628
 2958TIP3   OH233068   2.021   0.986  20.555 -0.0976  0.2164 -0.1140
 2958TIP3    H133069   2.089   1.051  20.572  0.4364 -0.3998  0.1501
 2958TIP3    H233070   2.068   0.903  20.551 -0.7148 -0.1067 -0.8787
 2959TIP3   OH233071   5.572   3.063  20.562  0.2743  0.0749  0.6135
 2959TIP3    H133072   5.567   3.098  20.472 -0.3754 -0.4515  0.4382
 2959TIP3    H233073   5.533   3.132  20.616 -0.4769 -0.1293  0.3392
 2960TIP3   OH233074   3.464   1.951  18.182 -0.1997 -0.4103 -0.1151
 2960TIP3    H133075   3.379   1.987  18.207  0.3018  0.9908 -0.2842
 2960TIP3    H233076   3.519   1.962  18.260  0.3207  0.4429 -0.5805
 2961TIP3   OH233077   5.954   3.697  20.842  0.1923  0.0641  0.3412
 2961TIP3    H133078   6.040   3.729  20.869  1.0112 -2.2061  0.5966
 2961TIP3    H233079   5.915   3.771  20.794  1.7290  1.5796  1.3142
 2962TIP3   OH233080   2.018   3.616  20.554  0.1985 -0.3041  0.2604
 2962TIP3    H133081   1.949   3.670  20.593  0.1332 -1.0973  1.2951
 2962TIP3    H233082   1.972   3.550  20.503  0.2835  0.7009 -1.1702
 2963TIP3   OH233083   0.892   2.261  18.319 -0.1288 -0.2186  0.2772
 2963TIP3    H133084   0.947   2.330  18.280  0.3059 -0.1807  0.9304
 2963TIP3    H233085   0.881   2.289  18.410 -0.4409 -0.7158  0.3914
 2964TIP3   OH233086   0.469   6.439  17.881  0.1661  0.4697 -0.0869
 2964TIP3    H133087   0.422   6.410  17.802  0.9207 -0.0065 -0.3739
 2964TIP3    H233088   0.447   6.373  17.947  0.9476 -0.1488 -0.4151
 2965TIP3   OH233089   3.428   1.218  20.645 -0.2726 -0.2300  0.2512
 2965TIP3    H133090   3.349   1.194  20.597 -1.2504  0.3649  1.4892
 2965TIP3    H233091   3.439   1.147  20.709  0.5767 -0.6301 -0.3226
 2966TIP3   OH233092   1.486   1.740  18.938  0.1369  0.3458 -0.2071
 2966TIP3    H133093   1.521   1.794  19.010  0.9106  0.2022 -0.4591
 2966TIP3    H233094   1.480   1.652  18.976  0.8605  0.2027 -0.4010
 2967TIP3   OH233095   1.714   1.230  19.048 -0.8094 -0.1325  0.4067
 2967TIP3    H133096   1.675   1.261  18.966  0.2558  2.8190  0.8726
 2967TIP3    H233097   1.806   1.256  19.042 -0.8443  0.7566  2.7541
 2968TIP3   OH233098   6.634   2.101  20.673  0.6259  0.1362  0.2732
 2968TIP3    H133099   6.576   2.174  20.693  0.4430  0.8157 -2.3341
 2968TIP3    H233100   6.716   2.141  20.648  0.6357 -0.5252 -0.8561
 2969TIP3   OH233101   6.694   4.503  18.402  0.8100 -0.2073  0.0163
 2969TIP3    H133102   6.603   4.479  18.384 -0.2215  1.8490  1.9535
 2969TIP3    H233103   6.704   4.590  18.362  1.5686  0.0286  0.6867
 2970TIP3   OH233104   0.654   0.383  20.143 -0.0661  0.5708 -0.1173
 2970TIP3    H133105   0.675   0.357  20.232 -1.1253  0.1593  0.0172
 2970TIP3    H233106   0.645   0.479  20.148  1.3668  0.7320 -0.1142
 2971TIP3   OH233107   4.988   0.457  20.848  0.1969 -0.0728 -0.1020
 2971TIP3    H133108   5.015   0.438  20.758 -1.7019 -0.8213 -0.5829
 2971TIP3    H233109   4.955   0.373  20.881 -0.9034  0.6061  0.6087
 2972TIP3   OH233110   3.858   2.092  19.610  0.3482 -0.8246  0.4693
 2972TIP3    H133111   3.911   2.050  19.543  1.5669 -0.2553  1.0459
 2972TIP3    H233112   3.907   2.078  19.691  1.8987  3.2764  0.4813
 2973TIP3   OH233113   3.184   3.885  19.640 -0.4352  0.1354  0.1039
 2973TIP3    H133114   3.110   3.945  19.655 -0.5543  1.4031 -4.2319
 2973TIP3    H233115   3.144   3.805  19.607 -0.0445 -1.2470  2.7300
 2974TIP3   OH233116   3.109   2.300  20.500 -0.1599  0.1011  0.4444
 2974TIP3    H133117   3.183   2.281  20.441 -0.2427 -2.3355  1.0164
 2974TIP3    H233118   3.093   2.217  20.546 -2.0582  1.0929  1.7056
 2975TIP3   OH233119   2.124   0.899  18.156 -0.2348 -0.3244  0.5434
 2975TIP3    H133120   2.054   0.852  18.202 -0.5344  0.9467  1.4491
 2975TIP3    H233121   2.148   0.970  18.215 -0.1320  0.9583 -0.9568
 2976TIP3   OH233122   2.840   0.342  18.369 -0.0583  0.4071  0.2814
 2976TIP3    H133123   2.861   0.276  18.436 -1.2908 -1.3712 -0.9952
 2976TIP3    H233124   2.925   0.367  18.333  0.4424 -0.4278  0.8423
 2977TIP3   OH233125   5.496   5.280  17.507 -0.0197  0.3262  0.1127
 2977TIP3    H133126   5.517   5.235  17.426 -2.7571  0.7151 -0.9358
 2977TIP3    H233127   5.501   5.373  17.486 -0.9859  0.4317  0.2722
 2978TIP3   OH233128   2.029   3.847  20.138  0.4876 -0.1926  0.1325
 2978TIP3    H133129   2.071   3.769  20.176 -1.0240 -0.9963  0.2302
 2978TIP3    H233130   1.988   3.890  20.213  0.1313 -0.0746 -0.1295
 2979TIP3   OH233131   1.297   5.776  20.731 -0.1282  0.5385  0.0681
 2979TIP3    H133132   1.202   5.780  20.743  0.0125  0.1179  1.4609
 2979TIP3    H233133   1.312   5.689  20.693 -0.3616  0.9358 -0.9650
 2980TIP3   OH233134   4.888   5.136  18.072 -0.0157  0.5540  0.4397
 2980TIP3    H133135   4.918   5.212  18.122  0.1835  0.5806  0.2835
 2980TIP3    H233136   4.895   5.062  18.132  2.5704  0.1488 -0.2630
 2981TIP3   OH233137   6.409   4.437  20.856  0.0335  0.1812  0.0090
 2981TIP3    H133138   6.353   4.375  20.903 -0.5768  0.1622 -0.7284
 2981TIP3    H233139   6.473   4.382  20.811  1.0013  0.2329  1.2894
 2982TIP3   OH233140   0.753   0.717  17.254 -0.0193 -0.3692  0.1904
 2982TIP3    H133141   0.793   0.685  17.173  2.0583 -0.6114  1.2433
 2982TIP3    H233142   0.700   0.792  17.227  1.5101  0.2361 -1.2416
 2983TIP3   OH233143   4.716   1.671  19.789 -0.4985 -0.4336  0.1357
 2983TIP3    H133144   4.767   1.590  19.779 -1.7333 -1.1332 -0.7141
 2983TIP3    H233145   4.742   1.724  19.713  0.2246 -0.0598  0.6303
 2984TIP3   OH233146   4.009   3.922  19.751  0.5423 -0.7264 -0.1682
 2984TIP3    H133147   3.953   3.988  19.709  1.7135 -0.3247 -1.1468
 2984TIP3    H233148   3.952   3.881  19.815 -0.9906 -0.5557 -1.3462
 2985TIP3   OH233149   1.362   1.581  19.576  0.4529  0.0241 -0.6878
 2985TIP3    H133150   1.311   1.633  19.638  1.9265  2.3275 -1.2523
 2985TIP3    H233151   1.387   1.503  19.624 -0.4498  0.6275  0.8103
 2986TIP3   OH233152   6.570   5.169  19.568  0.1486  0.2088 -0.0789
 2986TIP3    H133153   6.663   5.183  19.550  0.2106 -0.4398 -0.2749
 2986TIP3    H233154   6.530   5.162  19.481 -0.0628  0.3484  0.0075
 2987TIP3   OH233155   5.167   0.827  20.952 -0.2173 -0.6278  0.2936
 2987TIP3    H133156   5.254   0.860  20.927 -0.5087  1.1862  1.5234
 2987TIP3    H233157   5.166   0.832  21.047 -1.1240 -2.1540  0.3941
 2988TIP3   OH233158   5.225   4.717  18.629 -0.8004  0.2260 -0.6007
 2988TIP3    H133159   5.277   4.639  18.613  1.0039  1.1481  0.3970
 2988TIP3    H233160   5.192   4.705  18.718  0.1251  0.8905 -0.1438
 2989TIP3   OH233161   2.893   5.097  17.639 -0.3754 -0.3916  0.6646
 2989TIP3    H133162   2.928   5.027  17.583  0.1113 -0.2094  0.7367
 2989TIP3    H233163   2.915   5.178  17.592  0.4135 -0.2166  1.3221
 2990TIP3   OH233164   2.420   6.099  20.226 -0.8432  0.3580 -0.1038
 2990TIP3    H133165   2.377   6.013  20.220  1.0759 -0.7729  1.3642
 2990TIP3    H233166   2.373   6.144  20.296  1.1818 -1.4905  2.6415
 2991TIP3   OH233167   5.566   2.130  20.537 -0.2065  0.1284 -0.5511
 2991TIP3    H133168   5.534   2.190  20.605  1.2301  1.1353 -0.7018
 2991TIP3    H233169   5.517   2.154  20.459 -0.6415  0.1467 -0.2754
 2992TIP3   OH233170   4.772   3.062  18.093  0.1480  0.1574  0.0765
 2992TIP3    H133171   4.698   3.002  18.093  0.0471  0.2815 -0.1142
 2992TIP3    H233172   4.735   3.146  18.068  0.0227  0.6376  1.7490
 2993TIP3   OH233173   4.296   2.303  19.052  0.0626  0.0330  0.5921
 2993TIP3    H133174   4.387   2.274  19.043  0.6842  2.0622 -0.2651
 2993TIP3    H233175   4.245   2.221  19.058  1.7823 -1.1810 -0.4465
 2994TIP3   OH233176   1.184   4.005  17.948 -0.1668 -0.7170 -0.2304
 2994TIP3    H133177   1.217   3.997  17.859 -2.2472 -1.2806 -1.0182
 2994TIP3    H233178   1.177   4.100  17.963  1.6377 -0.5905 -0.0547
 2995TIP3   OH233179   6.304   6.025  18.544 -0.3497  0.0538  0.5011
 2995TIP3    H133180   6.287   5.934  18.569 -1.3469  0.0646 -0.0827
 2995TIP3    H233181   6.248   6.077  18.601  0.1403  0.3065  0.7616
 2996TIP3   OH233182   3.022   5.621  20.357  0.2027  0.0972  0.0144
 2996TIP3    H133183   2.960   5.550  20.368 -1.7392  1.4968 -1.2110
 2996TIP3    H233184   3.062   5.606  20.271  1.0757 -0.4156  0.4948
 2997TIP3   OH233185   1.214   2.666  20.002 -0.0101 -0.2723 -0.9110
 2997TIP3    H133186   1.297   2.662  19.953  0.4444  0.2143 -0.2066
 2997TIP3    H233187   1.218   2.591  20.061  0.4591  0.3638 -0.0962
 2998TIP3   OH233188   0.337   4.642  18.192  0.4403  0.6612 -0.3830
 2998TIP3    H133189   0.336   4.574  18.259  1.2940 -1.8931 -2.7754
 2998TIP3    H233190   0.355   4.596  18.111 -0.2522  3.6219 -2.3983
 2999TIP3   OH233191   2.424   0.188  19.583  0.1647  0.4890 -0.4264
 2999TIP3    H133192   2.360   0.123  19.555 -0.2608 -1.1052  3.6057
 2999TIP3    H233193   2.506   0.160  19.543 -0.3838 -1.5113 -0.2173
 3000TIP3   OH233194   3.341   6.456  20.194 -0.6472 -0.2517 -0.5435
 3000TIP3    H133195   3.403   6.455  20.267 -0.5766  2.6507 -0.4230
 3000TIP3    H233196   3.367   6.383  20.138  1.1190 -0.7943  0.9116
 3001TIP3   OH233197   6.688   1.161  20.532  0.1067  0.3137 -0.6013
 3001TIP3    H133198   6.770   1.211  20.531 -0.3116  1.0168 -1.0661
 3001TIP3    H233199   6.625   1.218  20.487 -0.3719 -0.6752 -1.2057
 3002TIP3   OH233200   5.726   3.126  18.544 -0.0218 -0.1458 -0.1981
 3002TIP3    H133201   5.774   3.046  18.522  0.6239  0.0269  0.5220
 3002TIP3    H233202   5.741   3.137  18.638  0.1269  0.9717 -0.3420
 3003TIP3   OH233203   1.259   3.961  20.028 -0.5629  0.0838 -0.1117
 3003TIP3    H133204   1.271   3.872  20.061 -0.2450  1.1267  2.8508
 3003TIP3    H233205   1.343   3.984  19.989 -1.4475 -1.7671 -3.4980
 3004TIP3   OH233206   2.182   4.842  17.870  0.1198 -0.1436 -0.4459
 3004TIP3    H133207   2.264   4.875  17.833  0.9440 -2.4701 -0.8874
 3004TIP3    H233208   2.118   4.851  17.800  0.3986  0.2055 -0.6568
 3005TIP3   OH233209   5.854   4.253  17.992 -0.2373  0.4641  0.0690
 3005TIP3    H133210   5.863   4.205  18.075  0.8434  2.5947  1.2841
 3005TIP3    H233211   5.944   4.276  17.968 -0.6027  0.5390 -1.3144
 3006TIP3   OH233212   4.874   1.767  18.484  0.2931 -0.3549 -0.2836
 3006TIP3    H133213   4.900   1.680  18.514 -0.0296 -1.5536 -3.2092
 3006TIP3    H233214   4.954   1.820  18.489  0.8121 -1.1787  0.2595
 3007TIP3   OH233215   6.634   5.188  17.461  0.4778  0.4001 -0.8220
 3007TIP3    H133216   6.698   5.119  17.477 -1.8533 -1.2828  2.4280
 3007TIP3    H233217   6.572   5.150  17.398  0.5444  0.4786 -0.9344
 3008TIP3   OH233218   1.323   4.961  19.794 -0.5724 -0.1567 -0.6745
 3008TIP3    H133219   1.313   4.933  19.884 -0.1066  1.2018 -0.1668
 3008TIP3    H233220   1.294   4.887  19.741 -0.2469 -1.1976  0.5809
 3009TIP3   OH233221   1.217   5.351  20.072 -0.5301  0.2155  0.2875
 3009TIP3    H133222   1.174   5.273  20.107 -2.8464  1.4804  0.4672
 3009TIP3    H233223   1.252   5.324  19.988  1.1227 -1.6792  1.5037
 3010TIP3   OH233224   1.819   6.384  19.534  0.0559 -0.6476  0.0479
 3010TIP3    H133225   1.825   6.306  19.590 -2.3775 -0.1426  1.1179
 3010TIP3    H233226   1.757   6.441  19.578  0.7076  1.3324 -1.4350
 3011TIP3   OH233227   1.332   5.138  20.378 -0.0760  0.1618  0.2456
 3011TIP3    H133228   1.272   5.212  20.369 -0.2806  0.0533  0.7117
 3011TIP3    H233229   1.373   5.150  20.464  1.3804  0.8297 -0.5113
 3012TIP3   OH233230   5.333   6.418  17.289 -0.3112 -0.2804  0.1217
 3012TIP3    H133231   5.326   6.343  17.229 -1.1490 -0.8145  0.8546
 3012TIP3    H233232   5.253   6.413  17.342 -1.6072  2.5330 -1.3568
 3013TIP3   OH233233   4.094   4.845  19.469  0.0714 -0.0938  0.5061
 3013TIP3    H133234   4.142   4.781  19.416  0.0638 -1.2514  1.8390
 3013TIP3    H233235   4.156   4.872  19.536  0.2960  1.8709 -0.4170
 3014TIP3   OH233236   1.726   2.165  20.292 -0.6510  0.3027  0.1085
 3014TIP3    H133237   1.783   2.241  20.294 -0.8426  0.4394  0.4736
 3014TIP3    H233238   1.784   2.091  20.277 -0.5109  0.5652 -0.6983
 3015TIP3   OH233239   2.844   2.701  19.138  0.5791 -0.3859  0.5512
 3015TIP3    H133240   2.794   2.783  19.134  0.6511 -0.4025 -1.4858
 3015TIP3    H233241   2.932   2.728  19.165  0.3920  0.0982  0.6914
 3016TIP3   OH233242   2.232   6.608  17.463 -0.4849 -0.0984  0.3560
 3016TIP3    H133243   2.176   6.550  17.411 -0.7092 -0.2452  0.7555
 3016TIP3    H233244   2.312   6.616  17.412 -0.5178 -0.6193  0.2164
 3017TIP3   OH233245   4.751   3.121  20.364  0.8149  0.3993  0.1095
 3017TIP3    H133246   4.805   3.170  20.303  0.2651 -0.1847 -0.8825
 3017TIP3    H233247   4.806   3.047  20.391  0.5442 -0.1762 -0.8722
 3018TIP3   OH233248   1.805   4.324  19.706 -0.3377  0.0523  0.0062
 3018TIP3    H133249   1.752   4.278  19.641  1.0990 -2.1127  0.2817
 3018TIP3    H233250   1.743   4.347  19.776 -1.0596 -2.0334  0.1244
 3019TIP3   OH233251   3.474   0.761  18.064  0.7695  0.0451 -0.1270
 3019TIP3    H133252   3.505   0.774  18.154  1.2692  0.3859 -0.3461
 3019TIP3    H233253   3.553   0.739  18.014  0.3618 -1.0698 -0.3092
 3020TIP3   OH233254   2.650   6.489  20.615  0.0456  0.3497 -0.3275
 3020TIP3    H133255   2.581   6.423  20.622  1.5540 -1.2947 -0.4791
 3020TIP3    H233256   2.703   6.462  20.540  0.5912  1.8578 -0.5230
 3021TIP3   OH233257   0.151   4.043  18.161 -0.4037  0.1342  0.2686
 3021TIP3    H133258   0.167   4.110  18.227  0.3632 -0.8592  1.1022
 3021TIP3    H233259   0.221   3.980  18.172 -1.2552 -0.9551 -0.3417
 3022TIP3   OH233260   2.229   3.630  19.276 -0.1065  0.6800  0.3486
 3022TIP3    H133261   2.139   3.636  19.307  0.2004 -0.3203  1.5121
 3022TIP3    H233262   2.273   3.574  19.339  1.0228  0.0634 -0.9176
 3023TIP3   OH233263   6.163   6.039  19.966  0.0835  0.1079  0.9288
 3023TIP3    H133264   6.076   6.000  19.966  0.4648 -0.7677  0.1056
 3023TIP3    H233265   6.215   5.985  20.026  0.3183  0.0380  0.6640
 3024TIP3   OH233266   3.726   3.246  18.956 -0.1639  0.3240  0.6151
 3024TIP3    H133267   3.820   3.247  18.938 -0.4003  0.5637 -0.7478
 3024TIP3    H233268   3.688   3.298  18.885 -1.5336 -1.5492 -0.1039
 3025TIP3   OH233269   1.152   2.456  18.249 -0.1813 -0.3993 -0.8892
 3025TIP3    H133270   1.239   2.449  18.287 -0.4940  0.1101 -0.0438
 3025TIP3    H233271   1.097   2.487  18.320 -0.7756  0.6732 -1.7784
 3026TIP3   OH233272   5.345   6.315  20.396 -0.4974  0.3096  0.3873
 3026TIP3    H133273   5.319   6.378  20.464 -0.1327  0.3247  0.5131
 3026TIP3    H233274   5.292   6.339  20.320 -0.6988  0.4747  0.5782
 3027TIP3   OH233275   5.721   5.319  19.743  0.1991 -0.2244  0.2390
 3027TIP3    H133276   5.780   5.282  19.809 -0.8059 -1.0103  0.7330
 3027TIP3    H233277   5.730   5.414  19.754  1.8251 -0.3122 -0.1399
 3028TIP3   OH233278   0.575   5.980  20.088  0.1769 -0.3016  0.3587
 3028TIP3    H133279   0.628   6.051  20.124 -0.5282 -0.5577  1.9726
 3028TIP3    H233280   0.614   5.900  20.124  0.6757 -0.7379 -1.0665
 3029TIP3   OH233281   4.662   1.963  18.449 -0.9430  0.3028  0.2239
 3029TIP3    H133282   4.738   1.904  18.446  0.0125  1.5075 -0.1701
 3029TIP3    H233283   4.694   2.040  18.496 -2.3638  0.2612  1.3079
 3030TIP3   OH233284   2.257   4.833  19.183  0.2511  0.0873 -0.4088
 3030TIP3    H133285   2.257   4.752  19.132 -0.8560  0.4600 -1.0223
 3030TIP3    H233286   2.171   4.872  19.167  0.3657  0.8601  0.7240
 3031TIP3   OH233287   6.286   3.640  17.591 -0.3436 -0.3590 -0.7250
 3031TIP3    H133288   6.225   3.710  17.613  2.0187  1.4173  0.7375
 3031TIP3    H233289   6.308   3.656  17.499  1.0431  1.7055 -0.1255
 3032TIP3   OH233290   6.425   6.379  18.493  0.6441 -0.0619 -0.1973
 3032TIP3    H133291   6.514   6.345  18.499  1.2537  1.2989 -0.9863
 3032TIP3    H233292   6.400   6.398  18.583  0.6954 -1.5193  0.1463
 3033TIP3   OH233293   2.876   3.012  19.443 -0.3492 -0.9179 -0.4599
 3033TIP3    H133294   2.840   3.081  19.387  0.7184 -0.7403 -0.9625
 3033TIP3    H233295   2.969   3.036  19.453 -0.6731 -0.4477  2.1401
 3034TIP3   OH233296   6.279   0.946  17.128 -0.0524 -0.5317 -0.3523
 3034TIP3    H133297   6.356   0.997  17.100  0.4123 -1.2027 -0.3291
 3034TIP3    H233298   6.237   1.001  17.195  0.0182  0.1438 -0.8498
 3035TIP3   OH233299   2.941   1.989  18.388 -0.2072  0.0927  0.6177
 3035TIP3    H133300   2.959   1.916  18.448  0.3629  0.5507  1.0059
 3035TIP3    H233301   2.885   2.049  18.438  1.7593  1.3738  1.3694
 3036TIP3   OH233302   4.568   2.987  19.199  0.2503 -0.8932 -0.1286
 3036TIP3    H133303   4.615   3.061  19.239  1.2008 -1.7475  0.3810
 3036TIP3    H233304   4.528   3.024  19.121 -1.0878  0.6694  1.2329
 3037TIP3   OH233305   2.090   4.828  19.568  0.4822  0.8952 -0.1700
 3037TIP3    H133306   2.180   4.862  19.569  1.1734 -0.8528 -0.3168
 3037TIP3    H233307   2.055   4.856  19.483  1.3157  0.5456 -0.6414
 3038TIP3   OH233308   5.222   6.504  19.229  0.4756 -0.0184  1.0077
 3038TIP3    H133309   5.133   6.530  19.207  0.3928 -0.3705  0.9174
 3038TIP3    H233310   5.217   6.409  19.245  0.5654  0.1983  2.4189
 3039TIP3   OH233311   2.856   3.352  18.348  0.1897 -0.1114 -0.0893
 3039TIP3    H133312   2.831   3.444  18.341  1.4733  0.2919  0.2984
 3039TIP3    H233313   2.819   3.311  18.270  0.2728  0.8961 -0.6741
 3040TIP3   OH233314   4.707   2.534  18.724 -0.4135  0.4727 -0.1193
 3040TIP3    H133315   4.654   2.530  18.645 -0.7571  0.7804  0.0953
 3040TIP3    H233316   4.657   2.588  18.785  0.3515  1.1518 -0.0717
 3041TIP3   OH233317   5.410   4.338  18.703 -0.4139  0.7496 -0.1556
 3041TIP3    H133318   5.363   4.367  18.781 -0.7401  0.4780 -0.2490
 3041TIP3    H233319   5.486   4.291  18.737  1.2236  3.3252  0.0362
 3042TIP3   OH233320   0.841   1.904  20.642  0.0335  0.4257 -0.5338
 3042TIP3    H133321   0.934   1.882  20.637  0.5694  1.2287  3.1208
 3042TIP3    H233322   0.796   1.827  20.606  2.0454 -0.1499 -1.9996
 3043TIP3   OH233323   4.898   0.376  18.355 -0.3675 -0.1974 -0.9007
 3043TIP3    H133324   4.894   0.331  18.439  0.4445 -0.1024 -0.8051
 3043TIP3    H233325   4.881   0.468  18.376 -1.8568 -0.4062 -1.0740
 3044TIP3   OH233326   2.381   5.824  20.409 -0.4393  0.1806  0.7953
 3044TIP3    H133327   2.360   5.811  20.316  1.3652 -0.6572  0.4441
 3044TIP3    H233328   2.357   5.741  20.451  0.8971 -0.3303  0.6078
 3045TIP3   OH233329   6.516   2.925  17.575  0.1422  0.1941 -0.3995
 3045TIP3    H133330   6.563   2.846  17.604  0.6777  0.8057  0.4584
 3045TIP3    H233331   6.485   2.904  17.487  0.1177 -1.0363 -0.1099
 3046TIP3   OH233332   3.301   4.935  18.965  0.2232  0.5893  0.1741
 3046TIP3    H133333   3.297   4.844  18.935 -0.1137  0.4393  0.6715
 3046TIP3    H233334   3.350   4.931  19.047 -0.1877  0.7932  0.4303
 3047TIP3   OH233335   5.467   5.563  18.614 -0.0474 -0.6135  0.0782
 3047TIP3    H133336   5.561   5.549  18.627 -0.0247  0.2163  0.8757
 3047TIP3    H233337   5.434   5.586  18.700 -1.0210 -1.0339 -0.1702
 3048TIP3   OH233338   5.629   0.732  20.662  0.0023 -0.2741  0.0109
 3048TIP3    H133339   5.638   0.787  20.741 -0.1904 -0.8520  0.4435
 3048TIP3    H233340   5.538   0.744  20.635  0.5646  1.4656 -1.2957
 3049TIP3   OH233341   2.439   2.462  19.612 -0.5657 -0.2392 -0.2874
 3049TIP3    H133342   2.497   2.497  19.679 -0.4902  0.3390 -0.6503
 3049TIP3    H233343   2.498   2.420  19.549 -0.5584  0.0888 -0.5028
 3050TIP3   OH233344   3.178   5.307  20.100 -0.2508 -0.3797 -0.5653
 3050TIP3    H133345   3.105   5.268  20.051 -0.7698  1.1239 -1.0381
 3050TIP3    H233346   3.195   5.390  20.056  0.3991  0.2282  0.7779
 3051TIP3   OH233347   5.327   1.430  18.726 -0.0755  0.3136 -0.1599
 3051TIP3    H133348   5.297   1.442  18.816  0.6066 -0.4822  0.1948
 3051TIP3    H233349   5.417   1.464  18.726 -0.1392  0.4906 -0.5925
 3052TIP3   OH233350   2.888   4.810  18.581  0.2901  0.1357  0.0415
 3052TIP3    H133351   2.960   4.835  18.639 -0.1152  1.3397  0.0411
 3052TIP3    H233352   2.832   4.754  18.635  0.0237  1.0815  0.7616
 3053TIP3   OH233353   1.203   4.001  19.123  0.5433 -0.4264  0.2157
 3053TIP3    H133354   1.176   3.952  19.046 -0.4178  1.7770 -0.9151
 3053TIP3    H233355   1.139   4.072  19.131  2.2188  1.0525  1.3819
 3054TIP3   OH233356   0.395   5.679  19.066  0.3086 -0.3392  0.7632
 3054TIP3    H133357   0.357   5.649  19.149  1.5339 -0.1804  1.3980
 3054TIP3    H233358   0.371   5.771  19.060 -2.5936 -1.0705 -0.6971
 3055TIP3   OH233359   1.842   0.112  18.132  0.6137 -0.0063 -0.1766
 3055TIP3    H133360   1.792   0.122  18.051 -1.3865  0.2107  1.0343
 3055TIP3    H233361   1.817   0.027  18.166 -1.6720  1.4700  2.1638
 3056TIP3   OH233362   2.918   6.193  19.444  0.1918 -0.1833 -0.1564
 3056TIP3    H133363   2.872   6.207  19.527  0.0701  0.1716 -0.2832
 3056TIP3    H233364   2.901   6.101  19.422  0.9373 -0.5305  0.6471
 3057TIP3   OH233365   4.766   0.505  19.710  0.6752 -0.0148  0.1491
 3057TIP3    H133366   4.698   0.548  19.657  1.3701  1.5326  0.4730
 3057TIP3    H233367   4.809   0.576  19.756  2.8219 -0.9148 -0.3652
 3058TIP3   OH233368   3.045   1.622  17.918 -0.2747  0.2325  0.7307
 3058TIP3    H133369   3.073   1.530  17.917 -1.5874 -0.2318 -1.9501
 3058TIP3    H233370   2.970   1.623  17.978  0.3236 -0.2119  1.5125
 3059TIP3   OH233371   3.588   6.080  19.572 -0.0414  0.0524 -0.4285
 3059TIP3    H133372   3.616   6.095  19.482  1.3780 -1.8792 -0.3625
 3059TIP3    H233373   3.667   6.050  19.617 -0.6905  1.0754  1.5110
 3060TIP3   OH233374   0.108   3.720  18.378 -0.0904 -0.0707 -0.1778
 3060TIP3    H133375   0.026   3.680  18.406 -1.1585  1.1260 -1.3994
 3060TIP3    H233376   0.121   3.687  18.289 -0.5210  1.5272 -0.8684
 3061TIP3   OH233377   1.712   3.251  18.591  0.2421 -0.0230  0.6890
 3061TIP3    H133378   1.749   3.229  18.505 -1.4910 -2.8294  0.5277
 3061TIP3    H233379   1.628   3.291  18.572 -0.5245 -1.4057  1.0047
 3062TIP3   OH233380   0.781   2.494  18.970 -0.1904 -0.2074 -0.5841
 3062TIP3    H133381   0.714   2.426  18.969 -0.1719 -0.2222 -0.7389
 3062TIP3    H233382   0.834   2.473  19.048  0.5784 -1.1136 -1.3202
 3063TIP3   OH233383   0.180   3.355  17.942  0.2796  0.0083 -0.3404
 3063TIP3    H133384   0.268   3.391  17.929  0.2402 -0.3772 -1.8682
 3063TIP3    H233385   0.149   3.397  18.021  2.5126 -1.1653  1.2759
 3064TIP3   OH233386   1.176   5.988  19.594 -0.4333  0.0758  0.4507
 3064TIP3    H133387   1.210   6.076  19.611 -0.1626  0.6173 -2.3126
 3064TIP3    H233388   1.081   5.997  19.603 -0.3294  0.2793  1.4992
 3065TIP3   OH233389   0.308   6.483  19.743 -0.3918 -0.4284  0.9057
 3065TIP3    H133390   0.269   6.473  19.657 -0.1894 -0.5601  0.8289
 3065TIP3    H233391   0.249   6.437  19.802 -0.3655 -0.6104  0.7918
 3066TIP3   OH233392   4.024   6.040  19.382 -0.4558  0.1498  0.0297
 3066TIP3    H133393   3.964   6.097  19.334  0.3148 -0.9613 -2.4130
 3066TIP3    H233394   4.053   6.093  19.456 -1.2479  2.2078 -1.0494
 3067TIP3   OH233395   1.920   5.693  18.183 -0.0231  0.1068  0.6526
 3067TIP3    H133396   1.873   5.619  18.145  0.7863 -1.4082  2.4291
 3067TIP3    H233397   1.882   5.703  18.271 -1.1597  2.8339 -0.0720
 3068TIP3   OH233398   5.121   3.005  17.122  0.0612 -0.0276 -0.4220
 3068TIP3    H133399   5.123   2.910  17.109 -0.6526  0.1476 -2.0530
 3068TIP3    H233400   5.189   3.021  17.187  0.6063 -1.5927 -0.5493
 3069TIP3   OH233401   5.512   4.919  19.884 -0.0499  0.2521 -0.0099
 3069TIP3    H133402   5.476   4.893  19.799 -1.6404  2.9298 -0.2774
 3069TIP3    H233403   5.443   4.898  19.947 -0.8044  2.3017 -0.0596
 3070TIP3   OH233404   2.772   2.354  17.664  0.5305 -0.2748 -0.6740
 3070TIP3    H133405   2.807   2.436  17.628  0.9165 -0.8987 -1.7864
 3070TIP3    H233406   2.786   2.361  17.758  1.0187  0.7234 -0.8063
 3071TIP3   OH233407   1.449   4.110  17.500  0.6052  0.0980  0.5931
 3071TIP3    H133408   1.412   4.022  17.499 -1.7553  1.0303  0.3735
 3071TIP3    H233409   1.472   4.129  17.409  0.4831 -0.0354  0.5367
 3072TIP3   OH233410   4.468   1.936  19.631 -0.1741 -0.4856  0.5841
 3072TIP3    H133411   4.394   1.941  19.691  0.4768  0.9801  1.3306
 3072TIP3    H233412   4.543   1.961  19.684  0.4667  0.5707 -0.7461
 3073TIP3   OH233413   3.701   6.330  17.912 -0.0472 -0.0669 -0.2307
 3073TIP3    H133414   3.680   6.308  17.821  0.7324 -0.4853 -0.3164
 3073TIP3    H233415   3.749   6.254  17.944 -0.1006  0.1896  0.4536
 3074TIP3   OH233416   0.516   2.889  20.165 -0.6293  0.1106  0.0272
 3074TIP3    H133417   0.486   2.807  20.204 -1.4530  0.4094  0.0397
 3074TIP3    H233418   0.447   2.912  20.102  0.5723 -0.2671 -1.4981
 3075TIP3   OH233419   2.066   6.361  17.401 -0.0317  0.1012  0.6597
 3075TIP3    H133420   1.977   6.329  17.384  0.1605 -0.1494  0.0905
 3075TIP3    H233421   2.113   6.284  17.433  0.4639 -0.2512 -0.8234
 3076TIP3   OH233422   5.198   2.340  20.420  0.2570  0.1030 -0.3437
 3076TIP3    H133423   5.133   2.272  20.401  0.4687  0.4500 -2.5933
 3076TIP3    H233424   5.248   2.305  20.494 -0.1352 -1.8492 -0.9301
 3077TIP3   OH233425   0.067   5.156  17.735  0.1774  0.0230  0.2825
 3077TIP3    H133426   0.138   5.103  17.772 -2.1931 -1.4575  3.1091
 3077TIP3    H233427   0.056   5.123  17.646  1.1897 -1.6816  0.7461
 3078TIP3   OH233428   1.885   3.548  17.862 -1.0768 -0.2342 -0.1222
 3078TIP3    H133429   1.870   3.458  17.836 -1.9583 -0.7091  1.8468
 3078TIP3    H233430   1.801   3.592  17.846 -1.3937 -0.3586  1.0378
 3079TIP3   OH233431   2.638   3.588  19.054  0.9741 -0.3002  0.2288
 3079TIP3    H133432   2.645   3.660  18.991  1.1713  0.3818  1.0135
 3079TIP3    H233433   2.598   3.517  19.004 -0.1591  0.6652 -0.2994
 3080TIP3   OH233434   6.209   2.634  18.661  0.7497 -0.2295 -0.4223
 3080TIP3    H133435   6.219   2.720  18.701  0.8908 -0.4168 -0.0570
 3080TIP3    H233436   6.295   2.593  18.669  0.4048 -0.8163  0.3650
 3081TIP3   OH233437   0.151   0.891  18.644 -0.3570  0.2001 -0.0482
 3081TIP3    H133438   0.082   0.848  18.695 -0.9728  1.2530  0.0420
 3081TIP3    H233439   0.197   0.820  18.600 -1.5514 -0.5262 -0.1602
 3082TIP3   OH233440   4.212   0.784  19.884  0.2774  0.4478  0.3254
 3082TIP3    H133441   4.277   0.793  19.954  0.3265 -1.5780  0.6232
 3082TIP3    H233442   4.154   0.859  19.895  0.5371  0.4165  2.3068
 3083TIP3   OH233443   2.263   1.437  17.549 -0.4497  0.1193 -0.0915
 3083TIP3    H133444   2.223   1.454  17.635  0.4280  1.0436  0.1590
 3083TIP3    H233445   2.196   1.464  17.486 -0.6138  0.6967  0.3144
 3084TIP3   OH233446   4.155   4.838  20.298  0.2504  0.5801  0.1584
 3084TIP3    H133447   4.074   4.817  20.252 -0.6575  2.7859  0.6409
 3084TIP3    H233448   4.220   4.848  20.228  0.1957 -1.3336 -0.2249
 3085TIP3   OH233449   1.408   3.709  20.664  0.0475  0.1483  0.2486
 3085TIP3    H133450   1.408   3.619  20.632  3.5599  0.1949 -0.3439
 3085TIP3    H233451   1.338   3.753  20.616 -0.0811 -1.6917 -1.3369
 3086TIP3   OH233452   4.945   5.217  18.476 -0.8083 -0.1671  0.0243
 3086TIP3    H133453   4.907   5.232  18.563 -1.2098 -2.8136  0.3958
 3086TIP3    H233454   5.036   5.191  18.494 -0.4835  0.5960 -0.4671
 3087TIP3   OH233455   1.845   1.752  19.734  0.1137  0.1037  0.6667
 3087TIP3    H133456   1.879   1.826  19.785  0.1816 -0.4682  1.4761
 3087TIP3    H233457   1.924   1.705  19.706  0.0826  0.5236 -0.1402
 3088TIP3   OH233458   1.875   1.922  17.542  0.0261 -0.7383  0.4440
 3088TIP3    H133459   1.811   1.984  17.506  0.6227  0.2803  1.0872
 3088TIP3    H233460   1.894   1.862  17.470 -1.3454 -0.8173  0.1175
 3089TIP3   OH233461   0.240   4.422  18.923  0.3588  0.2326  0.0526
 3089TIP3    H133462   0.291   4.459  18.851 -1.4942  0.9704 -0.9399
 3089TIP3    H233463   0.216   4.334  18.893 -1.7770  1.1219 -0.9969
 3090TIP3   OH233464   0.619   1.153  17.507  0.4350 -0.1868  0.3870
 3090TIP3    H133465   0.702   1.163  17.461  0.5455 -1.0763  0.3687
 3090TIP3    H233466   0.552   1.175  17.442  0.6082 -0.9693 -0.0668
 3091TIP3   OH233467   0.503   1.325  19.535  0.1908  0.2303  0.7102
 3091TIP3    H133468   0.491   1.412  19.496 -0.6379 -0.3807 -0.4429
 3091TIP3    H233469   0.557   1.278  19.473 -2.6408 -1.3500 -0.7484
 3092TIP3   OH233470   4.028   0.714  18.947  0.3548 -0.2354  0.2396
 3092TIP3    H133471   4.070   0.783  18.895 -1.9295  2.0226  1.2058
 3092TIP3    H233472   3.973   0.667  18.884 -0.0952  0.5362  0.0510
 3093TIP3   OH233473   0.409   2.147  19.830  0.0588  0.0324 -0.2428
 3093TIP3    H133474   0.458   2.217  19.787 -0.7903  0.7264 -0.0947
 3093TIP3    H233475   0.475   2.101  19.882  0.5738  0.9091 -0.0975
 3094TIP3   OH233476   5.855   3.532  20.544  0.5615 -0.0449 -0.0575
 3094TIP3    H133477   5.901   3.593  20.602 -1.4538 -0.8842  2.6703
 3094TIP3    H233478   5.906   3.451  20.550  0.5649 -0.0195  0.2805
 3095TIP3   OH233479   3.727   2.844  18.177 -0.2626  0.2144 -0.0553
 3095TIP3    H133480   3.669   2.899  18.230  0.6179  0.5307  0.6128
 3095TIP3    H233481   3.811   2.848  18.223 -0.0197 -1.2041 -0.3354
 3096TIP3   OH233482   5.782   6.463  18.428 -0.8508 -0.2201 -0.2038
 3096TIP3    H133483   5.797   6.552  18.461  0.4280 -0.1362 -0.9471
 3096TIP3    H233484   5.822   6.406  18.493  0.0506 -0.1455 -0.6836
 3097TIP3   OH233485   3.669   0.908  19.175  0.5177  0.1681 -0.4832
 3097TIP3    H133486   3.759   0.917  19.208  0.4975 -0.7588 -0.1293
 3097TIP3    H233487   3.672   0.943  19.086  1.9344 -2.3700 -1.5497
 3098TIP3   OH233488   1.337   2.591  18.494 -0.2254  0.3099 -0.0491
 3098TIP3    H133489   1.270   2.528  18.522 -0.6242  0.1517 -1.2941
 3098TIP3    H233490   1.288   2.660  18.450  0.2384  1.3782  1.0650
 3099TIP3   OH233491   6.213   1.081  18.505  0.0174  0.0450  0.1916
 3099TIP3    H133492   6.162   1.001  18.515  0.5283 -0.3814 -0.5120
 3099TIP3    H233493   6.236   1.083  18.412 -0.9099  1.5809 -0.0343
 3100TIP3   OH233494   4.343   3.010  18.610 -0.1627  0.1086  0.0353
 3100TIP3    H133495   4.384   2.942  18.557  0.2645 -0.6984  1.3659
 3100TIP3    H233496   4.400   3.087  18.599 -0.8763  0.4189 -1.8066
 3101TIP3   OH233497   5.202   2.642  19.364 -0.1258  0.3729  0.3534
 3101TIP3    H133498   5.144   2.568  19.382  1.1399 -0.6264  0.5009
 3101TIP3    H233499   5.189   2.660  19.271 -0.5612  0.0576  0.3501
 3102TIP3   OH233500   2.761   5.893  20.535 -0.7162  0.3561 -0.1549
 3102TIP3    H133501   2.767   5.903  20.440  1.9658 -0.8831 -0.2181
 3102TIP3    H233502   2.754   5.798  20.548  0.7317  0.3760  0.9087
 3103TIP3   OH233503   3.613   4.670  19.922 -0.2793  0.0064  0.2574
 3103TIP3    H133504   3.667   4.596  19.897 -2.7975 -1.6702 -0.6187
 3103TIP3    H233505   3.597   4.718  19.841 -1.0438 -0.2187  0.2619
 3104TIP3   OH233506   0.114   4.337  20.119 -0.1750 -0.4045 -0.3513
 3104TIP3    H133507   0.209   4.331  20.134 -0.1477  1.1829  0.2724
 3104TIP3    H233508   0.079   4.257  20.159  0.8224 -0.6547  0.0632
 3105TIP3   OH233509   5.093   0.609  19.553  0.0370  0.3294  0.5993
 3105TIP3    H133510   5.024   0.644  19.609  0.7578  1.8986  0.5705
 3105TIP3    H233511   5.172   0.653  19.583  0.7879 -0.3512 -0.3168
 3106TIP3   OH233512   1.735   6.435  19.018 -0.1295  0.5541  0.2588
 3106TIP3    H133513   1.794   6.469  18.951  0.9542 -1.5087  0.0983
 3106TIP3    H233514   1.776   6.461  19.101  0.4214  0.0539  0.1415
 3107TIP3   OH233515   5.948   2.183  18.235  0.1319 -0.2091  0.4307
 3107TIP3    H133516   5.868   2.149  18.274  0.7873 -2.0312  0.2934
 3107TIP3    H233517   5.954   2.138  18.151  0.3239  1.3598 -0.4377
 3108TIP3   OH233518   0.395   6.253  18.061 -0.3284  0.0521 -0.4211
 3108TIP3    H133519   0.459   6.184  18.081  0.4600  0.3025 -1.9271
 3108TIP3    H233520   0.314   6.205  18.046  0.1103 -0.5247 -1.0351
 3109TIP3   OH233521   6.504   5.963  20.759  0.3903  0.0827 -0.2461
 3109TIP3    H133522   6.439   5.969  20.830  0.7073  0.6940 -0.0026
 3109TIP3    H233523   6.452   5.971  20.679  0.0294 -0.6230 -0.0945
 3110TIP3   OH233524   1.819   6.148  19.675  0.2791 -0.2138 -0.1144
 3110TIP3    H133525   1.766   6.193  19.741 -1.5872 -0.0939 -1.6057
 3110TIP3    H233526   1.846   6.067  19.717  1.4494  1.0624  1.7081
 3111TIP3   OH233527   5.460   3.498  18.217 -0.1371  0.1589 -0.3187
 3111TIP3    H133528   5.461   3.456  18.132 -0.9261  0.4720 -0.4874
 3111TIP3    H233529   5.438   3.428  18.279 -0.6269  0.1503 -0.5003
 3112TIP3   OH233530   3.380   4.009  17.807 -0.1451 -0.4740 -0.7164
 3112TIP3    H133531   3.292   3.976  17.821  0.6890 -2.0287  1.2298
 3112TIP3    H233532   3.375   4.054  17.722 -2.6261 -1.0418 -0.9465
 3113TIP3   OH233533   5.638   2.340  20.867  0.1320  0.0460 -0.2689
 3113TIP3    H133534   5.683   2.380  20.792 -0.5485  1.6144  0.1275
 3113TIP3    H233535   5.581   2.409  20.900 -1.6808 -1.5221 -0.0057
 3114TIP3   OH233536   0.647   1.527  16.955  0.0437  0.5856 -0.0875
 3114TIP3    H133537   0.637   1.449  16.900 -0.6591 -0.6541  1.6753
 3114TIP3    H233538   0.677   1.492  17.039  0.7681  2.3622  0.4218
 3115TIP3   OH233539   1.451   1.630  20.771 -0.1250  0.4652 -0.1841
 3115TIP3    H133540   1.510   1.692  20.728 -0.9880  0.5934 -1.2171
 3115TIP3    H233541   1.363   1.661  20.749 -0.5751 -0.8015 -0.2491
 3116TIP3   OH233542   2.141   3.744  18.767  0.1719  0.3415  0.2889
 3116TIP3    H133543   2.144   3.649  18.754  2.6681  0.4309 -0.2743
 3116TIP3    H233544   2.062   3.772  18.721  0.2227 -1.2777 -0.8556
 3117TIP3   OH233545   2.959   1.252  19.245 -0.8630  0.7459  0.2816
 3117TIP3    H133546   2.948   1.307  19.167 -3.1637  1.3624  0.9528
 3117TIP3    H233547   2.924   1.167  19.219 -0.3235  0.5333  0.2365
 3118TIP3   OH233548   2.367   4.442  20.177 -0.0202 -0.0391 -0.4023
 3118TIP3    H133549   2.319   4.361  20.193  1.7800 -1.3195 -1.1636
 3118TIP3    H233550   2.458   4.420  20.196  0.5929  1.6162 -1.2549
 3119TIP3   OH233551   5.959   6.276  18.521 -0.4606 -0.1149  0.6188
 3119TIP3    H133552   5.990   6.203  18.574 -3.1949 -2.1673 -0.3612
 3119TIP3    H233553   5.955   6.240  18.432 -2.1886  1.1101  0.1694
 3120TIP3   OH233554   6.642   4.514  17.393 -0.0624 -0.1096 -0.0680
 3120TIP3    H133555   6.670   4.428  17.361 -1.9167 -0.7077 -0.1945
 3120TIP3    H233556   6.600   4.555  17.318  0.1415  0.6239  0.2059
 3121TIP3   OH233557   2.817   0.970  18.413 -0.0063  0.7363 -0.1660
 3121TIP3    H133558   2.857   1.051  18.380  1.5256  1.0626  2.2067
 3121TIP3    H233559   2.835   0.972  18.508 -1.6120 -1.4691  0.2531
 3122TIP3   OH233560   0.500   0.535  17.943 -0.1931  0.0229 -0.2019
 3122TIP3    H133561   0.409   0.504  17.945 -0.8979  1.9447  1.6596
 3122TIP3    H233562   0.531   0.513  17.856 -1.9901 -1.9283 -0.4267
 3123TIP3   OH233563   2.851   5.850  18.033 -0.1630 -0.0685 -0.1990
 3123TIP3    H133564   2.943   5.878  18.030  0.1461 -0.9250  0.5759
 3123TIP3    H233565   2.855   5.755  18.022 -1.0432 -0.0183 -1.0786
 3124TIP3   OH233566   3.985   2.978  18.224  0.0575  0.3719  0.6786
 3124TIP3    H133567   4.006   3.016  18.309  4.0955  0.1823 -0.0044
 3124TIP3    H233568   4.034   3.031  18.161 -0.5090 -1.1997 -1.1983
 3125TIP3   OH233569   3.709   5.162  19.515  0.2080 -0.0333 -0.1264
 3125TIP3    H133570   3.767   5.093  19.547  1.1132 -0.4006 -2.4280
 3125TIP3    H233571   3.763   5.241  19.517  0.5221 -0.2010 -1.3991
 3126TIP3   OH233572   4.888   2.641  19.327 -0.5761  0.0826  0.5686
 3126TIP3    H133573   4.956   2.573  19.325 -0.2130  0.3879  1.4794
 3126TIP3    H233574   4.872   2.655  19.421 -2.5683 -0.6226  0.3755
 3127TIP3   OH233575   3.954   6.213  20.814 -0.3021 -0.0124 -0.1733
 3127TIP3    H133576   3.860   6.232  20.809 -0.2728 -0.1671 -1.9368
 3127TIP3    H233577   3.996   6.292  20.780  0.1158 -0.5330 -0.8942
 3128TIP3   OH233578   0.252   1.071  19.499  0.3751  0.3883 -0.1265
 3128TIP3    H133579   0.196   1.122  19.440 -0.5578 -0.6777 -0.1984
 3128TIP3    H233580   0.260   0.986  19.456  0.4119 -0.1178  0.8584
 3129TIP3   OH233581   5.865   5.269  18.078 -0.2163  0.7117  0.2022
 3129TIP3    H133582   5.851   5.249  18.170 -1.2704  1.3582  0.2144
 3129TIP3    H233583   5.789   5.324  18.054  0.0498  0.5796 -1.0312
 3130TIP3   OH233584   4.641   1.386  19.915  0.1488 -0.1266  0.0076
 3130TIP3    H133585   4.589   1.442  19.858  0.2055 -0.4690 -0.3786
 3130TIP3    H233586   4.719   1.365  19.864  1.6754  2.0213  1.2887
 3131TIP3   OH233587   4.808   6.432  19.734  0.2652  0.2067 -0.0621
 3131TIP3    H133588   4.875   6.395  19.677  1.0969  1.6357 -0.0438
 3131TIP3    H233589   4.857   6.477  19.803 -0.7200  0.7592  0.2942
 3132TIP3   OH233590   3.539   0.822  18.330  0.3011 -0.1342  0.1738
 3132TIP3    H133591   3.533   0.896  18.391 -0.2488  1.4988 -1.7639
 3132TIP3    H233592   3.633   0.810  18.317  0.4512 -0.8517  1.6843
 3133TIP3   OH233593   6.431   0.563  18.896  0.0684 -0.4603 -0.2089
 3133TIP3    H133594   6.456   0.569  18.988 -0.6470  0.6032 -0.0589
 3133TIP3    H233595   6.361   0.628  18.886  1.3346  0.7505 -1.9109
 3134TIP3   OH233596   3.160   2.959  20.786 -0.3702 -0.0134  0.0851
 3134TIP3    H133597   3.096   3.018  20.746 -1.0672 -2.1331 -2.2011
 3134TIP3    H233598   3.208   2.921  20.712 -0.1044 -2.4229  1.3754
 3135TIP3   OH233599   0.516   6.071  20.703 -0.0321 -0.1254 -0.0468
 3135TIP3    H133600   0.604   6.038  20.724  0.6455  0.6000 -1.6184
 3135TIP3    H233601   0.486   6.016  20.631 -1.0417 -0.6170  0.7357
 3136TIP3   OH233602   4.517   1.017  20.858  0.2364 -0.5778  0.1606
 3136TIP3    H133603   4.481   1.098  20.894 -0.0648  0.0436 -1.4789
 3136TIP3    H233604   4.451   0.987  20.795 -0.2893 -2.8424  1.6740
 3137TIP3   OH233605   5.673   5.894  20.022 -0.5244  0.4113  0.1250
 3137TIP3    H133606   5.593   5.859  20.061  0.0871 -2.0287 -0.6084
 3137TIP3    H233607   5.660   5.883  19.927  1.2578 -1.5758  0.0393
 3138TIP3   OH233608   3.935   5.002  19.304 -0.9853 -0.5634  0.5220
 3138TIP3    H133609   3.999   4.950  19.352 -0.1318  0.4547  0.5109
 3138TIP3    H233610   3.986   5.071  19.261 -1.7347 -1.3230 -1.7301
 3139TIP3   OH233611   0.110   0.210  20.065 -0.6313  0.1077 -0.2252
 3139TIP3    H133612   0.139   0.150  19.996  0.2526 -1.2609  1.2661
 3139TIP3    H233613   0.182   0.211  20.127 -1.8556  0.3829  1.2434
 3140TIP3   OH233614   2.715   1.041  20.408 -0.2569 -1.1903  0.3728
 3140TIP3    H133615   2.720   0.983  20.484 -1.4623  0.6743  1.9672
 3140TIP3    H233616   2.622   1.060  20.398  0.0118 -0.3627 -0.7703
 3141TIP3   OH233617   2.522   0.039  18.229  1.0294  0.3304 -0.1501
 3141TIP3    H133618   2.596   0.093  18.258  0.8385  0.5651 -0.0968
 3141TIP3    H233619   2.477   0.092  18.163  0.4405  0.5306  0.3960
 3142TIP3   OH233620   0.410   2.726  19.482 -0.3002 -0.6511  0.2038
 3142TIP3    H133621   0.403   2.816  19.451  0.7410 -0.2677  1.0127
 3142TIP3    H233622   0.327   2.685  19.457 -0.5532  0.3591 -0.6901
 3143TIP3   OH233623   3.480   6.179  20.326 -0.3956 -0.3913  0.7160
 3143TIP3    H133624   3.392   6.204  20.296  0.5545  1.9451 -0.4797
 3143TIP3    H233625   3.527   6.157  20.245  1.1033  2.1166  0.7684
 3144TIP3   OH233626   3.833   3.531  17.904 -0.2225 -0.2746 -0.5549
 3144TIP3    H133627   3.830   3.439  17.931 -1.1481  0.2183  1.2042
 3144TIP3    H233628   3.798   3.531  17.815 -0.8346 -1.5589 -0.3339
 3145TIP3   OH233629   4.525   0.062  18.386 -0.1224 -0.4771  0.0686
 3145TIP3    H133630   4.449   0.046  18.330 -0.1339 -0.3286  0.0405
 3145TIP3    H233631   4.573  -0.020  18.385 -0.1316 -0.4818 -0.1458
 3146TIP3   OH233632   6.445   5.206  18.109 -0.0350  0.0332 -0.0170
 3146TIP3    H133633   6.527   5.173  18.146 -0.3829 -0.7976  0.0342
 3146TIP3    H233634   6.462   5.213  18.015 -0.6899 -2.7218 -0.4382
 3147TIP3   OH233635   1.034   3.299  19.233  0.2401 -0.0969  0.1768
 3147TIP3    H133636   1.092   3.372  19.254 -0.2612  0.0719  1.0171
 3147TIP3    H233637   0.949   3.340  19.219 -0.1815 -0.5722  1.2745
 3148TIP3   OH233638   4.768   5.604  20.788 -0.2430  0.1181 -0.5107
 3148TIP3    H133639   4.675   5.627  20.783 -0.2079  0.5784  0.5411
 3148TIP3    H233640   4.807   5.676  20.839  0.6659 -0.1289 -0.8463
 3149TIP3   OH233641   4.758   2.206  18.499 -0.2226 -0.7341 -0.4439
 3149TIP3    H133642   4.841   2.182  18.457  2.0105 -1.2872  3.6757
 3149TIP3    H233643   4.770   2.297  18.524 -0.9925 -0.7341 -0.0698
 3150TIP3   OH233644   0.860   4.419  20.004 -0.0696  0.2381  0.5471
 3150TIP3    H133645   0.913   4.359  20.057 -1.4803  0.0456  1.8276
 3150TIP3    H233646   0.836   4.368  19.926 -0.9736 -0.8048  1.4621
 3151TIP3   OH233647   0.185   4.777  20.353 -0.0699  0.4834  0.2312
 3151TIP3    H133648   0.118   4.743  20.412  0.4137  2.5395  2.0742
 3151TIP3    H233649   0.151   4.758  20.265 -2.4276  0.2738  1.1099
 3152TIP3   OH233650   2.550   0.877  18.418 -0.4845  0.6349 -0.3865
 3152TIP3    H133651   2.638   0.916  18.422 -0.6190  1.2171 -2.1301
 3152TIP3    H233652   2.493   0.941  18.458 -0.3099  0.9401 -0.6217
 3153TIP3   OH233653   4.109   4.427  20.336 -0.0659  0.2591 -0.2479
 3153TIP3    H133654   4.055   4.376  20.276  1.1648 -0.4545 -0.7990
 3153TIP3    H233655   4.058   4.432  20.416 -1.1338 -0.0018 -0.8933
 3154TIP3   OH233656   5.865   1.153  18.456 -0.2222 -0.1341 -0.3738
 3154TIP3    H133657   5.919   1.198  18.391 -0.3175 -0.7454 -0.8884
 3154TIP3    H233658   5.794   1.113  18.405 -1.2316  0.7509  0.3057
 3155TIP3   OH233659   4.801   4.985  19.000  0.2155 -0.6480  0.2853
 3155TIP3    H133660   4.768   4.933  18.927 -1.0802  0.2808  0.1754
 3155TIP3    H233661   4.723   5.022  19.041  0.9641 -0.6030  1.7355
 3156TIP3   OH233662   3.630   6.537  17.514  0.0402 -0.0159  0.0852
 3156TIP3    H133663   3.672   6.623  17.513 -0.9175  0.4674 -0.8420
 3156TIP3    H233664   3.688   6.481  17.463 -0.3103  0.5915 -1.0104
 3157TIP3   OH233665   6.206   4.082  18.322 -0.4786  0.0048  0.2464
 3157TIP3    H133666   6.211   3.991  18.291  2.3956  0.6043 -1.4975
 3157TIP3    H233667   6.288   4.094  18.370 -1.5364  1.2832  1.8140
 3158TIP3   OH233668   0.125   5.830  17.400 -0.0121  0.7330  0.1551
 3158TIP3    H133669   0.208   5.826  17.447  0.4060  1.1509 -0.5294
 3158TIP3    H233670   0.144   5.884  17.323 -0.0173 -1.9389 -1.8399
 3159TIP3   OH233671   6.301   2.797  19.837 -0.2572 -0.1144  0.0520
 3159TIP3    H133672   6.335   2.884  19.855 -1.0229  0.0195  0.9775
 3159TIP3    H233673   6.208   2.811  19.818 -0.3494 -0.7078  0.0338
 3160TIP3   OH233674   2.538   2.262  17.516  0.3814 -0.2925 -0.1348
 3160TIP3    H133675   2.625   2.278  17.550  0.2178  2.0184 -0.6729
 3160TIP3    H233676   2.536   2.307  17.432 -1.5780  0.4822  0.2685
 3161TIP3   OH233677   2.560   2.621  18.771  0.0637 -0.1458 -0.1686
 3161TIP3    H133678   2.569   2.567  18.693  0.2519 -0.6493  0.1989
 3161TIP3    H233679   2.483   2.587  18.816  0.4134 -0.3801  0.2690
 3162TIP3   OH233680   4.280   1.459  19.335 -0.2201 -0.0322  0.3003
 3162TIP3    H133681   4.215   1.410  19.284  0.1906 -0.2773  0.0126
 3162TIP3    H233682   4.363   1.416  19.316 -0.2107 -0.8874  2.1017
 3163TIP3   OH233683   2.488   4.643  17.375 -0.3561 -0.1311 -0.3003
 3163TIP3    H133684   2.392   4.637  17.378 -0.3116 -0.7664 -0.0608
 3163TIP3    H233685   2.507   4.736  17.390 -0.9258 -0.0380 -0.1378
 3164TIP3   OH233686   0.466   2.683  17.766 -0.0330  0.7397  0.3351
 3164TIP3    H133687   0.388   2.633  17.740  1.7297 -1.6738 -0.6559
 3164TIP3    H233688   0.456   2.694  17.860 -1.8462  1.0359  0.1529
 3165TIP3   OH233689   5.855   4.515  19.483  0.1846 -0.4730  0.4076
 3165TIP3    H133690   5.768   4.476  19.477  0.3734 -0.9460  0.6963
 3165TIP3    H233691   5.838   4.606  19.508 -0.2755 -0.2456 -0.6839
 3166TIP3   OH233692   1.167   2.040  18.148 -0.1761  0.0053 -0.1574
 3166TIP3    H133693   1.212   1.970  18.100 -0.0590 -1.2878  1.6969
 3166TIP3    H233694   1.237   2.097  18.179 -0.2380  0.7331 -1.2956
 3167TIP3   OH233695   4.887   3.527  18.894  0.3133 -0.5516 -0.6895
 3167TIP3    H133696   4.893   3.519  18.799  1.2980  0.4610 -0.7431
 3167TIP3    H233697   4.826   3.459  18.920 -1.2594  0.2005 -2.2084
 3168TIP3   OH233698   0.617   0.360  19.874 -0.5886  0.2172 -0.0747
 3168TIP3    H133699   0.630   0.339  19.966 -1.4050 -0.9167 -0.1866
 3168TIP3    H233700   0.545   0.423  19.874  0.4255  1.3960  0.1410
 3169TIP3   OH233701   5.503   4.685  19.165 -0.3176  0.0257 -0.8229
 3169TIP3    H133702   5.526   4.700  19.256  0.1565 -0.1121 -0.9160
 3169TIP3    H233703   5.412   4.658  19.167 -0.3018  0.0065 -0.3865
 3170TIP3   OH233704   3.102   1.744  17.659 -0.1097  0.1778 -0.0705
 3170TIP3    H133705   3.046   1.719  17.586 -1.7342  0.2395  1.0976
 3170TIP3    H233706   3.079   1.683  17.729 -0.8109  1.9617  1.3504
 3171TIP3   OH233707   1.131   2.917  20.095 -0.2360  0.1750 -0.1497
 3171TIP3    H133708   1.207   2.967  20.124 -0.2143 -0.4913  0.9972
 3171TIP3    H233709   1.167   2.842  20.048 -0.2404  0.5895 -0.8355
 3172TIP3   OH233710   2.941   5.547  18.549  0.6007 -0.1960  0.0721
 3172TIP3    H133711   2.996   5.616  18.587  0.1600  0.3927 -0.3323
 3172TIP3    H233712   2.873   5.532  18.614  1.2330 -0.9350  0.5792
 3173TIP3   OH233713   1.400   2.175  19.439  0.1701  0.4830 -0.1200
 3173TIP3    H133714   1.339   2.156  19.510 -0.6273  0.9431 -0.6540
 3173TIP3    H233715   1.365   2.126  19.364  0.0098  1.3613 -0.6319
 3174TIP3   OH233716   1.139   1.986  19.281  0.3803  0.0610  0.1652
 3174TIP3    H133717   1.052   1.997  19.243  0.3887 -1.1984 -0.2573
 3174TIP3    H233718   1.161   1.894  19.265  1.7199  0.3202  0.4153
 3175TIP3   OH233719   5.888   5.025  18.768  0.2410  0.1457 -0.0537
 3175TIP3    H133720   5.930   5.094  18.716  1.3008  0.2620  0.9198
 3175TIP3    H233721   5.912   5.045  18.858  0.2960 -1.3108  0.2813
 3176TIP3   OH233722   6.601   2.950  18.282  0.3202 -0.2807  0.2933
 3176TIP3    H133723   6.544   2.948  18.205  0.5788 -2.1580  0.0855
 3176TIP3    H233724   6.666   3.017  18.263 -0.5038  0.3313 -0.4445
 3177TIP3   OH233725   1.895   0.918  18.946 -0.0898 -0.0536 -0.0241
 3177TIP3    H133726   1.895   0.899  18.852  0.3360 -0.4941  0.0630
 3177TIP3    H233727   1.929   1.007  18.953 -2.3527  0.9191 -0.4559
 3178TIP3   OH233728   0.637   5.827  19.213 -0.0073 -0.0195  0.0366
 3178TIP3    H133729   0.597   5.874  19.287 -0.0125 -0.7017  0.4779
 3178TIP3    H233730   0.658   5.896  19.150  4.2393  1.2972  2.5211
 3179TIP3   OH233731   0.389   2.968  18.559 -0.4710  0.6365  0.4914
 3179TIP3    H133732   0.472   2.986  18.516  0.2633 -1.3549  0.9793
 3179TIP3    H233733   0.405   2.987  18.651  0.0409 -1.4002  0.8691
 3180TIP3   OH233734   4.203   3.450  19.120  0.4363 -0.1142  0.5833
 3180TIP3    H133735   4.294   3.419  19.127  0.1911 -0.8015  0.8308
 3180TIP3    H233736   4.150   3.370  19.122 -0.2074  0.3093  1.0111
 3181TIP3   OH233737   2.284   6.431  19.367  0.2154 -0.2700 -0.3994
 3181TIP3    H133738   2.265   6.503  19.306  1.8238  0.3679 -0.2065
 3181TIP3    H233739   2.376   6.444  19.391 -0.3100 -0.5660  2.0584
 3182TIP3   OH233740   3.006   0.578  17.993 -0.2213 -0.3524  0.6873
 3182TIP3    H133741   3.063   0.502  17.991 -1.1914 -1.1134  1.2865
 3182TIP3    H233742   3.011   0.614  17.904  0.9909 -0.5319  0.6718
 3183TIP3   OH233743   5.242   3.053  17.913 -0.3760 -0.3109  0.3430
 3183TIP3    H133744   5.167   3.092  17.868  0.0810  0.5054  0.2630
 3183TIP3    H233745   5.275   2.986  17.853 -0.0949  0.3992 -0.3021
 3184TIP3   OH233746   3.684   2.584  18.374  1.0008 -0.1378 -0.0476
 3184TIP3    H133747   3.620   2.620  18.435  0.9873 -0.6417  0.2352
 3184TIP3    H233748   3.653   2.611  18.287 -0.0832 -1.1224  0.0175
 3185TIP3   OH233749   1.273   6.290  19.430 -0.0315  0.1305 -0.9029
 3185TIP3    H133750   1.276   6.364  19.491  0.8142  2.6170 -3.7095
 3185TIP3    H233751   1.363   6.258  19.428 -0.4318 -1.2014  0.4417
 3186TIP3   OH233752   1.990   1.827  19.990  0.0804  0.6534  0.2452
 3186TIP3    H133753   2.083   1.808  20.004  0.1024 -0.9128 -1.5648
 3186TIP3    H233754   1.946   1.744  20.011 -1.0067  1.5218  1.5711
 3187TIP3   OH233755   5.474   1.529  20.785 -0.5248  0.1029 -0.5533
 3187TIP3    H133756   5.381   1.555  20.786 -1.1142 -1.7548  1.6445
 3187TIP3    H233757   5.520   1.604  20.822 -1.3582  0.4969 -0.2863
 3188TIP3   OH233758   0.015   2.634  18.215  0.3570 -0.4822  0.0500
 3188TIP3    H133759  -0.080   2.634  18.211  0.3706 -1.3903 -2.4968
 3188TIP3    H233760   0.041   2.690  18.141  1.8235  0.2892  1.1002
 3189TIP3   OH233761   6.133   5.498  19.665 -0.0260 -0.3607 -0.9966
 3189TIP3    H133762   6.161   5.497  19.756  1.4746  1.5942 -1.3628
 3189TIP3    H233763   6.207   5.460  19.617 -0.8952 -1.5871 -1.4108
 3190TIP3   OH233764   4.508   2.531  18.475 -0.4928 -0.2127 -0.1558
 3190TIP3    H133765   4.418   2.520  18.503 -0.3987 -0.3026  0.1137
 3190TIP3    H233766   4.518   2.625  18.462 -0.6273 -0.2045 -0.1966
 3191TIP3   OH233767   2.385   3.202  20.503  0.2034  0.2710  0.1747
 3191TIP3    H133768   2.371   3.287  20.544 -0.7306  0.8703 -1.3170
 3191TIP3    H233769   2.422   3.222  20.417  0.3121 -0.8531 -0.0601
 3192TIP3   OH233770   0.286   0.256  18.878 -0.1849 -0.2780 -0.9262
 3192TIP3    H133771   0.270   0.277  18.787 -0.5143  0.0568 -0.7945
 3192TIP3    H233772   0.272   0.162  18.885 -0.9637 -0.1722 -1.0515
 3193TIP3   OH233773   5.831   3.173  18.820 -0.2510  0.2644  0.7911
 3193TIP3    H133774   5.837   3.251  18.766  4.5751  1.2638  2.3051
 3193TIP3    H233775   5.789   3.202  18.901  1.3704  1.3751  1.2822
 3194TIP3   OH233776   5.105   2.269  19.000  0.5319  0.0514  0.0195
 3194TIP3    H133777   5.061   2.285  18.917  0.1194  0.1720  0.2569
 3194TIP3    H233778   5.037   2.231  19.056  1.0189 -0.7975  0.0458
 3195TIP3   OH233779   2.180   1.608  18.827 -0.4293 -0.4463 -0.0047
 3195TIP3    H133780   2.122   1.674  18.867 -0.5846 -1.0557  0.8044
 3195TIP3    H233781   2.266   1.650  18.824 -0.8577  0.4035 -1.0515
 3196TIP3   OH233782   5.930   3.798  18.238  0.2698 -0.0948  0.0370
 3196TIP3    H133783   6.009   3.829  18.195  1.2914 -0.4653  1.5750
 3196TIP3    H233784   5.893   3.734  18.178  1.6242 -0.5695 -0.3073
 3197TIP3   OH233785   2.094   6.627  19.012 -0.0763  0.2751  0.1784
 3197TIP3    H133786   2.067   6.687  19.081  1.7678  0.8557  0.4453
 3197TIP3    H233787   2.173   6.585  19.045 -0.7655 -1.5944 -0.4215
 3198TIP3   OH233788   2.606   5.504  18.509 -0.3584 -0.1845  0.2718
 3198TIP3    H133789   2.518   5.493  18.473 -0.2048  0.6153 -0.3900
 3198TIP3    H233790   2.628   5.419  18.547 -1.4092 -0.3923  0.4260
 3199TIP3   OH233791   1.462   0.094  17.775 -0.1964  0.4743 -1.1195
 3199TIP3    H133792   1.400   0.024  17.753 -2.0602  1.5767  0.3805
 3199TIP3    H233793   1.433   0.168  17.722 -2.6540  2.1369  2.2326
 3200TIP3   OH233794   0.566   0.907  17.196  0.0074  0.1535 -0.3404
 3200TIP3    H133795   0.526   0.872  17.116  0.0759 -0.2955 -0.1776
 3200TIP3    H233796   0.604   0.991  17.168  0.2854 -0.1349 -0.8470
 3201TIP3   OH233797   4.139   6.065  20.268  0.1563  0.2548  0.3824
 3201TIP3    H133798   4.181   6.149  20.288  2.0883 -1.1092  2.4421
 3201TIP3    H233799   4.204   6.018  20.216 -1.3350  0.3281 -1.7162
 3202TIP3   OH233800   6.147   1.510  20.347 -0.1309 -0.1987 -0.3399
 3202TIP3    H133801   6.056   1.481  20.352  0.0143 -0.6445 -0.2887
 3202TIP3    H233802   6.157   1.569  20.421 -0.0990 -0.9234  0.2402
 3203TIP3   OH233803   4.332   5.954  17.338 -0.0533 -0.1663 -0.2148
 3203TIP3    H133804   4.356   5.932  17.248 -1.5865 -2.2519 -0.1678
 3203TIP3    H233805   4.416   5.971  17.381  0.6919  1.2231 -2.0707
 3204TIP3   OH233806   4.141   2.368  20.874 -0.4296 -0.3432  0.1039
 3204TIP3    H133807   4.212   2.432  20.878 -0.6799 -0.1261  1.3129
 3204TIP3    H233808   4.085   2.389  20.948 -1.9719 -0.2913 -1.0288
 3205TIP3   OH233809   2.823   2.449  17.105 -0.4827 -0.5683  0.4147
 3205TIP3    H133810   2.912   2.462  17.138 -0.1267 -1.5574 -0.1069
 3205TIP3    H233811   2.832   2.458  17.010 -1.1519  0.4161  0.4371
 3206TIP3   OH233812   0.220   0.522  17.914 -0.0554  0.4481  0.4347
 3206TIP3    H133813   0.145   0.508  17.972 -0.1525  1.2511  0.5120
 3206TIP3    H233814   0.183   0.518  17.826 -0.0067 -0.1743  0.4335
 3207TIP3   OH233815   6.529   1.447  19.406  0.1396 -0.0576 -0.4856
 3207TIP3    H133816   6.586   1.447  19.482  0.8436  0.9935 -1.0005
 3207TIP3    H233817   6.471   1.371  19.420  0.0490  0.2887  1.2229
 3208TIP3   OH233818   4.578   0.610  19.565  0.0289 -0.2316  0.2054
 3208TIP3    H133819   4.505   0.573  19.615  0.0253  1.3007  1.3981
 3208TIP3    H233820   4.577   0.703  19.585  1.6794  0.0013 -0.5814
 3209TIP3   OH233821   3.435   1.375  19.033 -0.1058 -0.6106  0.4594
 3209TIP3    H133822   3.474   1.457  19.002 -1.8082  0.3583  0.7520
 3209TIP3    H233823   3.476   1.360  19.119  1.2533 -0.8558 -0.2040
 3210TIP3   OH233824   5.911   6.338  19.793 -0.3259 -0.1545 -0.3162
 3210TIP3    H133825   5.924   6.429  19.767  2.2124 -0.0550  0.9614
 3210TIP3    H233826   5.974   6.289  19.741  0.8926 -0.6489  1.5356
 3211TIP3   OH233827   3.676   1.466  18.538  0.0539  0.0026  0.4047
 3211TIP3    H133828   3.650   1.449  18.448  0.6629  2.8358 -0.4066
 3211TIP3    H233829   3.601   1.439  18.590 -0.4210 -1.4135 -0.9506
 3212TIP3   OH233830   1.627   5.795  19.702 -0.1840 -0.5406  0.0935
 3212TIP3    H133831   1.700   5.741  19.731  2.9062  2.2418 -1.7689
 3212TIP3    H233832   1.610   5.854  19.775  2.4043  1.4814 -0.7948
 3213TIP3   OH233833   4.721   1.527  20.483  0.4395  0.0556 -0.1623
 3213TIP3    H133834   4.643   1.511  20.536 -0.2530  1.1504 -0.7930
 3213TIP3    H233835   4.708   1.472  20.405  0.7885 -0.5183  0.1844
 3214TIP3   OH233836   6.525   2.685  19.361  0.0876 -0.0273 -0.3615
 3214TIP3    H133837   6.564   2.766  19.391 -0.3763  0.1742 -0.2897
 3214TIP3    H233838   6.590   2.648  19.301 -0.0423  0.8093 -1.0438
 3215TIP3   OH233839   3.384   2.445  20.348  0.2643  0.0935 -0.2755
 3215TIP3    H133840   3.363   2.363  20.392  0.7472  0.8010  1.3383
 3215TIP3    H233841   3.476   2.436  20.323  0.0143 -0.2741 -1.0840
 3216TIP3   OH233842   3.263   5.326  19.371 -0.4929 -0.4364  0.1414
 3216TIP3    H133843   3.328   5.294  19.434 -0.6740 -0.0292  0.5372
 3216TIP3    H233844   3.307   5.317  19.286 -0.9359 -2.8053  0.0797
 3217TIP3   OH233845   0.087   5.787  18.435 -0.0517 -0.4455  0.2642
 3217TIP3    H133846   0.165   5.818  18.480 -0.4699  1.0968 -0.0035
 3217TIP3    H233847   0.113   5.779  18.343  0.3535 -2.0211  0.4865
 3218TIP3   OH233848   2.047   0.224  19.510 -0.2293  0.2399 -0.0038
 3218TIP3    H133849   1.986   0.173  19.563 -0.2445 -0.3621 -0.5946
 3218TIP3    H233850   2.112   0.160  19.481  0.7648  0.8841  0.7128
 3219TIP3   OH233851   2.922   6.603  17.545  0.5335  0.3835  0.3395
 3219TIP3    H133852   2.881   6.686  17.519 -0.3459 -0.0175  0.4053
 3219TIP3    H233853   2.948   6.563  17.462 -2.3136 -0.9135 -0.0568
 3220TIP3   OH233854   4.880   5.030  17.403  0.7189 -0.0825 -0.9438
 3220TIP3    H133855   4.818   5.081  17.455  1.0073  0.3517 -1.0199
 3220TIP3    H233856   4.966   5.061  17.432  0.9688 -1.9206  0.4577
 3221TIP3   OH233857   0.658   5.349  20.326  0.0963 -0.2124 -0.3139
 3221TIP3    H133858   0.631   5.312  20.410  1.4400 -0.3728  0.0563
 3221TIP3    H233859   0.598   5.423  20.312 -1.1915 -1.1563 -0.0188
 3222TIP3   OH233860   3.889   5.701  17.483 -0.1310  0.5229 -0.3282
 3222TIP3    H133861   3.886   5.771  17.418  1.7121 -1.2857 -2.5611
 3222TIP3    H233862   3.977   5.707  17.521 -0.9018  1.0345  1.4372
 3223TIP3   OH233863   5.919   2.321  19.527  0.1467 -0.0324  0.2193
 3223TIP3    H133864   5.997   2.302  19.476 -0.4305 -1.4260 -0.1952
 3223TIP3    H233865   5.871   2.385  19.475  1.0210  0.9143  0.5271
 3224TIP3   OH233866   2.292   0.246  19.113  0.1042 -0.3893  0.3635
 3224TIP3    H133867   2.301   0.152  19.094 -1.8869 -0.5702  0.1689
 3224TIP3    H233868   2.345   0.259  19.192  0.7887 -1.5702  0.1292
 3225TIP3   OH233869   6.100   0.001  19.937  0.1040 -0.0901 -0.0324
 3225TIP3    H133870   6.186   0.029  19.968 -0.0927 -0.1128  0.5567
 3225TIP3    H233871   6.039   0.037  20.002 -0.1737 -1.7018  0.6463
 3226TIP3   OH233872   3.730   0.577  20.145 -0.2354  0.0817  0.1160
 3226TIP3    H133873   3.712   0.610  20.234 -0.2145  1.8274 -0.4803
 3226TIP3    H233874   3.653   0.601  20.095  0.4837  0.7037 -0.7275
 3227TIP3   OH233875   0.117   0.787  17.953  0.0066  0.3761  0.0083
 3227TIP3    H133876   0.209   0.792  17.927  0.1360 -1.0567  0.1261
 3227TIP3    H233877   0.101   0.694  17.967 -1.2004  0.7068  0.9688
 3228TIP3   OH233878   1.137   0.977  17.635 -0.3605  0.5085  0.4030
 3228TIP3    H133879   1.046   0.985  17.662 -0.1312 -0.4310  1.5544
 3228TIP3    H233880   1.179   1.058  17.665 -0.6995  0.7006  0.3572
 3229TIP3   OH233881   5.012   3.963  19.558 -0.1774 -0.0763 -0.5290
 3229TIP3    H133882   5.107   3.961  19.545 -0.1210 -0.1804 -0.1065
 3229TIP3    H233883   4.998   4.031  19.624 -0.3724 -0.2555 -0.3847
 3230TIP3   OH233884   1.793   3.952  18.408  0.1186  0.4614 -0.6128
 3230TIP3    H133885   1.710   3.905  18.396  0.0542 -0.0389  1.3604
 3230TIP3    H233886   1.768   4.044  18.412 -0.4597  0.2839  0.4623
 3231TIP3   OH233887   6.670   5.061  20.437 -0.2994 -0.5498  0.6771
 3231TIP3    H133888   6.653   5.091  20.527  0.7608  0.5164  0.5471
 3231TIP3    H233889   6.628   4.975  20.432  0.0916 -0.8803  2.3849
 3232TIP3   OH233890   1.363   0.061  17.324 -0.1230 -0.3850  0.1804
 3232TIP3    H133891   1.414  -0.004  17.275 -0.3079 -1.9996  2.0116
 3232TIP3    H233892   1.272   0.042  17.302 -0.2149 -1.2073  1.2001
 3233TIP3   OH233893   2.839   3.225  17.175  0.1712 -0.4104  0.1537
 3233TIP3    H133894   2.762   3.266  17.136  0.7456  1.8982  1.2877
 3233TIP3    H233895   2.855   3.148  17.121 -1.9135 -0.0007 -1.1390
 3234TIP3   OH233896   1.222   0.328  18.394 -0.1641  0.5054 -0.2609
 3234TIP3    H133897   1.306   0.289  18.421 -1.0155  0.1610  2.1293
 3234TIP3    H233898   1.178   0.259  18.345 -0.1652 -0.3207  0.8626
 3235TIP3   OH233899   6.442   3.401  20.676 -0.4772 -0.0693 -0.8435
 3235TIP3    H133900   6.493   3.325  20.650 -1.2863 -0.3920 -1.5540
 3235TIP3    H233901   6.505   3.473  20.681  0.0315 -0.4479 -1.7178
 3236TIP3   OH233902   5.594   4.664  20.148  0.6303  0.4438 -0.1306
 3236TIP3    H133903   5.642   4.737  20.188  1.7196 -0.9971  1.3601
 3236TIP3    H233904   5.530   4.639  20.215  0.7888 -0.4275 -0.2957
 3237TIP3   OH233905   1.315   1.101  19.523  0.2472  0.1655 -0.3771
 3237TIP3    H133906   1.397   1.080  19.567  0.1866 -0.0144 -0.3495
 3237TIP3    H233907   1.252   1.039  19.560 -0.0094  0.6246 -0.0328
 3238TIP3   OH233908   3.896   5.914  19.050  0.1650  0.5836  0.4045
 3238TIP3    H133909   3.851   5.867  18.981  0.0850 -1.6361  1.8751
 3238TIP3    H233910   3.861   6.003  19.046 -1.8385 -0.2137 -0.6376
 3239TIP3   OH233911   2.247   2.789  19.507 -0.1283  0.3547  0.1105
 3239TIP3    H133912   2.328   2.825  19.472  0.6552 -0.5185  0.9692
 3239TIP3    H233913   2.259   2.694  19.502 -0.3034  0.2090  2.0131
 3240TIP3   OH233914   2.679   3.216  18.105  0.5571  0.8501  0.0958
 3240TIP3    H133915   2.629   3.297  18.111 -0.5000  0.1451  1.2820
 3240TIP3    H233916   2.624   3.159  18.050 -0.1004 -0.0053  1.5875
 3241TIP3   OH233917   5.288   4.869  20.025  0.4537 -0.2710 -0.0264
 3241TIP3    H133918   5.255   4.817  20.098  1.7217 -0.2658  0.5796
 3241TIP3    H233919   5.215   4.925  20.000 -0.4513 -1.2899  0.2852
 3242TIP3   OH233920   2.900   3.713  19.093 -0.2918  0.6408 -0.5652
 3242TIP3    H133921   2.939   3.667  19.018 -0.8468  0.6370 -0.8508
 3242TIP3    H233922   2.838   3.650  19.130  0.3773  0.4341  0.2395
 3243TIP3   OH233923   5.239   3.372  17.432 -0.5040  0.3182 -0.4590
 3243TIP3    H133924   5.310   3.332  17.381  1.2397 -0.0952  2.0762
 3243TIP3    H233925   5.250   3.466  17.420 -1.1365  0.2130 -2.0560
 3244TIP3   OH233926   0.256   2.029  17.965  0.2549  0.2932 -0.8245
 3244TIP3    H133927   0.174   2.072  17.942  0.7280  1.2535 -0.7625
 3244TIP3    H233928   0.233   1.936  17.972 -0.5145  0.3339 -2.3210
 3245TIP3   OH233929   6.679   3.152  17.745  0.1794  0.0232  0.3091
 3245TIP3    H133930   6.633   3.212  17.803  0.9790  0.7654  0.2007
 3245TIP3    H233931   6.613   3.088  17.719 -0.2648 -0.1445  1.7805
 3246TIP3   OH233932   3.633   0.620  19.224  0.2065 -0.0690  0.0551
 3246TIP3    H133933   3.585   0.593  19.145  0.2386 -0.9804  0.3372
 3246TIP3    H233934   3.648   0.713  19.212 -1.5581  0.2212 -0.0791
 3247TIP3   OH233935   0.968   3.373  20.259  0.1826 -0.3232 -0.1808
 3247TIP3    H133936   0.989   3.337  20.345  0.8904  1.1601  0.3016
 3247TIP3    H233937   1.002   3.308  20.197  0.7820 -0.8185  0.6439
 3248TIP3   OH233938   3.338   2.962  20.151 -0.4133 -0.4691  0.3826
 3248TIP3    H133939   3.369   2.933  20.236 -1.6036 -0.0353  0.9927
 3248TIP3    H233940   3.379   2.903  20.088  2.1161  0.4504  1.0478
 3249TIP3   OH233941   4.220   5.488  20.325 -0.0297 -0.2686 -0.1075
 3249TIP3    H133942   4.165   5.450  20.394 -0.4824  3.9990  2.1940
 3249TIP3    H233943   4.171   5.564  20.294  2.0270  0.3026 -2.2288
 3250TIP3   OH233944   3.720   5.694  18.924  0.0677  0.2977  0.3508
 3250TIP3    H133945   3.669   5.761  18.878  0.9326 -1.2281 -3.1279
 3250TIP3    H233946   3.657   5.654  18.984 -2.0593  0.5090 -1.5924
 3251TIP3   OH233947   5.940   2.776  18.450 -0.2951  0.0215  0.2796
 3251TIP3    H133948   6.013   2.834  18.472 -0.5178  0.7307 -0.8008
 3251TIP3    H233949   5.895   2.761  18.534 -0.3857  1.6290  0.5454
 3252TIP3   OH233950   4.442   6.092  20.715 -0.0814 -0.1619  0.2346
 3252TIP3    H133951   4.389   6.013  20.718  1.1855 -1.1523 -1.5636
 3252TIP3    H233952   4.527   6.063  20.683 -0.0153  2.0906 -1.9951
 3253TIP3   OH233953   2.500   4.832  18.502 -0.5120  0.0630 -0.0134
 3253TIP3    H133954   2.543   4.750  18.478 -1.6815 -0.4613 -0.4310
 3253TIP3    H233955   2.462   4.815  18.588 -0.6507  0.1990 -0.0460
 3254TIP3   OH233956   4.970   6.291  20.254 -0.1676 -0.0908  0.2953
 3254TIP3    H133957   4.882   6.290  20.290  0.0898  1.6198  1.0817
 3254TIP3    H233958   5.014   6.215  20.294 -1.4360 -1.3556 -0.6252
 3255TIP3   OH233959   5.990   5.380  18.878 -0.3138  0.0349  0.3440
 3255TIP3    H133960   6.001   5.455  18.937  0.8519 -0.4024  0.6978
 3255TIP3    H233961   5.976   5.306  18.936 -1.1077 -0.0963 -0.0002
 3256TIP3   OH233962   1.827   1.624  19.128 -0.3726  0.2914  0.0944
 3256TIP3    H133963   1.809   1.716  19.109 -1.2090  0.5108  1.7584
 3256TIP3    H233964   1.893   1.626  19.198 -1.4018 -0.3177  1.1214
 3257TIP3   OH233965   2.815   2.645  18.348  0.6206  0.1411 -0.3824
 3257TIP3    H133966   2.852   2.648  18.259  0.6666 -4.8776 -0.8414
 3257TIP3    H233967   2.721   2.632  18.334  0.6170 -0.5958  0.2721
 3258TIP3   OH233968   2.466   6.278  19.663  0.4664  0.3704 -0.0229
 3258TIP3    H133969   2.393   6.233  19.620  2.1880 -2.3714 -0.3024
 3258TIP3    H233970   2.436   6.288  19.754 -0.1695 -1.0198 -0.0436
 3259TIP3   OH233971   6.479   4.295  18.695  0.0123 -0.2230  0.3534
 3259TIP3    H133972   6.408   4.358  18.692  0.8176  0.7069  0.3743
 3259TIP3    H233973   6.531   4.313  18.617  0.0333 -1.1369  0.1459
 3260TIP3   OH233974   5.657   1.077  19.376  0.1228 -0.6926  0.2300
 3260TIP3    H133975   5.605   1.156  19.385  2.9469  1.4378 -0.5928
 3260TIP3    H233976   5.699   1.066  19.462  1.6194  0.2452 -0.3301
 3261TIP3   OH233977   4.374   0.807  20.205  0.1187 -0.3572 -0.1347
 3261TIP3    H133978   4.469   0.814  20.208  0.2106 -1.7809  0.8010
 3261TIP3    H233979   4.349   0.863  20.131  1.7970 -1.2059 -1.4101
 3262TIP3   OH233980   1.729   2.988  20.430  0.3646  0.4120  0.1072
 3262TIP3    H133981   1.774   2.982  20.345 -0.5268 -0.0926 -0.3485
 3262TIP3    H233982   1.638   2.963  20.410 -0.0073  0.9568  1.0904
 3263TIP3   OH233983   1.797   4.132  20.813 -0.5548  0.7705 -0.1845
 3263TIP3    H133984   1.739   4.057  20.802 -1.9344  1.5102  1.4702
 3263TIP3    H233985   1.885   4.095  20.818 -1.1720 -0.7021  0.3083
 3264TIP3   OH233986   1.134   5.744  20.172 -0.1078 -0.0012  0.0457
 3264TIP3    H133987   1.126   5.681  20.243  2.6045  2.1138  2.4571
 3264TIP3    H233988   1.157   5.691  20.096 -1.8062 -2.2164  0.9643
 3265TIP3   OH233989   2.697   0.081  20.190 -0.2241 -0.3753 -0.7848
 3265TIP3    H133990   2.776   0.041  20.226  0.3410  0.5317 -1.0101
 3265TIP3    H233991   2.653   0.119  20.266  0.4315  0.6156 -0.8930
 3266TIP3   OH233992   0.510   2.561  18.539 -0.1919  0.6160  0.2150
 3266TIP3    H133993   0.481   2.569  18.630 -1.0799  0.3873 -0.0364
 3266TIP3    H233994   0.467   2.634  18.494  0.7856  1.1430  0.0940
 3267TIP3   OH233995   3.838   4.197  20.441  0.2922  0.0082  0.0696
 3267TIP3    H133996   3.855   4.171  20.351  0.1423  0.3608 -0.0635
 3267TIP3    H233997   3.747   4.228  20.440  0.9494  2.1386 -0.1640
 3268TIP3   OH233998   4.514   3.689  20.702 -0.0178 -0.4035 -0.1439
 3268TIP3    H133999   4.423   3.704  20.678 -0.1987 -1.7839 -0.3874
 3268TIP3    H234000   4.516   3.600  20.736  1.1935 -0.3018  0.0944
 3269TIP3   OH234001   1.202   1.231  18.898 -0.1929  0.0912 -0.6009
 3269TIP3    H134002   1.289   1.244  18.934 -0.1354 -1.5564 -0.0489
 3269TIP3    H234003   1.144   1.229  18.974 -0.4282 -0.8109 -0.7884
 3270TIP3   OH234004   0.200   4.504  17.161 -0.4828  0.1278 -0.3879
 3270TIP3    H134005   0.264   4.549  17.106 -0.4299 -2.6443 -2.8183
 3270TIP3    H234006   0.240   4.504  17.248  1.7773  0.4097 -1.3526
 3271TIP3   OH234007   2.435   3.949  19.814 -0.5873  0.1275 -0.2257
 3271TIP3    H134008   2.350   3.965  19.774 -0.8069  0.6038  0.4050
 3271TIP3    H234009   2.477   4.036  19.818 -0.8333  0.2050  1.1254
 3272TIP3   OH234010   0.073   0.046  19.086 -0.0336 -0.2463  0.5390
 3272TIP3    H134011   0.158   0.052  19.043  0.5157 -0.1473  1.5840
 3272TIP3    H234012   0.026  -0.022  19.038  1.1215 -1.2077  0.7116
 3273TIP3   OH234013   4.994   5.920  18.016  0.0342  0.4507  0.6087
 3273TIP3    H134014   4.901   5.911  17.992 -0.0621 -1.9317  1.5967
 3273TIP3    H234015   4.996   5.995  18.075 -1.1592  0.9281  0.0688
 3274TIP3   OH234016   2.828   5.220  19.463  0.1659 -0.0284 -0.3357
 3274TIP3    H134017   2.822   5.281  19.389  0.8884 -0.2650 -0.5982
 3274TIP3    H234018   2.826   5.133  19.422  0.6662 -0.1579 -0.0823
 3275TIP3   OH234019   1.954   5.718  19.273  0.5534 -0.4629  0.5599
 3275TIP3    H134020   1.916   5.756  19.194  3.2037  1.1812 -0.0385
 3275TIP3    H234021   2.013   5.650  19.240  0.9785 -0.4041  1.1861
 3276TIP3   OH234022   1.181   3.584  17.575  0.1527  0.7954  0.1217
 3276TIP3    H134023   1.108   3.523  17.582  0.0713  1.0387  1.6453
 3276TIP3    H234024   1.173   3.641  17.651  1.6850  1.0968  0.0998
 3277TIP3   OH234025   0.402   1.141  17.729  0.5324 -0.3025  0.2668
 3277TIP3    H134026   0.478   1.129  17.672 -0.4009  0.5385 -1.2181
 3277TIP3    H234027   0.327   1.143  17.670 -0.5651 -0.1510  1.6025
 3278TIP3   OH234028   2.844   1.397  20.430 -0.3932 -0.7759 -0.3318
 3278TIP3    H134029   2.934   1.414  20.458 -0.0705 -0.7196 -1.3453
 3278TIP3    H234030   2.812   1.482  20.399 -0.5031 -0.9727 -0.7584
 3279TIP3   OH234031   4.473   1.047  19.608  0.2132  0.4379 -0.4366
 3279TIP3    H134032   4.479   1.042  19.513  2.1390  0.3116 -0.3592
 3279TIP3    H234033   4.444   0.960  19.635 -0.2087  0.4324 -0.9101
 3280TIP3   OH234034   5.980   0.397  18.924 -0.3429  0.1097  0.0654
 3280TIP3    H134035   5.943   0.333  18.985 -2.1966  1.7443  0.7815
 3280TIP3    H234036   6.055   0.434  18.970 -0.4278 -0.1830  0.4472
 3281TIP3   OH234037   4.473   4.663  19.680  0.2092  0.3653  0.5065
 3281TIP3    H134038   4.456   4.595  19.746 -0.2325 -0.7681 -0.7198
 3281TIP3    H234039   4.407   4.730  19.698 -2.4038 -1.5992 -0.9419
 3282TIP3   OH234040   5.740   1.654  18.098  0.0784  0.1645 -0.1053
 3282TIP3    H134041   5.760   1.567  18.063 -3.0006 -0.2924 -1.0672
 3282TIP3    H234042   5.652   1.673  18.066  0.0939  3.0848  1.2271
 3283TIP3   OH234043   5.591   3.228  20.336  0.3522  0.7956 -0.5766
 3283TIP3    H134044   5.625   3.316  20.357  1.0418  0.6787 -1.1730
 3283TIP3    H234045   5.592   3.224  20.241 -2.6617  1.2724 -0.7315
 3284TIP3   OH234046   3.174   5.829  19.292 -0.1724 -0.2625 -0.2962
 3284TIP3    H134047   3.233   5.779  19.349 -0.2190 -0.5884 -0.5374
 3284TIP3    H234048   3.227   5.850  19.215 -0.5763 -1.1302 -0.8134
 3285TIP3   OH234049   5.461   6.204  18.561 -0.4120 -0.2783  0.1020
 3285TIP3    H134050   5.502   6.223  18.477 -1.6715  0.9169 -0.2968
 3285TIP3    H234051   5.511   6.131  18.598  0.0840 -0.9028 -1.7343
 3286TIP3   OH234052   2.124   4.101  20.009  0.2631 -0.0239  0.7338
 3286TIP3    H134053   2.041   4.058  20.031  0.4127 -1.0202 -0.4909
 3286TIP3    H234054   2.116   4.122  19.916  0.9258  0.9742  0.8876
 3287TIP3   OH234055   3.051   3.317  19.265  0.3507 -0.1254  0.3263
 3287TIP3    H134056   2.970   3.354  19.299  0.1457 -0.5982  0.3699
 3287TIP3    H234057   3.115   3.387  19.274 -0.0272  0.2174  0.3918
 3288TIP3   OH234058   3.473   2.472  17.975 -0.1357  0.2226  0.0470
 3288TIP3    H134059   3.565   2.493  17.992  1.3470 -2.3873 -3.4337
 3288TIP3    H234060   3.437   2.552  17.937 -0.1853  2.0855  3.5997
 3289TIP3   OH234061   6.177   3.778  18.631 -0.1423  0.0279 -0.3674
 3289TIP3    H134062   6.139   3.706  18.579 -1.1748  0.0935  0.2584
 3289TIP3    H234063   6.101   3.828  18.660  0.4742  0.4683  0.5204
 3290TIP3   OH234064   5.108   1.852  18.177  0.0365 -0.0905  0.2748
 3290TIP3    H134065   5.183   1.866  18.119 -0.9073  2.7580 -0.4445
 3290TIP3    H234066   5.145   1.849  18.265  1.0831  0.2363 -0.1377
 3291TIP3   OH234067   3.058   5.937  17.809 -0.3887  0.5126  0.8507
 3291TIP3    H134068   2.996   5.892  17.753 -0.6121 -0.7024  2.0159
 3291TIP3    H234069   3.100   5.867  17.859  0.7419  1.4476  1.2517
 3292TIP3   OH234070   1.641   5.369  19.557 -0.2487  0.0475  0.4059
 3292TIP3    H134071   1.584   5.406  19.489  0.5037  1.7618  0.6530
 3292TIP3    H234072   1.622   5.421  19.635  2.5149  1.6145  0.1820
 3293TIP3   OH234073   6.066   2.634  19.466 -0.0328  0.0899 -0.6475
 3293TIP3    H134074   5.976   2.603  19.465 -0.5355  1.3423  1.1051
 3293TIP3    H234075   6.073   2.691  19.389 -0.3724 -0.8997 -1.4261
 3294TIP3   OH234076   4.547   0.454  20.201  0.2093  0.4336  0.0588
 3294TIP3    H134077   4.641   0.459  20.214  0.5023  2.0925 -2.0780
 3294TIP3    H234078   4.528   0.520  20.134 -2.3877 -0.2575 -0.0228
 3295TIP3   OH234079   2.149   4.019  17.888  0.2149 -0.3615  0.1069
 3295TIP3    H134080   2.078   4.076  17.855  0.6469  0.5886  0.7854
 3295TIP3    H234081   2.193   3.988  17.809 -0.2982 -0.0956 -0.2915
 3296TIP3   OH234082   4.658   0.775  20.271  0.1477 -0.1364  0.3806
 3296TIP3    H134083   4.708   0.795  20.192 -0.5353 -0.7265 -0.2251
 3296TIP3    H234084   4.714   0.715  20.320 -0.5620 -2.0583 -1.0469
 3297TIP3   OH234085   5.048   5.898  20.167  0.5387  0.0239  0.2300
 3297TIP3    H134086   5.003   5.912  20.251 -0.3678 -0.7475 -0.1142
 3297TIP3    H234087   5.078   5.807  20.171 -1.1068 -0.6211 -0.9997
 3298TIP3   OH234088   0.615   5.208  17.263  0.5621 -0.4091  0.1778
 3298TIP3    H134089   0.533   5.164  17.280 -0.0931  0.4449 -0.6296
 3298TIP3    H234090   0.674   5.179  17.333 -1.3223  1.3444  2.6836
 3299TIP3   OH234091   3.674   2.580  19.652  0.6394 -0.1951  0.2179
 3299TIP3    H134092   3.641   2.530  19.727 -0.0179 -2.3923 -1.4428
 3299TIP3    H234093   3.764   2.551  19.641  0.5605 -0.3048 -0.1621
 3300TIP3   OH234094   0.517   2.175  18.317  0.3057  0.3906 -0.1723
 3300TIP3    H134095   0.520   2.232  18.394 -0.9459  0.8309 -0.4161
 3300TIP3    H234096   0.479   2.093  18.349  0.9589  0.1216 -0.0724
 3301TIP3   OH234097   6.449   1.122  20.015  0.6401  0.3901 -0.1452
 3301TIP3    H134098   6.504   1.176  19.959  2.5893 -0.4198  0.9112
 3301TIP3    H234099   6.454   1.163  20.102 -0.3362  0.2288  0.0036
 3302TIP3   OH234100   2.608   1.930  20.391  0.3049  0.1657 -0.1618
 3302TIP3    H134101   2.692   1.974  20.384  0.8966 -0.9087  0.0689
 3302TIP3    H234102   2.587   1.902  20.301  0.4853 -0.0915 -0.1245
 3303TIP3   OH234103   2.775   2.955  18.017  0.0154 -0.4004  0.0767
 3303TIP3    H134104   2.855   3.000  17.992 -0.3885  0.3080  0.0246
 3303TIP3    H234105   2.743   3.004  18.093 -0.6025 -0.3895 -0.1822
 3304TIP3   OH234106   0.650   5.109  18.649  0.4597  0.2370 -0.2431
 3304TIP3    H134107   0.638   5.185  18.593 -1.1904 -0.6347 -1.1515
 3304TIP3    H234108   0.728   5.065  18.614  0.8590  0.9976 -0.3104
 3305TIP3   OH234109   0.283   3.633  18.136 -0.0872 -0.4559  0.1180
 3305TIP3    H134110   0.216   3.652  18.070  1.3028  0.8297 -0.9958
 3305TIP3    H234111   0.362   3.616  18.085  1.1965  1.2467  1.4241
 3306TIP3   OH234112   3.216   2.070  18.223 -0.0518 -0.0578 -0.2325
 3306TIP3    H134113   3.129   2.051  18.258  0.2647  1.1509  1.3018
 3306TIP3    H234114   3.204   2.148  18.170 -0.1551 -0.7711 -1.3025
 3307TIP3   OH234115   3.368   5.792  20.473 -0.1470  0.4053 -0.1828
 3307TIP3    H134116   3.290   5.762  20.520 -1.0595  1.9600 -0.6101
 3307TIP3    H234117   3.406   5.858  20.531  0.0774  0.6092 -0.5597
 3308TIP3   OH234118   4.502   6.082  18.010 -0.3441  0.3349  0.6353
 3308TIP3    H134119   4.498   6.115  17.921  1.3083 -2.0481 -0.4256
 3308TIP3    H234120   4.423   6.027  18.019 -2.2640  3.0590  1.8751
 3309TIP3   OH234121   1.326   3.205  18.213  0.2809  0.5381  0.0859
 3309TIP3    H134122   1.252   3.251  18.252 -0.3884  0.0894 -0.6252
 3309TIP3    H234123   1.306   3.201  18.120  1.2820  0.5509 -0.1426
 3310TIP3   OH234124   0.097   3.981  17.635 -0.2098 -0.0859 -0.1071
 3310TIP3    H134125   0.108   4.061  17.584  1.1571 -0.4003 -0.3549
 3310TIP3    H234126   0.172   3.979  17.694 -1.1758 -0.3002  1.1516
 3311TIP3   OH234127   5.860   0.930  19.260  0.4871 -0.0383 -0.6166
 3311TIP3    H134128   5.833   0.883  19.182  0.7201  0.2945 -0.9033
 3311TIP3    H234129   5.805   1.009  19.261 -0.5357 -0.7231  0.3417
 3312TIP3   OH234130   5.530   4.002  19.703 -0.3564 -0.1332 -0.2318
 3312TIP3    H134131   5.450   3.974  19.748 -0.5104  2.5790  1.3978
 3312TIP3    H234132   5.601   3.965  19.755 -0.4528 -2.1977 -1.4451
 3313TIP3   OH234133   6.405   0.507  20.625 -0.6384 -0.4117 -0.2279
 3313TIP3    H134134   6.462   0.582  20.642 -1.7620  0.4374 -0.0924
 3313TIP3    H234135   6.464   0.432  20.624  0.6549  0.5773 -1.3949
 3314TIP3   OH234136   3.675   0.998  18.911  0.1788  0.3174  0.2762
 3314TIP3    H134137   3.629   1.080  18.895  0.6436  0.5851  0.2784
 3314TIP3    H234138   3.749   1.000  18.851  0.4147  0.0815  0.5544
 3315TIP3   OH234139   2.913   1.752  20.624 -0.0166 -0.2227  0.0930
 3315TIP3    H134140   2.840   1.809  20.650  0.0185 -0.1011 -0.0696
 3315TIP3    H234141   2.877   1.698  20.554  0.3501  0.5648 -0.7141
 3316TIP3   OH234142   4.884   3.498  18.632 -0.0221 -0.2492 -0.9307
 3316TIP3    H134143   4.810   3.531  18.581  0.1177  1.6775  0.0111
 3316TIP3    H234144   4.954   3.487  18.568 -0.1875  1.0046 -1.3595
 3317TIP3   OH234145   5.563   4.788  20.542 -0.4198 -0.1853  0.0264
 3317TIP3    H134146   5.649   4.748  20.532 -0.1343  0.4999 -0.3746
 3317TIP3    H234147   5.508   4.719  20.580  0.3112 -0.6194  0.3235
 3318TIP3   OH234148   4.507   2.401  17.782 -0.0086  0.4793 -0.9109
 3318TIP3    H134149   4.572   2.395  17.713  0.7050  0.2812 -0.2349
 3318TIP3    H234150   4.458   2.318  17.777  1.6794 -0.6535  0.4104
 3319TIP3   OH234151   5.956   3.453  17.865 -0.8732  0.3572  0.3162
 3319TIP3    H134152   5.943   3.417  17.778 -1.5998 -0.1052  0.6007
 3319TIP3    H234153   5.925   3.384  17.924 -0.5258  0.7182  0.9329
 3320TIP3   OH234154   0.659   2.407  17.388 -0.3062 -0.1490  0.4813
 3320TIP3    H134155   0.732   2.464  17.363 -2.1543  2.8379  1.3603
 3320TIP3    H234156   0.689   2.319  17.368  1.4599  1.2558 -4.3534
 3321TIP3   OH234157   5.304   3.298  20.900  0.2000 -0.1135 -0.2576
 3321TIP3    H134158   5.356   3.290  20.980  0.1814 -0.6620 -0.2945
 3321TIP3    H234159   5.366   3.276  20.830  0.0608 -0.2349 -0.3433
 3322TIP3   OH234160   4.006   4.064  18.992  0.1593  0.0994  0.2332
 3322TIP3    H134161   4.068   3.992  18.994 -1.4963 -1.3922  0.0387
 3322TIP3    H234162   4.000   4.089  18.899 -0.5939 -0.7376  0.0472
 3323TIP3   OH234163   6.482   6.538  17.420 -0.1456  0.7249 -0.1011
 3323TIP3    H134164   6.445   6.626  17.417  0.4367  0.9633 -0.4391
 3323TIP3    H234165   6.443   6.494  17.344  0.5393  1.0916 -0.6754
 3324TIP3   OH234166   2.177   0.055  18.736 -0.3383  0.2499 -0.0589
 3324TIP3    H134167   2.166   0.147  18.713 -2.9083 -0.3576 -1.7615
 3324TIP3    H234168   2.185   0.010  18.651 -1.8127 -1.3149  0.5803
 3325TIP3   OH234169   6.184   1.230  20.363 -0.2678 -0.3727 -0.3118
 3325TIP3    H134170   6.266   1.215  20.315 -1.5418 -0.5993 -2.5593
 3325TIP3    H234171   6.159   1.320  20.341  0.5697  0.6492  2.4154
 3326TIP3   OH234172   1.543   2.530  20.157 -0.3767  0.3271 -0.4770
 3326TIP3    H134173   1.537   2.595  20.226 -0.9734  0.7709 -0.9358
 3326TIP3    H234174   1.497   2.454  20.191  1.9376 -0.6046  0.8453
 3327TIP3   OH234175   6.460   6.095  18.189  0.2953  0.0268  0.3420
 3327TIP3    H134176   6.479   6.118  18.280 -0.7644 -1.4479  0.9752
 3327TIP3    H234177   6.376   6.137  18.171 -0.9503 -2.0263  1.0480
 3328TIP3   OH234178   6.672   2.622  20.404  0.4608 -0.6050  0.0054
 3328TIP3    H134179   6.679   2.532  20.372  0.2236  0.5440 -3.7261
 3328TIP3    H234180   6.579   2.632  20.426  0.8528 -1.7920  2.6609
 3329TIP3   OH234181   1.797   3.991  19.052  0.0784 -0.2944 -0.1980
 3329TIP3    H134182   1.820   4.044  18.976  0.9053  0.0676  0.2875
 3329TIP3    H234183   1.864   3.922  19.054  0.5374  0.1608  0.6397
 3330TIP3   OH234184   5.644   4.480  17.309 -0.1162 -0.4786  0.1229
 3330TIP3    H134185   5.739   4.491  17.318 -0.1388 -0.9824  1.0615
 3330TIP3    H234186   5.619   4.544  17.243  0.6373  0.7707  1.0155
 3331TIP3   OH234187   0.720   6.548  19.628  0.2658  0.4142 -0.4614
 3331TIP3    H134188   0.644   6.584  19.674 -0.4028  0.7742 -1.7860
 3331TIP3    H234189   0.713   6.453  19.642  0.0814  0.5101  0.1576
 3332TIP3   OH234190   4.883   6.202  17.887  0.4471  0.3496 -0.4797
 3332TIP3    H134191   4.828   6.199  17.808 -0.4228 -0.7920  0.1491
 3332TIP3    H234192   4.859   6.124  17.937  0.9738  1.0501  0.9313
 3333TIP3   OH234193   4.202   0.899  18.829 -0.4668 -0.0972 -0.1158
 3333TIP3    H134194   4.192   0.966  18.761 -1.0088 -1.0697 -1.0370
 3333TIP3    H234195   4.289   0.863  18.813 -0.7331 -0.5706 -0.5511
 3334TIP3   OH234196   0.130   5.627  17.689  0.2814  0.0055 -0.4497
 3334TIP3    H134197   0.124   5.616  17.784  1.1943 -0.0650 -0.3877
 3334TIP3    H234198   0.195   5.696  17.676  0.9432 -0.6997 -1.0342
 3335TIP3   OH234199   5.810   5.061  19.579  0.0894  0.6915  0.4228
 3335TIP3    H134200   5.752   5.078  19.505  1.0212 -1.1764 -0.8353
 3335TIP3    H234201   5.898   5.080  19.546  0.5127 -0.0485  1.0753
 3336TIP3   OH234202   2.035   2.087  19.577  0.5054 -0.0912  0.2433
 3336TIP3    H134203   2.052   2.032  19.501  1.5460 -0.3457  0.6453
 3336TIP3    H234204   2.046   2.177  19.544 -0.2476 -0.1487 -0.1832
 3337TIP3   OH234205   5.229   1.115  18.564  0.0059  0.0286 -0.7095
 3337TIP3    H134206   5.302   1.170  18.539  0.7803 -1.3969 -1.7711
 3337TIP3    H234207   5.214   1.059  18.488 -1.1888 -0.7459  0.0533
 3338TIP3   OH234208   2.418   1.975  19.959  0.6604 -0.4789 -0.5677
 3338TIP3    H134209   2.394   2.066  19.979  1.5580 -0.1432 -0.9902
 3338TIP3    H234210   2.468   1.980  19.878  3.1051 -1.0083  0.8313
 3339TIP3   OH234211   4.173   6.001  17.665 -0.3729 -0.4300  0.1134
 3339TIP3    H134212   4.113   6.058  17.616 -1.2250  0.7351  2.4045
 3339TIP3    H234213   4.137   5.913  17.652 -0.2039 -0.2667 -1.8060
 3340TIP3   OH234214   2.097   4.391  20.502  0.0392 -0.2127 -0.0191
 3340TIP3    H134215   2.150   4.470  20.513  1.7164 -1.1453 -0.9451
 3340TIP3    H234216   2.159   4.319  20.514 -1.2650 -1.3870 -0.0662
 3341TIP3   OH234217   1.463   2.986  19.438 -0.6873  0.1582  0.0757
 3341TIP3    H134218   1.412   3.064  19.458  0.6125  1.4187 -1.2362
 3341TIP3    H234219   1.554   3.014  19.448 -0.1819 -1.6447  1.0622
 3342TIP3   OH234220   4.609   6.028  18.838  0.3629  0.0761  0.1828
 3342TIP3    H134221   4.569   6.111  18.810 -1.2540 -1.0230 -0.8946
 3342TIP3    H234222   4.594   6.025  18.933 -1.2052  0.1965 -0.0396
 3343TIP3   OH234223   0.667   2.509  20.396 -0.0321 -0.3080  0.2694
 3343TIP3    H134224   0.742   2.454  20.373 -0.5662 -0.9783  0.1243
 3343TIP3    H234225   0.673   2.518  20.491  1.4068  1.3654  0.0813
 3344TIP3   OH234226   1.704   0.245  18.355  0.1163  0.2587 -0.5062
 3344TIP3    H134227   1.757   0.197  18.292  1.0270  1.4507 -0.6892
 3344TIP3    H234228   1.624   0.266  18.307  0.6545  0.8560 -1.1747
 3345TIP3   OH234229   2.771   4.304  18.271  0.2249 -0.0729 -0.0253
 3345TIP3    H134230   2.790   4.336  18.359  1.1092  0.2352 -0.3157
 3345TIP3    H234231   2.845   4.334  18.218  0.2392 -1.1757 -0.6516
 3346TIP3   OH234232   6.040   1.287  18.234 -0.0482 -0.3495 -0.5368
 3346TIP3    H134233   6.008   1.276  18.145 -1.7781 -0.6050  0.0792
 3346TIP3    H234234   6.126   1.244  18.234 -0.0724 -0.4490 -2.0293
 3347TIP3   OH234235   3.722   1.913  18.008 -0.0094 -0.0528 -0.3157
 3347TIP3    H134236   3.769   1.856  18.069 -1.6744 -1.3597 -0.1765
 3347TIP3    H234237   3.648   1.947  18.059 -0.0279  0.8331 -0.9103
 3348TIP3   OH234238   6.680   0.325  17.841 -0.6096  0.4636  0.4614
 3348TIP3    H134239   6.655   0.316  17.749 -0.5728  1.0984  0.3797
 3348TIP3    H234240   6.597   0.343  17.887 -0.4105  2.1116  0.2550
 3349TIP3   OH234241   0.095   4.702  20.078  0.0602 -0.2626  0.1363
 3349TIP3    H134242   0.000   4.700  20.085  0.0332  0.9981  0.2099
 3349TIP3    H234243   0.116   4.792  20.054  1.3594 -0.0264  1.9659
 3350TIP3   OH234244   4.355   4.614  19.934  0.2512 -0.7118  0.4783
 3350TIP3    H134245   4.322   4.539  19.885  1.5921 -1.0735  0.0866
 3350TIP3    H234246   4.349   4.587  20.026 -0.6058 -0.7191  0.4333
 3351TIP3   OH234247   3.918   2.185  17.791 -0.3352 -0.5697 -0.3841
 3351TIP3    H134248   3.889   2.094  17.804 -0.3384 -0.5459 -0.2195
 3351TIP3    H234249   3.983   2.179  17.721 -1.7427 -0.4325 -1.7657
 3352TIP3   OH234250   0.766   0.245  19.677 -0.0719 -0.0267 -0.2176
 3352TIP3    H134251   0.682   0.217  19.640 -0.5691  2.3505 -1.0897
 3352TIP3    H234252   0.742   0.304  19.749  0.8012  1.0432 -0.7751
 3353TIP3   OH234253   5.181   6.541  18.452  0.3042  0.0906 -0.3983
 3353TIP3    H134254   5.205   6.460  18.497  0.5654  1.1363  1.4622
 3353TIP3    H234255   5.095   6.523  18.415 -0.6811 -0.3636  1.9396
 3354TIP3   OH234256   5.565   1.304  18.136  0.8714  0.0038 -0.2008
 3354TIP3    H134257   5.561   1.352  18.219  1.1274  0.5633 -0.5090
 3354TIP3    H234258   5.643   1.338  18.092  0.4913  0.0274 -0.8625
 3355TIP3   OH234259   1.932   4.659  17.947  0.3286 -0.0408 -0.5266
 3355TIP3    H134260   2.010   4.625  17.992  0.6434  0.1344 -0.9323
 3355TIP3    H234261   1.946   4.753  17.941 -0.0860  0.0395 -0.2828
 3356TIP3   OH234262   0.776   4.081  18.814 -0.0466 -0.1839  0.1036
 3356TIP3    H134263   0.752   4.075  18.722  2.0157 -2.7251 -0.3810
 3356TIP3    H234264   0.722   4.014  18.857 -0.5923  0.6012  0.6748
 3357TIP3   OH234265   4.237   1.135  17.399 -0.0588 -0.2747  0.5385
 3357TIP3    H134266   4.176   1.126  17.473 -0.8039 -0.1997 -0.0597
 3357TIP3    H234267   4.183   1.166  17.327  1.1168  2.1876  0.6049
 3358TIP3   OH234268   4.410   0.654  18.139 -0.2630  0.5069  0.3378
 3358TIP3    H134269   4.322   0.663  18.177  0.2912  2.3566  1.2396
 3358TIP3    H234270   4.398   0.677  18.047 -1.0303 -1.0116  0.0203
 3359TIP3   OH234271   2.018   5.457  18.716  0.2997  0.3103 -0.1759
 3359TIP3    H134272   1.998   5.527  18.780  2.3826 -0.5560  1.5372
 3359TIP3    H234273   1.934   5.414  18.702 -0.5474  1.5813  0.7014
 3360TIP3   OH234274   6.405   5.322  18.536 -0.6601 -0.5797  0.0997
 3360TIP3    H134275   6.483   5.267  18.538  0.2055  0.5570 -0.9972
 3360TIP3    H234276   6.374   5.325  18.627  2.1703  1.1651  1.1294
 3361TIP3   OH234277   6.370   4.465  20.070 -0.0002  0.5438 -0.2164
 3361TIP3    H134278   6.348   4.386  20.022 -2.1168  0.5622  0.6230
 3361TIP3    H234279   6.413   4.434  20.150  0.0848  0.3174 -0.3495
 3362TIP3   OH234280   1.348   5.866  18.989  0.0940 -0.3767 -0.2363
 3362TIP3    H134281   1.273   5.910  18.948 -0.5059  1.6556  2.7034
 3362TIP3    H234282   1.323   5.855  19.081  3.3637  0.4527  0.9155
 3363TIP3   OH234283   4.292   2.478  19.405 -0.1058 -0.2131  0.4462
 3363TIP3    H134284   4.386   2.478  19.426  0.1275 -0.0382 -0.5334
 3363TIP3    H234285   4.269   2.386  19.401  0.5239 -0.3330 -1.3265
 3364TIP3   OH234286   3.177   1.745  17.189  0.2492 -0.1146  0.1632
 3364TIP3    H134287   3.259   1.765  17.144  0.3565 -2.5557 -0.8732
 3364TIP3    H234288   3.111   1.748  17.120 -0.6936  2.1779  1.0492
 3365TIP3   OH234289   3.878   5.603  18.712 -0.3329 -0.5954  0.3524
 3365TIP3    H134290   3.937   5.532  18.687 -0.5764 -0.5200 -0.4907
 3365TIP3    H234291   3.822   5.566  18.780  0.5660 -0.7164  1.0450
 3366TIP3   OH234292   0.779   4.188  16.974  0.4913  0.0514 -0.8777
 3366TIP3    H134293   0.697   4.140  16.987  1.5034 -1.3013  0.8404
 3366TIP3    H234294   0.774   4.218  16.883 -1.9145  0.0491 -0.8155
 3367TIP3   OH234295   5.306   1.316  20.028  0.6085 -0.4616 -0.7552
 3367TIP3    H134296   5.310   1.326  19.933  0.1797 -0.1318 -0.7450
 3367TIP3    H234297   5.361   1.386  20.063 -0.6741  0.5851 -0.7316
 3368TIP3   OH234298   5.245   6.241  19.499 -0.4350  0.0271  0.0001
 3368TIP3    H134299   5.320   6.181  19.500 -1.8323 -1.8096  0.8601
 3368TIP3    H234300   5.208   6.232  19.411  0.6275  1.3893 -0.6327
 3369TIP3   OH234301   2.468   5.992  19.863 -0.7098  0.1311  0.0941
 3369TIP3    H134302   2.535   6.033  19.917 -0.1766 -0.8286  0.1806
 3369TIP3    H234303   2.516   5.952  19.790 -1.3625  0.9025 -0.7875
 3370TIP3   OH234304   2.652   3.740  18.627  0.0178  0.0330  0.3226
 3370TIP3    H134305   2.575   3.749  18.571  0.6469  0.9980 -0.4349
 3370TIP3    H234306   2.685   3.651  18.609 -0.7717 -0.2945  0.4746
 3371TIP3   OH234307   0.993   4.726  18.445  0.3058  0.5359 -0.3663
 3371TIP3    H134308   0.900   4.725  18.469  0.6271  0.6914  0.9232
 3371TIP3    H234309   1.001   4.656  18.380 -0.3480 -0.8553  0.9701
 3372TIP3   OH234310   0.374   4.455  17.984 -0.4816  0.1123 -0.2561
 3372TIP3    H134311   0.424   4.395  18.039 -0.7747  0.7378  0.7198
 3372TIP3    H234312   0.294   4.408  17.962 -1.2208  0.5281  1.4305
 3373TIP3   OH234313   3.829   4.040  20.674 -0.1098  0.2244  0.4991
 3373TIP3    H134314   3.847   4.104  20.743 -1.9626  0.9100  0.3978
 3373TIP3    H234315   3.823   4.092  20.594  1.3447 -0.4875 -0.1208
 3374TIP3   OH234316   1.385   3.957  18.841  0.9115  0.0546 -0.0827
 3374TIP3    H134317   1.314   3.897  18.819  0.9849 -0.1349  0.1915
 3374TIP3    H234318   1.375   4.030  18.779  1.4612 -0.7252 -1.1053
 3375TIP3   OH234319   4.670   5.654  17.939 -0.1515  0.4549  0.3855
 3375TIP3    H134320   4.647   5.563  17.917 -0.3811  0.9638 -1.7178
 3375TIP3    H234321   4.755   5.647  17.984 -0.4718 -0.8359  0.8247
 3376TIP3   OH234322   1.243   2.417  20.126 -0.7094 -0.0528  0.4932
 3376TIP3    H134323   1.295   2.392  20.202 -1.5798 -1.5410  0.6459
 3376TIP3    H234324   1.286   2.375  20.052 -0.2111  0.8908  0.2340
 3377TIP3   OH234325   2.506   3.965  19.232  0.4550  0.3862 -0.1098
 3377TIP3    H134326   2.493   3.982  19.325  0.8406 -0.3793  0.0946
 3377TIP3    H234327   2.601   3.964  19.221  0.6550 -3.8936  0.4174
 3378TIP3   OH234328   2.610   3.763  17.611  0.0837  0.2052 -0.3019
 3378TIP3    H134329   2.626   3.821  17.685 -1.2976 -0.8258  0.8607
 3378TIP3    H234330   2.692   3.716  17.598  0.6275  1.0651 -0.0645
 3379TIP3   OH234331   0.682   2.629  19.416 -0.4973 -0.1518 -0.1177
 3379TIP3    H134332   0.596   2.637  19.458  0.1124 -0.3114  1.2210
 3379TIP3    H234333   0.738   2.594  19.485  0.6453 -0.0354 -0.9771
 3380TIP3   OH234334   3.155   0.939  18.980  0.0061  0.2677  0.2557
 3380TIP3    H134335   3.148   0.930  18.884 -0.2414 -1.6722  0.4020
 3380TIP3    H234336   3.068   0.967  19.008 -0.2057 -0.1017 -0.0162
 3381TIP3   OH234337   1.496   5.029  20.654  0.5104 -0.1475 -0.1400
 3381TIP3    H134338   1.579   5.001  20.694  0.1654 -2.0532 -0.6724
 3381TIP3    H234339   1.469   5.104  20.707  0.8267 -1.6272  2.3009
 3382TIP3   OH234340   6.337   5.633  17.139 -0.1299 -0.1778 -0.3634
 3382TIP3    H134341   6.331   5.721  17.177 -0.9422  0.6804 -2.3523
 3382TIP3    H234342   6.402   5.589  17.193  0.3412  1.6426  0.6715
 3383TIP3   OH234343   0.579   5.440  19.069  0.6474  0.3750 -0.0019
 3383TIP3    H134344   0.495   5.484  19.058  0.7140  0.3543 -0.6628
 3383TIP3    H234345   0.601   5.451  19.161 -0.8507 -1.0127  0.5614
 3384TIP3   OH234346   4.007   3.166  19.514  0.1423 -0.5035 -0.5468
 3384TIP3    H134347   3.946   3.233  19.544 -0.8053 -1.4061 -0.3930
 3384TIP3    H234348   3.952   3.103  19.467  0.4584 -2.7547  1.8822
 3385TIP3   OH234349   2.446   4.732  18.060 -0.0375  0.4607 -0.4962
 3385TIP3    H134350   2.484   4.763  17.978  0.8812  0.1504 -0.1957
 3385TIP3    H234351   2.508   4.760  18.128  0.8053 -1.9319 -0.1972
 3386TIP3   OH234352   2.476   2.535  17.804 -0.0601  0.1712  0.4370
 3386TIP3    H134353   2.553   2.506  17.853  0.6583  1.2572 -0.0104
 3386TIP3    H234354   2.405   2.480  17.836  0.5784  0.2077  2.0126
 3387TIP3   OH234355   5.868   5.880  19.572  0.4195 -0.5467 -0.1339
 3387TIP3    H134356   5.809   5.828  19.517 -0.2780 -0.6030  0.6482
 3387TIP3    H234357   5.895   5.953  19.516 -0.2338 -0.6346 -0.5766
 3388TIP3   OH234358   3.258   2.150  18.650  0.0364  0.6746 -0.5589
 3388TIP3    H134359   3.179   2.097  18.638 -0.6622  1.8713 -1.4161
 3388TIP3    H234360   3.226   2.240  18.648  1.0712  1.1490  1.8105
 3389TIP3   OH234361   5.570   1.281  20.623 -0.0802  0.8083  0.3738
 3389TIP3    H134362   5.586   1.289  20.717 -1.3277  1.4468  0.5486
 3389TIP3    H234363   5.654   1.252  20.587  0.1633 -0.3741  1.7936
 3390TIP3   OH234364   0.845   5.176  19.524 -0.0009  0.0400  0.1760
 3390TIP3    H134365   0.813   5.253  19.570 -1.7995  0.1652 -1.1977
 3390TIP3    H234366   0.905   5.134  19.587  0.9203  2.4259  1.0090
 3391TIP3   OH234367   5.543   4.594  18.894 -0.1515  0.1271  1.1906
 3391TIP3    H134368   5.556   4.565  18.984 -1.2883  1.1034  1.6992
 3391TIP3    H234369   5.481   4.667  18.901  1.6592  1.9036 -0.1275
 3392TIP3   OH234370   4.610   3.094  17.181 -0.0663 -0.4404  0.5143
 3392TIP3    H134371   4.580   3.184  17.168  0.5740 -0.0683  1.5056
 3392TIP3    H234372   4.540   3.040  17.143 -0.1394  0.4737 -0.7140
 3393TIP3   OH234373   4.894   5.941  18.447  0.4675 -0.6793 -0.3113
 3393TIP3    H134374   4.880   5.854  18.410  1.4675 -0.6947 -0.6733
 3393TIP3    H234375   4.928   5.925  18.535  0.3755 -0.6509 -0.2698
 3394TIP3   OH234376   5.958   1.769  18.399 -0.4714  0.2661 -0.1524
 3394TIP3    H134377   5.946   1.780  18.305 -0.4026 -0.7126 -0.2903
 3394TIP3    H234378   5.957   1.674  18.412  0.5439  0.3530  0.6911
 3395TIP3   OH234379   2.915   1.916  18.122  0.4647  0.4949  0.0777
 3395TIP3    H134380   2.922   1.821  18.130 -1.7493  0.2727 -0.0318
 3395TIP3    H234381   2.916   1.948  18.212 -1.4056  0.0883  0.2817
 3396TIP3   OH234382   2.830   2.280  18.779  0.0145 -0.3951 -0.2135
 3396TIP3    H134383   2.831   2.362  18.731 -0.8585 -0.2220  0.0475
 3396TIP3    H234384   2.816   2.305  18.870  1.1210 -0.7514  0.0633
 3397TIP3   OH234385   1.143   3.403  18.197 -0.2886 -0.3238  0.0941
 3397TIP3    H134386   1.116   3.454  18.273 -2.1747  0.2229 -0.8689
 3397TIP3    H234387   1.162   3.467  18.130  1.4659 -0.8007  0.0958
 3398TIP3   OH234388   5.401   5.029  20.522 -1.2572 -0.5607  0.0300
 3398TIP3    H134389   5.409   5.089  20.596 -1.7228  0.2001 -0.5166
 3398TIP3    H234390   5.470   4.964  20.535 -0.1528  0.6163  0.1678
 3399TIP3   OH234391   3.678   0.382  18.952  0.0026  0.0205  0.3749
 3399TIP3    H134392   3.590   0.412  18.927  0.1482  0.5591  0.4876
 3399TIP3    H234393   3.665   0.293  18.983 -0.4017 -0.1447 -0.2576
 3400TIP3   OH234394   4.441   1.637  18.938  0.1664  0.7005 -0.2997
 3400TIP3    H134395   4.354   1.603  18.959  0.8363 -0.5522  0.5646
 3400TIP3    H234396   4.487   1.563  18.898  1.6707  0.5303  1.6263
 3401TIP3   OH234397   2.538   3.485  18.399 -0.1032  0.0276  0.1524
 3401TIP3    H134398   2.630   3.509  18.381  0.0760  0.7224  1.8483
 3401TIP3    H234399   2.543   3.421  18.470 -0.8790 -1.1871 -0.8495
 3402TIP3   OH234400   5.703   6.122  18.122 -0.2200 -0.6178 -0.2895
 3402TIP3    H134401   5.705   6.027  18.131 -0.2464 -0.6012 -0.1062
 3402TIP3    H234402   5.778   6.142  18.066  0.9061 -0.5839  1.1764
 3403TIP3   OH234403   5.502   3.601  18.479 -0.4263 -0.2650  0.0493
 3403TIP3    H134404   5.416   3.607  18.519  0.0183 -0.6988  1.1049
 3403TIP3    H234405   5.485   3.601  18.384 -1.6475 -1.2052  0.2454
 3404TIP3   OH234406   0.926   6.151  20.351  0.1143  0.1411 -0.3248
 3404TIP3    H134407   0.943   6.102  20.270 -0.5227 -1.1905  0.3130
 3404TIP3    H234408   0.991   6.117  20.413  0.5345  1.0872 -0.2266
 3405TIP3   OH234409   4.717   0.200  20.487  0.2014 -0.0197  0.3670
 3405TIP3    H134410   4.734   0.294  20.480  0.9356 -0.2775 -2.5266
 3405TIP3    H234411   4.791   0.166  20.538  0.7263  0.7757  0.1549
 3406TIP3   OH234412   4.746   5.234  20.294  0.0819 -0.4115 -0.0201
 3406TIP3    H134413   4.820   5.250  20.237  0.1654  0.0519  0.2083
 3406TIP3    H234414   4.759   5.145  20.328  1.3270  0.1845  1.1700
 3407TIP3   OH234415   5.533   3.558  20.002  0.1244 -0.1790  0.1009
 3407TIP3    H134416   5.464   3.494  19.985  0.5823 -0.7119  0.2242
 3407TIP3    H234417   5.600   3.509  20.049  0.8120  0.2146 -0.4558
 3408TIP3   OH234418   2.385   4.710  18.726 -0.1099 -0.2174  0.0720
 3408TIP3    H134419   2.472   4.679  18.749 -0.3019 -1.1709 -0.4327
 3408TIP3    H234420   2.372   4.788  18.780  0.1930 -1.3022  1.8087
 3409TIP3   OH234421   0.808   1.371  20.544  0.1463  0.1626 -0.0919
 3409TIP3    H134422   0.818   1.280  20.517  0.3234  0.0455  0.3746
 3409TIP3    H234423   0.714   1.387  20.536  0.0606 -0.1788  0.2038
 3410TIP3   OH234424   6.679   1.568  19.873  0.7222 -0.0913  0.6694
 3410TIP3    H134425   6.715   1.570  19.962 -0.8032  0.6782  1.3117
 3410TIP3    H234426   6.584   1.563  19.886  0.5237 -1.7841 -0.9423
 3411TIP3   OH234427   0.157   4.902  18.066  0.3043 -0.0685  0.1548
 3411TIP3    H134428   0.230   4.846  18.094  0.1479 -1.8956 -2.7183
 3411TIP3    H234429   0.190   4.947  17.989 -1.1099  0.3011 -0.2635
 3412TIP3   OH234430   4.622   1.153  20.321 -0.1426 -0.6224 -0.2435
 3412TIP3    H134431   4.550   1.216  20.323  0.2340 -0.1696 -0.7895
 3412TIP3    H234432   4.595   1.084  20.382 -0.3920  0.2522  0.6737
 3413TIP3   OH234433   0.278   4.165  17.384  0.4122 -0.5165  0.3944
 3413TIP3    H134434   0.354   4.135  17.433 -0.2396  0.5593  2.1700
 3413TIP3    H234435   0.297   4.257  17.365 -0.3461 -0.2950  0.6798
 3414TIP3   OH234436   0.300   2.127  19.391  0.0294 -0.6888 -0.5880
 3414TIP3    H134437   0.266   2.071  19.321  0.8689 -1.4401 -0.4076
 3414TIP3    H234438   0.221   2.160  19.435 -0.4896 -1.2906 -1.0442
 3415TIP3   OH234439   1.555   3.622  19.598 -0.0834 -0.3258  0.0857
 3415TIP3    H134440   1.555   3.672  19.680  0.7807 -0.3867  0.1372
 3415TIP3    H234441   1.626   3.559  19.608 -0.1571 -0.5292 -0.5941
 3416TIP3   OH234442   6.515   6.650  18.476 -0.2422  0.5382  0.0895
 3416TIP3    H134443   6.437   6.594  18.471 -0.0689  0.4062 -2.0596
 3416TIP3    H234444   6.506   6.696  18.559 -2.0430 -0.3003  0.4082
 3417TIP3   OH234445   6.627   0.790  18.738  0.2404 -0.0867 -0.1371
 3417TIP3    H134446   6.582   0.857  18.687  1.1819 -0.0363 -0.9493
 3417TIP3    H234447   6.629   0.824  18.827 -0.4672  0.3356 -0.2775
 3418TIP3   OH234448   1.211   3.308  19.946  0.1229 -0.2063  0.2107
 3418TIP3    H134449   1.297   3.349  19.952  0.1377 -0.3280  0.8697
 3418TIP3    H234450   1.158   3.373  19.899  1.0724 -0.9905 -2.0792
 3419TIP3   OH234451   0.476   6.369  19.438  0.1375  0.0946  0.0329
 3419TIP3    H134452   0.561   6.325  19.427 -0.8648 -1.7491 -0.8194
 3419TIP3    H234453   0.415   6.316  19.388 -1.5558  1.3555  0.6655
 3420TIP3   OH234454   6.702   3.900  20.826 -0.0786  0.8443 -0.0350
 3420TIP3    H134455   6.746   3.941  20.901 -1.6078  1.9036  0.3303
 3420TIP3    H234456   6.750   3.933  20.750  0.2656  1.3524  0.3914
 3421TIP3   OH234457   3.680   4.629  19.254 -0.4301 -0.1992 -0.1537
 3421TIP3    H134458   3.673   4.558  19.317 -2.1418 -0.7841 -0.9220
 3421TIP3    H234459   3.748   4.601  19.193  1.2019  0.3508  1.3391
 3422TIP3   OH234460   4.218   3.664  18.365 -0.1448  0.4880 -0.0891
 3422TIP3    H134461   4.250   3.693  18.450  0.4930 -1.6525  0.4497
 3422TIP3    H234462   4.292   3.678  18.305 -0.2907  1.1481 -0.1265
 3423TIP3   OH234463   2.721   6.152  19.699 -0.4052  0.2412 -0.3791
 3423TIP3    H134464   2.634   6.172  19.665 -0.2157 -0.1936 -1.1469
 3423TIP3    H234465   2.731   6.057  19.686  0.5290  0.4255 -1.1641
 3424TIP3   OH234466   2.223   2.713  18.590 -0.8641 -0.5463 -0.0489
 3424TIP3    H134467   2.278   2.790  18.579  0.7636 -1.6766 -0.0954
 3424TIP3    H234468   2.192   2.719  18.681  1.1951 -1.0221  0.7373
 3425TIP3   OH234469   4.536   1.062  18.665 -0.0975 -0.1619 -0.4983
 3425TIP3    H134470   4.504   0.991  18.721  0.0387  0.1158 -0.0676
 3425TIP3    H234471   4.473   1.066  18.593 -0.6752 -0.0465  0.0051
 3426TIP3   OH234472   0.977   3.328  17.179 -0.4429 -0.5585  0.1036
 3426TIP3    H134473   0.960   3.256  17.118 -1.5853 -1.8373  1.8172
 3426TIP3    H234474   0.889   3.353  17.210  0.0348  0.7686  0.4301
 3427TIP3   OH234475   0.714   6.556  17.923  0.1582 -0.0563  0.0284
 3427TIP3    H134476   0.621   6.534  17.918  0.3023 -0.7668  0.2828
 3427TIP3    H234477   0.719   6.648  17.896 -0.6527  0.0800  0.3051
 3428TIP3   OH234478   2.357   0.245  20.288 -0.0253 -0.4267 -0.0433
 3428TIP3    H134479   2.429   0.208  20.338  0.9438  0.5261 -0.6744
 3428TIP3    H234480   2.399   0.310  20.231 -1.2747 -0.4560 -1.0406
 3429TIP3   OH234481   1.294   0.621  20.131  0.4435 -0.4067  0.1625
 3429TIP3    H134482   1.317   0.570  20.209  0.5885  0.1112  0.4638
 3429TIP3    H234483   1.374   0.621  20.079  0.5415 -0.2275  0.3098
 3430TIP3   OH234484   0.492   1.151  20.563  0.0315  0.1169  0.1753
 3430TIP3    H134485   0.538   1.121  20.641 -2.2424 -0.2815  1.4343
 3430TIP3    H234486   0.449   1.072  20.529  1.7865  0.0458 -2.1563
 3431TIP3   OH234487   2.650   5.947  18.313 -0.0290 -0.2777 -0.0728
 3431TIP3    H134488   2.701   5.872  18.343 -1.2852 -1.4345 -0.6735
 3431TIP3    H234489   2.582   5.958  18.380  0.4634  0.6873  0.2851
 3432TIP3   OH234490   4.535   0.193  20.749 -0.3099 -0.1343 -0.3327
 3432TIP3    H134491   4.600   0.200  20.680 -1.2333  2.8543 -1.0461
 3432TIP3    H234492   4.451   0.212  20.706 -0.9983  1.1486  1.4311
 3433TIP3   OH234493   1.635   1.467  20.589  0.0293 -0.1515 -0.4268
 3433TIP3    H134494   1.708   1.462  20.651  1.6048  2.2187 -1.9648
 3433TIP3    H234495   1.566   1.513  20.637  0.6126  0.1966  0.0898
 3434TIP3   OH234496   2.352   0.794  19.855  0.0006  0.0718  0.0056
 3434TIP3    H134497   2.404   0.805  19.934  1.4077 -2.5335 -0.4371
 3434TIP3    H234498   2.297   0.718  19.873 -1.7631  1.1436 -0.5530
 3435TIP3   OH234499   3.720   0.289  19.854  0.0671 -0.0406 -0.5161
 3435TIP3    H134500   3.760   0.274  19.940 -0.0122 -0.6701 -0.5831
 3435TIP3    H234501   3.782   0.345  19.807 -0.3583  1.1654  0.3082
 3436TIP3   OH234502   5.805   3.618  17.620  0.3405 -0.1840 -0.2258
 3436TIP3    H134503   5.847   3.703  17.609  0.3289  0.0882  1.5388
 3436TIP3    H234504   5.875   3.554  17.602  0.7301  0.2289 -0.2023
 3437TIP3   OH234505   3.211   5.898  20.714 -0.2152 -0.3193 -0.2346
 3437TIP3    H134506   3.260   5.821  20.742  0.6610  0.0621 -0.6567
 3437TIP3    H234507   3.276   5.969  20.715 -1.2404  0.6710  1.2290
 3438TIP3   OH234508   5.858   1.163  20.720  0.4222 -0.0245 -0.1599
 3438TIP3    H134509   5.857   1.071  20.695  0.8498  0.3544 -1.7279
 3438TIP3    H234510   5.933   1.200  20.673 -0.3812  1.3302 -0.4527
 3439TIP3   OH234511   0.010   5.556  20.456  0.6638 -0.0758  0.1948
 3439TIP3    H134512   0.040   5.623  20.395 -0.6646 -0.3117 -0.7466
 3439TIP3    H234513  -0.083   5.546  20.437  0.3542 -0.6038  1.8444
 3440TIP3   OH234514   4.461   0.809  18.766  0.1833  0.0522  0.3297
 3440TIP3    H134515   4.445   0.717  18.785 -1.2567  0.0242 -0.8614
 3440TIP3    H234516   4.484   0.810  18.673 -0.1202  0.9112  0.2582
 3441TIP3   OH234517   2.717   3.065  18.367 -0.2531 -0.5212  0.0244
 3441TIP3    H134518   2.707   3.149  18.411 -0.7626 -0.3835 -0.3362
 3441TIP3    H234519   2.635   3.054  18.318  0.3442 -0.6023 -0.9856
 3442TIP3   OH234520   3.944   1.180  18.426 -0.1574 -0.6453  0.1533
 3442TIP3    H134521   3.955   1.160  18.333  1.1428 -0.6922  0.2943
 3442TIP3    H234522   4.010   1.247  18.445 -1.4307  0.5094  0.7172
 3443TIP3   OH234523   5.551   0.359  20.166 -0.5834  0.1875 -0.2162
 3443TIP3    H134524   5.525   0.295  20.099  0.1573  0.7556 -1.0692
 3443TIP3    H234525   5.631   0.324  20.204  0.7777  1.3572 -1.8463
 3444TIP3   OH234526   6.468   2.829  20.214 -0.5717 -0.3142  0.0517
 3444TIP3    H134527   6.540   2.848  20.275 -0.9782 -1.3318  0.8856
 3444TIP3    H234528   6.422   2.912  20.205  0.0489  0.0790  0.3962
 3445TIP3   OH234529   5.120   4.498  18.817 -0.8681 -0.2780 -0.4069
 3445TIP3    H134530   5.122   4.413  18.774 -0.9479 -1.6666  2.1646
 3445TIP3    H234531   5.028   4.509  18.844 -0.7698  0.4344 -0.3340
 3446TIP3   OH234532   1.569   3.538  18.311 -0.0130  0.4508 -0.2143
 3446TIP3    H134533   1.526   3.470  18.363  0.5205  0.2927  0.0332
 3446TIP3    H234534   1.588   3.494  18.228  1.0305  0.0416  0.2222
 3447TIP3   OH234535   2.369   4.737  19.614  0.0274 -0.3770  0.2552
 3447TIP3    H134536   2.400   4.664  19.560 -0.8400 -0.7727  0.2644
 3447TIP3    H234537   2.356   4.699  19.701  0.1899 -0.0574  0.4194
 3448TIP3   OH234538   3.075   3.652  17.964 -0.3916 -0.2643  0.6090
 3448TIP3    H134539   3.171   3.652  17.966 -0.3950  0.2208  1.1889
 3448TIP3    H234540   3.053   3.636  17.873  0.2559  0.4458  0.3139
 3449TIP3   OH234541   5.833   4.733  19.802  0.5990  0.0300 -0.1540
 3449TIP3    H134542   5.761   4.672  19.817  2.4325 -2.1850  0.1768
 3449TIP3    H234543   5.832   4.749  19.708 -0.2492 -0.0692 -0.1661
 3450TIP3   OH234544   1.646   0.121  19.500  0.2707 -0.2752 -0.3225
 3450TIP3    H134545   1.639   0.196  19.441  0.1134 -0.4558 -0.5373
 3450TIP3    H234546   1.720   0.141  19.556 -0.5480  0.6146  0.4558
 3451TIP3   OH234547   3.129   1.360  18.147  0.0121 -0.7459 -0.7328
 3451TIP3    H134548   3.192   1.312  18.201  0.6967  0.5367 -0.3338
 3451TIP3    H234549   3.177   1.381  18.067 -0.5373 -1.4059 -1.2435
 3452TIP3   OH234550   0.695   5.201  20.089  0.0550 -0.3940  0.0235
 3452TIP3    H134551   0.622   5.225  20.033 -0.5861 -0.7880  0.6708
 3452TIP3    H234552   0.689   5.261  20.164  1.0905  0.3396 -0.4558
 3453TIP3   OH234553   2.302   1.886  19.082  0.5060  0.3606  0.0667
 3453TIP3    H134554   2.346   1.824  19.141  0.5450  2.8293  2.8881
 3453TIP3    H234555   2.222   1.841  19.055  0.8972 -1.1973  1.3632
 3454TIP3   OH234556   2.184   4.822  20.509 -0.4423  0.2205  0.0438
 3454TIP3    H134557   2.209   4.740  20.550  1.3132  0.2516 -0.8609
 3454TIP3    H234558   2.198   4.807  20.415  1.8388  2.1261 -0.0015
 3455TIP3   OH234559   4.199   1.193  19.215  0.4173 -0.4315  0.0434
 3455TIP3    H134560   4.149   1.175  19.135  0.4519 -0.9962  0.1492
 3455TIP3    H234561   4.145   1.158  19.286 -0.6072  1.8558  0.4972
 3456TIP3   OH234562   1.637   4.593  17.062  0.4840 -0.0966 -0.1557
 3456TIP3    H134563   1.563   4.534  17.078  0.0573 -0.4981 -3.0265
 3456TIP3    H234564   1.705   4.537  17.025  0.7490  0.8608 -1.1990
 3457TIP3   OH234565   4.481   6.568  19.947 -0.1237 -0.4074 -0.8045
 3457TIP3    H134566   4.539   6.606  20.013  1.5450 -0.6669 -2.0559
 3457TIP3    H234567   4.400   6.550  19.994  1.1349 -0.9630  1.2841
 3458TIP3   OH234568   1.956   2.662  19.501  0.1154 -0.5182 -0.2407
 3458TIP3    H134569   2.027   2.724  19.516  0.1659 -0.7454  0.4772
 3458TIP3    H234570   2.000   2.577  19.491  0.0157 -0.5088 -0.7926
 3459TIP3   OH234571   2.738   2.168  19.998 -0.5136  0.2634  0.2503
 3459TIP3    H134572   2.788   2.195  20.075  0.4461 -0.0925 -0.2383
 3459TIP3    H234573   2.744   2.243  19.939  0.4181 -0.2028 -0.2680
 3460TIP3   OH234574   3.202   5.424  18.560  0.0363  0.1745 -0.3218
 3460TIP3    H134575   3.231   5.413  18.470  0.8554  1.8109 -0.3038
 3460TIP3    H234576   3.112   5.456  18.553  0.0046  0.0382 -0.5403
 3461TIP3   OH234577   1.858   3.797  19.491  0.0593 -0.1700 -0.0988
 3461TIP3    H134578   1.893   3.885  19.480 -0.4857 -0.0131 -0.6384
 3461TIP3    H234579   1.800   3.785  19.416  0.1787 -1.0156 -0.0613
 3462TIP3   OH234580   0.363   0.227  20.224 -0.0105  0.0250  0.1254
 3462TIP3    H134581   0.337   0.230  20.316  1.6205  0.1571  0.6180
 3462TIP3    H234582   0.368   0.319  20.197  1.0300  0.0618  0.3897
 3463TIP3   OH234583   5.719   3.799  18.429  0.5998  0.4497 -0.0692
 3463TIP3    H134584   5.761   3.751  18.358  0.8310  1.4451 -0.6159
 3463TIP3    H234585   5.662   3.734  18.471  0.0561 -0.0337 -1.4890
 3464TIP3   OH234586   6.315   5.930  19.321 -0.0940  0.1076  0.4065
 3464TIP3    H134587   6.395   5.891  19.288 -1.6926 -2.0234 -1.2270
 3464TIP3    H234588   6.296   5.883  19.402 -0.4335 -0.4338  0.0209
 3465TIP3   OH234589   4.858   5.658  19.668  0.0581  0.0630  0.3025
 3465TIP3    H134590   4.940   5.671  19.717 -0.6165  1.2231  1.1641
 3465TIP3    H234591   4.796   5.719  19.708 -0.6946  0.6281 -1.6230
 3466TIP3   OH234592   3.735   4.486  18.931  0.6375 -0.4503  0.1283
 3466TIP3    H134593   3.800   4.464  18.998 -0.4980  0.6497  1.6613
 3466TIP3    H234594   3.756   4.576  18.906 -0.0498 -0.2370  0.3236
 3467TIP3   OH234595   5.852   3.462  20.862  0.2189  0.0677 -0.0006
 3467TIP3    H134596   5.891   3.547  20.843 -1.5613  1.2885  1.3911
 3467TIP3    H234597   5.866   3.449  20.955 -0.1885 -0.8023 -0.0470
 3468TIP3   OH234598   3.802   0.822  18.534  0.1763 -0.0782  0.4038
 3468TIP3    H134599   3.886   0.830  18.487 -0.7592  1.8706 -1.1336
 3468TIP3    H234600   3.776   0.731  18.521  0.9612 -0.1257 -1.1007
 3469TIP3   OH234601   6.196   3.859  17.870 -0.4749  0.0659  0.3111
 3469TIP3    H134602   6.265   3.921  17.896 -1.1254  1.3272 -0.8557
 3469TIP3    H234603   6.184   3.874  17.777 -1.9838 -0.4966  0.3884
 3470TIP3   OH234604   6.222   0.389  18.043  0.3137 -0.2817  0.0103
 3470TIP3    H134605   6.171   0.377  18.124 -0.1008 -1.5001 -0.4125
 3470TIP3    H234606   6.168   0.446  17.989 -0.1359 -0.7279 -0.0202
 3471TIP3   OH234607   0.868   1.739  18.396 -0.2296 -0.1173  0.3596
 3471TIP3    H134608   0.783   1.749  18.438 -0.8882  0.4335 -1.0240
 3471TIP3    H234609   0.893   1.828  18.371 -0.0497 -0.4549 -0.7197
 3472TIP3   OH234610   2.921   6.527  18.594  0.3820  0.2451 -0.5890
 3472TIP3    H134611   2.981   6.456  18.573  1.8377  1.0825  0.5037
 3472TIP3    H234612   2.930   6.539  18.689 -1.8702  0.1306 -0.2953
 3473TIP3   OH234613   5.577   1.301  20.918  0.4378 -0.2685  0.6596
 3473TIP3    H134614   5.553   1.386  20.880 -1.6261  0.2455  2.9206
 3473TIP3    H234615   5.673   1.305  20.926  0.8096  0.3302 -2.4985
 3474TIP3   OH234616   1.981   1.353  18.177 -0.0958  0.1354 -0.7371
 3474TIP3    H134617   2.030   1.277  18.145 -1.5719 -0.6968 -1.1499
 3474TIP3    H234618   1.978   1.340  18.272  0.0677 -0.0725 -0.7576
 3475TIP3   OH234619   0.925   5.378  18.331  0.2632  0.3718 -0.7644
 3475TIP3    H134620   1.014   5.357  18.359  0.5444  0.6631 -1.4044
 3475TIP3    H234621   0.883   5.415  18.409 -0.0065 -1.7479  0.1601
 3476TIP3   OH234622   2.970   3.181  20.700 -0.2671  0.1364 -0.3142
 3476TIP3    H134623   2.938   3.112  20.642  1.0755 -0.5584 -0.2651
 3476TIP3    H234624   2.913   3.256  20.682 -1.6447 -0.9157 -0.4846
 3477TIP3   OH234625   3.837   3.021  19.348 -0.4014  0.3622 -0.2741
 3477TIP3    H134626   3.749   3.036  19.314 -0.7697  1.9503  1.2209
 3477TIP3    H234627   3.877   2.959  19.287 -3.4653 -2.6601  0.4788
 3478TIP3   OH234628   0.036   2.191  19.431  0.4936  0.5593 -0.3385
 3478TIP3    H134629  -0.018   2.250  19.380 -2.9815 -0.9851  1.1807
 3478TIP3    H234630  -0.012   2.180  19.513  2.0817 -2.5901  0.3361
 3479TIP3   OH234631   6.330   3.107  17.539 -0.3011  0.0460 -0.0758
 3479TIP3    H134632   6.370   3.022  17.554  1.0404  0.6243 -0.2307
 3479TIP3    H234633   6.358   3.131  17.451  0.8455  1.4162  0.6201
 3480TIP3   OH234634   5.731   5.621  18.918  0.7001  0.1120 -0.5575
 3480TIP3    H134635   5.689   5.539  18.893 -0.3098 -0.4479  2.5171
 3480TIP3    H234636   5.662   5.686  18.913 -0.2445 -0.4566  2.6747
 3481TIP3   OH234637   0.659   3.555  17.799 -0.3904  0.6649 -0.3067
 3481TIP3    H134638   0.712   3.524  17.872 -0.1631  1.4745 -0.1211
 3481TIP3    H234639   0.570   3.527  17.820 -0.2707  0.6112  0.1216
 3482TIP3   OH234640   2.680   2.458  17.958  0.4292  0.4588 -0.1564
 3482TIP3    H134641   2.748   2.511  18.000 -0.2227  2.4928 -1.5312
 3482TIP3    H234642   2.682   2.375  18.006  2.0823  1.3908  1.5405
 3483TIP3   OH234643   4.390   0.319  18.330  1.4355 -0.2114  0.0283
 3483TIP3    H134644   4.443   0.239  18.327  0.3708 -0.9332 -1.9472
 3483TIP3    H234645   4.394   0.353  18.240 -0.8954  0.0332 -0.0417
 3484TIP3   OH234646   4.695   3.149  19.558  0.1437  0.5986  0.4026
 3484TIP3    H134647   4.772   3.206  19.561  0.1308  0.5929  2.3192
 3484TIP3    H234648   4.714   3.085  19.490  1.5594  0.9540  0.4455
 3485TIP3   OH234649   3.327   1.323  17.392 -0.0200 -0.0027  0.2887
 3485TIP3    H134650   3.285   1.245  17.428  1.6985 -0.6410  1.0023
 3485TIP3    H234651   3.265   1.394  17.408 -0.4428 -0.7472  2.0972
 3486TIP3   OH234652   4.002   2.853  19.200  0.0372 -0.3080 -0.1694
 3486TIP3    H134653   3.965   2.798  19.131  0.3845 -0.8237  0.0449
 3486TIP3    H234654   4.058   2.794  19.251 -0.7064 -0.0812  0.9456
 3487TIP3   OH234655   2.788   5.505  19.272 -0.0204 -0.4217  0.0191
 3487TIP3    H134656   2.840   5.511  19.191 -0.7945  1.1047 -0.4137
 3487TIP3    H234657   2.705   5.468  19.244  0.4960 -2.0660  0.5617
 3488TIP3   OH234658   4.442   3.606  17.096 -0.1121 -0.2858 -0.0588
 3488TIP3    H134659   4.361   3.638  17.135 -1.0213 -1.4508 -0.9188
 3488TIP3    H234660   4.447   3.649  17.011 -0.3598 -0.9703 -0.4259
 3489TIP3   OH234661   5.848   5.967  18.844 -0.3671 -0.4818  0.5291
 3489TIP3    H134662   5.876   5.913  18.917  0.5496  0.6635  1.0573
 3489TIP3    H234663   5.754   5.950  18.836 -0.0274 -2.5120  0.3270
 3490TIP3   OH234664   1.778   2.352  20.588 -0.0837 -0.1268  0.7125
 3490TIP3    H134665   1.870   2.344  20.562 -0.2748 -0.7704  0.2133
 3490TIP3    H234666   1.768   2.289  20.660  0.4014  1.5285  2.3023
 3491TIP3   OH234667   6.676   1.873  20.229  0.2510 -0.1129  0.0087
 3491TIP3    H134668   6.761   1.916  20.224 -0.5040  1.2638 -2.0773
 3491TIP3    H234669   6.653   1.852  20.139 -1.9188  0.1464  0.4338
 3492TIP3   OH234670   4.565   1.938  20.893 -0.0414  0.0747  0.1299
 3492TIP3    H134671   4.578   1.852  20.934  0.9788  1.3132  2.6347
 3492TIP3    H234672   4.470   1.952  20.896 -0.1142 -0.5035  0.7492
 3493TIP3   OH234673   0.395   4.641  19.936 -0.5793 -0.0615 -0.0410
 3493TIP3    H134674   0.375   4.733  19.950 -2.3444 -0.1897 -1.3622
 3493TIP3    H234675   0.336   4.594  19.995  0.3761 -0.3644  0.6951
 3494TIP3   OH234676   5.554   2.438  19.115  0.4667 -0.3404  0.0926
 3494TIP3    H134677   5.543   2.511  19.175  0.0938 -0.8956  0.7138
 3494TIP3    H234678   5.472   2.433  19.067  0.3600 -0.5567  0.2930
 3495TIP3   OH234679   5.888   4.273  20.945  0.3543 -0.3353 -0.1376
 3495TIP3    H134680   5.828   4.348  20.947  2.1898  1.2034  1.5790
 3495TIP3    H234681   5.868   4.224  21.025  0.9761 -0.1140  0.1634
 3496TIP3   OH234682   6.248   0.970  17.951  0.3267  0.0443 -0.1120
 3496TIP3    H134683   6.281   0.949  18.039 -1.3645 -0.0034  0.5619
 3496TIP3    H234684   6.153   0.981  17.964  0.3186  2.1402 -1.5405
 3497TIP3   OH234685   3.872   1.098  20.200  0.4369  0.0670  0.1303
 3497TIP3    H134686   3.909   1.026  20.251  2.7290  1.6456  0.8539
 3497TIP3    H234687   3.910   1.088  20.113  0.2750  0.0653  0.0592
 3498TIP3   OH234688   6.281   0.878  18.235  0.0542  0.1294  0.0714
 3498TIP3    H134689   6.362   0.872  18.285 -0.0852 -1.2481  0.1957
 3498TIP3    H234690   6.212   0.879  18.301 -0.0545  0.5682 -0.0471
 3499TIP3   OH234691   0.370   0.302  18.077 -0.4971  0.3948 -0.0260
 3499TIP3    H134692   0.275   0.290  18.074 -0.5851 -1.0725  3.8160
 3499TIP3    H234693   0.382   0.388  18.116 -0.3928 -0.5171  2.0869
 3500TIP3   OH234694   2.907   3.323  20.313  0.3701  0.1826  0.0846
 3500TIP3    H134695   2.881   3.374  20.390 -0.0427 -0.4466  0.3693
 3500TIP3    H234696   2.971   3.260  20.346  0.5264  0.2031 -0.1768
 3501TIP3   OH234697   5.597   0.472  20.572 -0.3576 -0.1247 -0.4839
 3501TIP3    H134698   5.619   0.563  20.594 -0.5807 -0.3287  0.6654
 3501TIP3    H234699   5.503   0.466  20.587 -0.4483 -0.3893 -1.1577
 3502TIP3   OH234700   1.334   5.818  17.970  0.1009 -0.0631  0.5930
 3502TIP3    H134701   1.382   5.755  17.916  0.9409  0.0317  1.2274
 3502TIP3    H234702   1.252   5.832  17.921  0.8745  0.0916 -0.7017
 3503TIP3   OH234703   6.620   6.026  19.400  0.6151  0.5182  0.6875
 3503TIP3    H134704   6.616   6.121  19.384 -0.1674  0.3573 -0.1593
 3503TIP3    H234705   6.653   5.990  19.317 -1.5668 -0.1633  0.0477
 3504TIP3   OH234706   2.953   6.244  19.828  0.2568  0.4493 -0.5334
 3504TIP3    H134707   2.871   6.222  19.783 -0.6392 -0.5316  1.4619
 3504TIP3    H234708   2.969   6.169  19.886  0.8576  2.0140  1.4333
 3505TIP3   OH234709   1.833   3.843  17.885  0.0195 -0.5522 -0.1553
 3505TIP3    H134710   1.837   3.865  17.978  0.4683  1.7265 -0.6669
 3505TIP3    H234711   1.765   3.900  17.849  0.1424 -1.1016 -1.3175
 3506TIP3   OH234712   1.405   2.744  17.471  0.5369 -0.2028  0.0975
 3506TIP3    H134713   1.336   2.809  17.457 -0.0118 -0.7522  0.2168
 3506TIP3    H234714   1.481   2.780  17.425 -0.5098 -0.7337 -2.2174
 3507TIP3   OH234715   0.075   6.393  20.200  0.0061 -0.2104 -0.2076
 3507TIP3    H134716   0.088   6.299  20.212  0.0104 -0.0154  1.6474
 3507TIP3    H234717   0.163   6.429  20.194  0.0293 -0.4832 -3.0902
 3508TIP3   OH234718   0.232   5.594  18.233  0.5041 -0.5559  0.1619
 3508TIP3    H134719   0.298   5.649  18.275  0.0340 -1.2957  1.9541
 3508TIP3    H234720   0.227   5.628  18.143  0.7607  1.8183  0.9657
 3509TIP3   OH234721   6.504   2.113  17.968 -0.3227  0.1267 -0.4321
 3509TIP3    H134722   6.575   2.081  17.913 -0.2292 -0.7128  0.1559
 3509TIP3    H234723   6.545   2.131  18.052 -0.7489 -0.0956 -0.1727
 3510TIP3   OH234724   0.474   2.331  17.808 -0.1007 -0.2015 -0.2844
 3510TIP3    H134725   0.400   2.373  17.764  0.0707  0.3858 -0.0287
 3510TIP3    H234726   0.449   2.330  17.901 -0.5947 -1.7086 -0.4155
 3511TIP3   OH234727   0.557   5.030  19.150  0.5097 -0.0266  0.1876
 3511TIP3    H134728   0.639   5.022  19.199  1.2992  0.5626 -0.9930
 3511TIP3    H234729   0.495   5.067  19.213  1.9866  2.4507  0.2979
 3512TIP3   OH234730   2.683   5.816  20.291  0.3663  0.4048  0.0683
 3512TIP3    H134731   2.605   5.830  20.345  0.4030  0.5825  0.0755
 3512TIP3    H234732   2.650   5.770  20.214  0.3639 -0.1382  0.3868
 3513TIP3   OH234733   4.678   4.477  18.089  0.2249  0.4009 -0.1373
 3513TIP3    H134734   4.660   4.460  18.182 -0.4834  2.0284  0.0635
 3513TIP3    H234735   4.634   4.407  18.043 -1.9978  1.1930  0.6528
 3514TIP3   OH234736   4.861   5.598  17.707 -0.6532  0.9805 -0.1993
 3514TIP3    H134737   4.872   5.693  17.703 -2.6331  1.2844  0.7336
 3514TIP3    H234738   4.767   5.584  17.697 -0.3681 -0.9126 -0.5749
 3515TIP3   OH234739   5.020   4.458  19.781  0.1075 -0.3938 -0.1422
 3515TIP3    H134740   5.021   4.395  19.709 -1.5447 -0.7032  0.0749
 3515TIP3    H234741   4.935   4.503  19.773  0.4190  0.4266  0.8804
 3516TIP3   OH234742   6.234   6.480  19.837 -0.3149 -0.0447  0.1431
 3516TIP3    H134743   6.186   6.557  19.866  0.3383  0.9095 -1.1787
 3516TIP3    H234744   6.308   6.515  19.788  1.0205 -1.4967  1.0227
 3517TIP3   OH234745   0.520   2.050  17.868 -0.1453  0.0436 -0.2395
 3517TIP3    H134746   0.548   2.141  17.860 -0.7871  0.2046 -0.7389
 3517TIP3    H234747   0.446   2.053  17.929  0.6690 -0.3335  0.8070
 3518TIP3   OH234748   4.382   2.584  20.121  0.0432  0.3153 -0.6059
 3518TIP3    H134749   4.382   2.666  20.170  0.5310  2.1137 -3.3511
 3518TIP3    H234750   4.311   2.594  20.058  1.0964 -0.6547 -2.0171
 3519TIP3   OH234751   6.610   5.440  19.748  0.1857 -0.5137 -0.1234
 3519TIP3    H134752   6.667   5.364  19.741  0.2367 -0.3536 -2.3114
 3519TIP3    H234753   6.524   5.404  19.768  0.6219 -0.9423  1.0234
 3520TIP3   OH234754   0.874   0.430  18.082 -0.1655 -0.0361 -0.1997
 3520TIP3    H134755   0.921   0.353  18.053 -1.7802 -0.9527 -0.5185
 3520TIP3    H234756   0.893   0.497  18.016  1.1478 -0.1724  0.0173
 3521TIP3   OH234757   2.124   5.927  20.503 -0.0887  0.3479 -0.5689
 3521TIP3    H134758   2.148   6.019  20.500  0.5858  0.1997 -0.0675
 3521TIP3    H234759   2.205   5.880  20.481 -0.0637 -0.1497  0.5077
 3522TIP3   OH234760   3.359   4.431  18.451  0.9538  0.3931  0.3209
 3522TIP3    H134761   3.352   4.510  18.504 -1.4600  0.9346 -0.6495
 3522TIP3    H234762   3.402   4.459  18.370 -1.3697  1.2294 -0.7285
 3523TIP3   OH234763   4.567   2.694  18.967  0.0894  0.1460  0.0791
 3523TIP3    H134764   4.587   2.788  18.974  1.4028 -0.0880 -0.2930
 3523TIP3    H234765   4.586   2.659  19.055 -1.9916  0.4714  0.7203
 3524TIP3   OH234766   2.378   3.468  19.430 -0.0499 -0.2288  0.2584
 3524TIP3    H134767   2.454   3.475  19.373  0.0432  1.3450  0.5385
 3524TIP3    H234768   2.391   3.536  19.497 -1.5460 -0.1283  0.4839
 3525TIP3   OH234769   0.419   0.957  18.009 -0.3150  0.0920  0.0974
 3525TIP3    H134770   0.417   1.018  17.936  1.5368 -0.7631 -0.7325
 3525TIP3    H234771   0.434   0.871  17.969 -0.0330 -0.5138  1.4328
 3526TIP3   OH234772   6.326   3.563  20.355  0.4429 -0.4423 -0.1058
 3526TIP3    H134773   6.251   3.551  20.297  0.1981  1.4633 -0.2542
 3526TIP3    H234774   6.314   3.649  20.393  2.3250 -0.2624  0.2152
 3527TIP3   OH234775   0.130   2.315  20.184 -0.2425  0.1627 -0.2814
 3527TIP3    H134776   0.078   2.371  20.126 -0.2005  1.0104  0.4816
 3527TIP3    H234777   0.131   2.229  20.140  1.4096  1.2397 -2.5414
 3528TIP3   OH234778   1.886   5.538  20.341  0.1543 -0.3880  0.1595
 3528TIP3    H134779   1.871   5.512  20.432 -2.0447  3.3585  1.0824
 3528TIP3    H234780   1.820   5.490  20.291  0.6720 -1.6599  0.6505
 3529TIP3   OH234781   1.414   0.068  18.829  0.5497  1.2939 -0.3316
 3529TIP3    H134782   1.324   0.038  18.834  0.3175  1.3395 -2.9052
 3529TIP3    H234783   1.448   0.058  18.918 -1.6480  0.2608  0.4530
 3530TIP3   OH234784   4.909   4.229  19.143 -0.2440  0.0433 -0.0776
 3530TIP3    H134785   4.898   4.147  19.191  1.5598 -0.1413  0.1193
 3530TIP3    H234786   4.929   4.294  19.210 -2.0731  0.7732 -0.1917
 3531TIP3   OH234787   0.863   1.606  18.763  0.4145  0.5148 -0.1820
 3531TIP3    H134788   0.847   1.512  18.765  1.0985  0.3938 -0.0089
 3531TIP3    H234789   0.880   1.629  18.854 -0.4426  0.9357 -0.1234
 3532TIP3   OH234790   6.306   4.793  19.092 -0.4161  0.1118 -0.1345
 3532TIP3    H134791   6.325   4.713  19.140  0.6006 -1.1548 -2.4707
 3532TIP3    H234792   6.385   4.808  19.039  0.1881  3.6981  1.4969
 3533TIP3   OH234793   4.930   2.911  20.823  0.0748 -0.0835 -0.0827
 3533TIP3    H134794   4.972   2.984  20.778 -0.7115 -0.6388 -1.7686
 3533TIP3    H234795   5.003   2.857  20.853  0.6522 -0.9141 -2.7509
 3534TIP3   OH234796   5.532   3.676  19.686 -0.2806 -0.2485 -0.1829
 3534TIP3    H134797   5.543   3.716  19.773  3.8397  0.2035 -0.7116
 3534TIP3    H234798   5.553   3.584  19.699 -2.9129 -0.9349 -0.2346
 3535TIP3   OH234799   5.070   0.364  19.421 -0.2404 -0.0494 -0.1010
 3535TIP3    H134800   5.087   0.455  19.444  0.4626 -0.0563 -0.5623
 3535TIP3    H234801   5.039   0.324  19.502 -2.1618  0.9718 -0.2882
 3536TIP3   OH234802   0.031   5.294  20.312  0.0360  0.5284 -0.2951
 3536TIP3    H134803  -0.025   5.363  20.347 -0.7284 -0.1238 -0.1931
 3536TIP3    H234804   0.009   5.217  20.365  2.8465  0.8000  1.4689
 3537TIP3   OH234805   6.215   5.777  18.633  0.4974 -0.2468  0.0443
 3537TIP3    H134806   6.271   5.702  18.610  1.9487  1.0004 -0.6663
 3537TIP3    H234807   6.214   5.778  18.728  1.1772 -0.6634  0.0632
 3538TIP3   OH234808   0.847   3.170  19.878  0.3569 -0.3251 -0.0321
 3538TIP3    H134809   0.921   3.174  19.939  1.0582 -2.2049 -0.7039
 3538TIP3    H234810   0.790   3.102  19.914 -0.6953  0.5590  0.0449
 3539TIP3   OH234811   4.739   4.716  18.293  0.1857 -0.2437 -0.0252
 3539TIP3    H134812   4.649   4.736  18.270  0.5526 -1.5007 -2.8530
 3539TIP3    H234813   4.739   4.623  18.316  0.9961 -0.6756 -1.6558
 3540TIP3   OH234814   3.754   5.148  20.810  0.0447  0.6913 -0.1420
 3540TIP3    H134815   3.841   5.152  20.851 -0.5402 -1.4941  1.5402
 3540TIP3    H234816   3.767   5.181  20.722  2.7414 -0.1792 -0.1546
 3541TIP3   OH234817   3.873   3.401  19.852 -0.6928 -0.5850 -0.2936
 3541TIP3    H134818   3.958   3.358  19.865  0.1104  0.6701 -1.1144
 3541TIP3    H234819   3.856   3.393  19.759 -1.3805 -0.6408 -0.1645
 3542TIP3   OH234820   0.069   3.813  19.839 -0.1063  0.2845  0.4714
 3542TIP3    H134821   0.080   3.718  19.845 -1.8727  0.0838  1.3494
 3542TIP3    H234822  -0.008   3.831  19.893  0.4323  2.2823  0.6520
 3543TIP3   OH234823   1.709   1.081  18.622  0.2501  0.0178 -0.0099
 3543TIP3    H134824   1.651   1.004  18.616 -0.8799  0.8183  0.2378
 3543TIP3    H234825   1.655   1.148  18.664  1.7445  0.4625  1.3002
 3544TIP3   OH234826   5.540   4.158  19.092 -0.0062  0.2026 -0.2923
 3544TIP3    H134827   5.563   4.228  19.030  1.1726  0.2024  0.1112
 3544TIP3    H234828   5.624   4.135  19.133 -0.7957  0.4188  1.5454
 3545TIP3   OH234829   3.335   2.155  20.377 -0.8024 -0.1203 -0.2117
 3545TIP3    H134830   3.409   2.149  20.438 -0.5206 -1.1536 -0.6401
 3545TIP3    H234831   3.316   2.065  20.352  0.0123  0.3112 -2.7437
 3546TIP3   OH234832   4.584   6.498  17.591  0.1526 -0.4249  0.1373
 3546TIP3    H134833   4.664   6.452  17.566 -0.3719 -0.6960 -1.1024
 3546TIP3    H234834   4.605   6.591  17.583  0.5765 -0.4811  0.5865
 3547TIP3   OH234835   5.242   4.461  19.208  0.0070 -0.4422  0.3321
 3547TIP3    H134836   5.232   4.465  19.303  0.4694 -0.9224  0.4066
 3547TIP3    H234837   5.165   4.507  19.173 -0.4026 -0.6708  0.9261
 3548TIP3   OH234838   5.329   3.993  17.635 -0.4054 -0.0169 -0.4353
 3548TIP3    H134839   5.236   4.013  17.627 -0.3447  0.0230 -1.0753
 3548TIP3    H234840   5.358   3.976  17.546 -0.1979 -1.8763 -0.0438
 3549TIP3   OH234841   0.863   2.460  19.240 -0.0688 -0.6136 -0.6419
 3549TIP3    H134842   0.910   2.381  19.268 -1.2043 -0.8720  0.6801
 3549TIP3    H234843   0.831   2.499  19.322  0.7724  1.4499 -1.2294
 3550TIP3   OH234844   2.307   2.936  17.430  0.6217 -0.4636  0.1386
 3550TIP3    H134845   2.282   2.981  17.349  2.9499 -1.6442 -1.3486
 3550TIP3    H234846   2.262   2.852  17.425 -1.2051  0.3781  1.3666
 3551TIP3   OH234847   3.481   4.928  20.110 -0.0058  0.6252 -0.2227
 3551TIP3    H134848   3.557   4.928  20.168  0.6646 -0.9008 -1.0340
 3551TIP3    H234849   3.406   4.919  20.169  0.6533 -0.8146  0.4577
 3552TIP3   OH234850   3.531   0.473  18.050 -0.3938 -0.3696 -0.2023
 3552TIP3    H134851   3.601   0.529  18.016  0.4065 -1.0475  0.2594
 3552TIP3    H234852   3.484   0.443  17.972 -1.2767  1.4544 -0.4186
 3553TIP3   OH234853   4.113   2.695  19.415 -0.5442  0.0764  0.1843
 3553TIP3    H134854   4.171   2.618  19.411 -1.0410 -0.2337 -1.4876
 3553TIP3    H234855   4.170   2.766  19.445  1.0038 -0.0031 -2.2677
 3554TIP3   OH234856   3.581   3.543  18.933  0.5648  0.7575 -0.1417
 3554TIP3    H134857   3.581   3.632  18.898  0.2479  0.8414  0.0721
 3554TIP3    H234858   3.537   3.491  18.867 -2.0679  1.2898  1.0636
 3555TIP3   OH234859   5.742   6.093  19.748  0.3306 -0.3792 -0.1511
 3555TIP3    H134860   5.782   6.008  19.732  1.6892  0.0010  1.0740
 3555TIP3    H234861   5.816   6.153  19.762 -0.6303  0.5212  1.3603
 3556TIP3   OH234862   0.744   1.260  19.395 -0.5976 -0.3690  0.0790
 3556TIP3    H134863   0.768   1.171  19.418  0.6708 -0.0767 -0.0070
 3556TIP3    H234864   0.709   1.254  19.306 -1.4557 -0.9085  0.4490
 3557TIP3   OH234865   6.661   1.993  17.563  0.0135  0.2827 -0.3175
 3557TIP3    H134866   6.707   1.910  17.573 -0.0003  0.3506  0.3436
 3557TIP3    H234867   6.599   1.977  17.492 -0.1877 -0.3650 -0.0086
 3558TIP3   OH234868   3.449   4.257  19.919 -0.2558  0.5412 -0.8136
 3558TIP3    H134869   3.430   4.182  19.863  0.7351 -0.1194 -0.2993
 3558TIP3    H234870   3.465   4.219  20.006  1.9491  1.1459 -0.9000
 3559TIP3   OH234871   2.201   4.937  20.160  0.1661 -0.1763 -0.3752
 3559TIP3    H134872   2.185   4.927  20.066 -0.7964  0.3446 -0.2788
 3559TIP3    H234873   2.178   4.853  20.198 -1.1565  0.1435 -0.4079
 3560TIP3   OH234874   6.483   2.155  20.394  0.3205 -0.1243 -0.0515
 3560TIP3    H134875   6.472   2.157  20.299  0.0042  1.1655 -0.0059
 3560TIP3    H234876   6.409   2.206  20.428  1.7625  1.5376  0.7520
 3561TIP3   OH234877   0.338   5.113  20.126 -0.0503 -0.3887  0.3806
 3561TIP3    H134878   0.248   5.082  20.112 -0.0952  0.2745 -0.9797
 3561TIP3    H234879   0.355   5.096  20.218 -2.6443  2.1150  1.5096
 3562TIP3   OH234880   1.638   0.082  19.027 -0.2912 -0.1709 -0.2777
 3562TIP3    H134881   1.590   0.068  19.109  1.6140  0.2154  0.9533
 3562TIP3    H234882   1.661   0.175  19.029  2.2400 -0.7527  0.1901
 3563TIP3   OH234883   6.212   0.389  19.062  0.4219  0.2228  0.1713
 3563TIP3    H134884   6.254   0.438  19.133  0.8566 -0.2459  0.2481
 3563TIP3    H234885   6.183   0.307  19.104 -0.5823  0.5342  0.1206
 3564TIP3   OH234886   4.397   2.942  17.064  0.2215 -0.3969 -0.0257
 3564TIP3    H134887   4.345   2.917  16.987  0.4221  0.6556 -0.5282
 3564TIP3    H234888   4.393   2.866  17.122 -2.4775 -0.1443  0.2712
 3565TIP3   OH234889   6.362   5.673  20.475  0.1265 -0.2695  0.1842
 3565TIP3    H134890   6.278   5.664  20.520 -0.2892  0.9728 -0.2941
 3565TIP3    H234891   6.345   5.644  20.386  0.3827 -0.6324  0.2486
 3566TIP3   OH234892   3.000   3.774  19.336 -0.6398 -0.1140 -0.1309
 3566TIP3    H134893   3.072   3.829  19.365 -1.0100  1.0654 -1.3168
 3566TIP3    H234894   2.968   3.817  19.257 -2.0429 -1.1207 -0.1494
 3567TIP3   OH234895   1.463   0.881  20.090  0.4142  0.3391  0.1776
 3567TIP3    H134896   1.485   0.964  20.132  1.0994  0.7796 -0.9953
 3567TIP3    H234897   1.436   0.824  20.162 -0.3152  1.6434  0.9901
 3568TIP3   OH234898   4.630   6.699  18.068  0.1090 -0.1789 -0.8866
 3568TIP3    H134899   4.703   6.749  18.104  0.5620  0.0962 -2.1582
 3568TIP3    H234900   4.595   6.651  18.143  1.4718 -0.1801 -0.2282
 3569TIP3   OH234901   4.285   5.424  18.186 -0.0928 -0.4904  0.1657
 3569TIP3    H134902   4.293   5.467  18.271 -0.2609 -0.3461  0.1102
 3569TIP3    H234903   4.375   5.412  18.156 -0.0524  0.1483  0.0160
 3570TIP3   OH234904   0.944   6.365  20.922 -0.0995 -0.5727  0.4066
 3570TIP3    H134905   1.030   6.407  20.918  0.1153 -0.9010  1.2301
 3570TIP3    H234906   0.883   6.436  20.940 -0.1819 -0.1478 -1.4259
 3571TIP3   OH234907   0.421   0.743  17.030  0.6653  0.8114 -0.1295
 3571TIP3    H134908   0.331   0.755  17.059  0.5625 -1.3685  0.6420
 3571TIP3    H234909   0.414   0.685  16.954  1.3908  0.8944 -0.2699
 3572TIP3   OH234910   2.277   5.907  17.883 -0.0508  0.0191  0.5526
 3572TIP3    H134911   2.208   5.973  17.890  0.9280  0.9972  1.2908
 3572TIP3    H234912   2.330   5.919  17.962  0.6726 -1.0561  0.2551
 3573TIP3   OH234913   4.450   0.124  17.917  0.4102  0.3009  0.0017
 3573TIP3    H134914   4.538   0.101  17.948 -0.0735 -2.0703 -0.1541
 3573TIP3    H234915   4.464   0.194  17.854  2.0718  0.6992  0.7661
 3574TIP3   OH234916   6.061   0.167  20.162 -0.4445  0.1437 -0.0122
 3574TIP3    H134917   6.049   0.194  20.253  2.4485 -1.6508  1.0356
 3574TIP3    H234918   6.114   0.236  20.124  0.1078 -0.0886  0.3134
 3575TIP3   OH234919   2.545   6.509  19.471  0.0242 -0.5495 -0.1333
 3575TIP3    H134920   2.555   6.565  19.548  0.1549 -1.2744  0.3910
 3575TIP3    H234921   2.536   6.420  19.507  0.1048 -0.9017 -0.9549
 3576TIP3   OH234922   1.676   2.835  19.969 -0.3023 -0.0671 -0.1681
 3576TIP3    H134923   1.707   2.819  19.880  0.6880  0.2487  0.1121
 3576TIP3    H234924   1.582   2.850  19.960 -0.2560 -0.3352 -1.1196
 3577TIP3   OH234925   4.610   6.056  18.402 -0.5234  0.0641  0.1219
 3577TIP3    H134926   4.531   6.030  18.451 -1.0455  0.4076 -0.5256
 3577TIP3    H234927   4.682   6.012  18.448 -1.1529 -0.7308  0.3766
 3578TIP3   OH234928   6.549   5.969  19.044 -0.4264 -0.3229 -0.6750
 3578TIP3    H134929   6.477   5.911  19.068  1.1106 -2.2176 -0.4431
 3578TIP3    H234930   6.625   5.934  19.091  0.5436  2.0179 -0.3759
 3579TIP3   OH234931   6.259   4.016  19.288 -0.1269  0.2897  0.1951
 3579TIP3    H134932   6.329   4.021  19.223 -0.8858  0.2894 -0.6626
 3579TIP3    H234933   6.182   3.988  19.237 -0.6638 -0.0460  1.1664
 3580TIP3   OH234934   3.842   3.247  18.518  0.5810  0.5770  0.1900
 3580TIP3    H134935   3.899   3.315  18.553 -0.1032  0.7395  1.0240
 3580TIP3    H234936   3.850   3.174  18.579 -0.4614  0.7856  0.6084
 3581TIP3   OH234937   4.817   4.322  20.447  0.4613 -0.9648 -0.2143
 3581TIP3    H134938   4.773   4.403  20.474  0.5347 -0.8684 -0.3844
 3581TIP3    H234939   4.789   4.258  20.512 -0.3071 -1.0218 -0.5858
 3582TIP3   OH234940   6.058   4.111  18.872  0.1939  0.4327  0.5319
 3582TIP3    H134941   6.078   4.176  18.940  2.9364  0.2192  0.0671
 3582TIP3    H234942   6.140   4.103  18.822 -1.1395 -0.8108 -1.6356
 3583TIP3   OH234943   1.999   2.693  18.890  0.4655  0.5162  0.5960
 3583TIP3    H134944   1.938   2.636  18.844  1.8066 -0.7828  0.3776
 3583TIP3    H234945   1.963   2.781  18.877 -0.5623 -0.0610 -0.7670
 3584TIP3   OH234946   4.859   2.217  19.293 -0.0895 -0.2212 -0.1437
 3584TIP3    H134947   4.808   2.223  19.212  0.1639  0.3298 -0.2702
 3584TIP3    H234948   4.842   2.129  19.325  0.2855 -0.6655 -1.1152
 3585TIP3   OH234949   1.830   4.722  20.288 -0.4214 -0.0660 -0.0977
 3585TIP3    H134950   1.837   4.712  20.193  0.1344  0.2029 -0.0884
 3585TIP3    H234951   1.895   4.660  20.323  0.7089  1.1707  0.0504
 3586TIP3   OH234952   6.582   2.455  19.524  0.3621 -0.4016  0.4536
 3586TIP3    H134953   6.515   2.421  19.584 -0.1904  0.4880  0.3529
 3586TIP3    H234954   6.538   2.524  19.476  1.2990  0.0398  0.2127
 3587TIP3   OH234955   0.086   1.788  17.965  0.0118 -0.2300 -0.4903
 3587TIP3    H134956  -0.001   1.767  17.998 -0.0289 -1.4775 -1.3291
 3587TIP3    H234957   0.144   1.729  18.013  0.1955 -0.5575 -1.1041
 3588TIP3   OH234958   3.792   5.833  18.611  0.2549 -0.3351  0.8064
 3588TIP3    H134959   3.821   5.749  18.646  0.5235 -0.0679  1.2294
 3588TIP3    H234960   3.869   5.869  18.567 -0.4791 -1.4093 -1.5760
 3589TIP3   OH234961   4.228   5.199  20.484 -0.2780  0.4895 -0.1610
 3589TIP3    H134962   4.199   5.251  20.559 -1.4448  0.8806 -0.8614
 3589TIP3    H234963   4.314   5.234  20.463  0.1828  0.2086  1.1401
 3590TIP3   OH234964   1.174   4.292  16.851 -0.2322 -0.3453 -0.4588
 3590TIP3    H134965   1.142   4.214  16.805  1.5328 -1.1460 -0.3800
 3590TIP3    H234966   1.249   4.262  16.902  2.2712  1.8914 -2.5331
 3591TIP3   OH234967   4.347   3.809  17.940  0.1308  0.4977 -0.0279
 3591TIP3    H134968   4.258   3.774  17.938  0.5982 -0.6781 -1.2151
 3591TIP3    H234969   4.369   3.812  18.033 -0.6905 -0.4056  0.2100
 3592TIP3   OH234970   4.522   2.537  19.728 -0.0348  0.6514  0.1504
 3592TIP3    H134971   4.557   2.555  19.640  1.5563 -1.4107  0.2819
 3592TIP3    H234972   4.517   2.623  19.769  2.4115  1.3733 -0.8497
 3593TIP3   OH234973   5.217   6.503  20.853 -0.9197 -0.4175 -0.4356
 3593TIP3    H134974   5.168   6.447  20.793 -1.8048  0.0560 -0.1651
 3593TIP3    H234975   5.198   6.468  20.940  1.5749 -2.0749 -0.4395
 3594TIP3   OH234976   4.351   2.746  18.793 -0.2609 -0.2063  0.1300
 3594TIP3    H134977   4.432   2.730  18.841  1.7168  1.8432 -2.2398
 3594TIP3    H234978   4.360   2.694  18.714 -0.0483  1.8284 -1.2637
 3595TIP3   OH234979   2.019   3.547  20.047  0.1542 -0.0331  0.3239
 3595TIP3    H134980   2.052   3.469  20.002 -0.2885 -0.0533  0.0378
 3595TIP3    H234981   2.077   3.556  20.123  0.0208 -0.8214  0.5299
 3596TIP3   OH234982   3.476   0.638  19.997 -0.0685  0.1383  0.3503
 3596TIP3    H134983   3.441   0.714  19.951 -2.0823 -1.1024 -0.2921
 3596TIP3    H234984   3.468   0.566  19.935  2.7928 -0.4788  0.5407
 3597TIP3   OH234985   0.143   2.512  19.940 -0.2060  0.7326  0.1928
 3597TIP3    H134986   0.079   2.443  19.920 -0.0102  0.2396  1.2311
 3597TIP3    H234987   0.188   2.528  19.857 -0.6118 -0.0203 -0.1771
 3598TIP3   OH234988   6.077   0.502  20.324 -0.2247 -0.0189 -0.1285
 3598TIP3    H134989   6.154   0.459  20.361  0.7794 -0.1823 -2.2501
 3598TIP3    H234990   6.003   0.466  20.373  0.9148 -1.1887  0.7857
 3599TIP3   OH234991   1.721   5.972  17.425  0.2877  0.3262 -0.6524
 3599TIP3    H134992   1.814   5.992  17.415  0.8997 -0.4234  2.4284
 3599TIP3    H234993   1.694   6.022  17.503 -1.1633 -1.4869  0.1012
 3600TIP3   OH234994   6.495   1.059  18.655 -0.2732 -0.1425 -0.4107
 3600TIP3    H134995   6.580   1.090  18.688  0.8322 -0.3473 -2.8366
 3600TIP3    H234996   6.462   1.132  18.602 -0.2982 -1.0317 -1.6702
 3601TIP3   OH234997   2.228   5.648  19.600 -0.4579 -0.5628 -0.0882
 3601TIP3    H134998   2.280   5.631  19.522 -1.3401 -1.1979 -0.5497
 3601TIP3    H234999   2.185   5.565  19.619  0.3765 -0.6650  1.5781
 3602TIP3   OH235000   4.369   5.786  17.950 -0.5887  0.1010 -0.0526
 3602TIP3    H135001   4.357   5.742  17.866 -1.4351 -0.6293  0.4241
 3602TIP3    H235002   4.460   5.768  17.974 -0.0023  1.2390 -1.2964
 3603TIP3   OH235003   2.413   2.295  19.057 -0.1513  0.2777  0.3227
 3603TIP3    H135004   2.425   2.386  19.084 -2.2412  0.2696  1.5900
 3603TIP3    H235005   2.319   2.289  19.038  0.0034 -1.5366 -0.0054
 3604TIP3   OH235006   0.000   3.951  20.467  0.0289  0.5909  0.7920
 3604TIP3    H135007   0.017   3.865  20.428  1.7552  1.9928 -1.8772
 3604TIP3    H235008   0.075   3.966  20.525 -0.7892 -0.0540  2.0691
 3605TIP3   OH235009   5.357   3.257  18.291 -0.4251 -0.3763 -0.1784
 3605TIP3    H135010   5.348   3.165  18.266  0.0914  0.0238 -2.0050
 3605TIP3    H235011   5.423   3.256  18.360 -0.2609 -1.3577 -0.3237
 3606TIP3   OH235012   2.233   0.996  20.075 -0.4456  0.0814  0.2746
 3606TIP3    H135013   2.305   1.007  20.013  0.2001 -2.2912  0.4918
 3606TIP3    H235014   2.211   1.085  20.104  1.0359  1.0068 -1.3000
 3607TIP3   OH235015   5.408   2.008  18.435 -0.2504  0.0758  0.2385
 3607TIP3    H135016   5.456   1.950  18.494 -0.2164 -1.5473 -1.3000
 3607TIP3    H235017   5.474   2.039  18.373 -0.5481  0.6420  0.1951
 3608TIP3   OH235018   6.378   4.766  18.665  0.1224 -0.2559 -0.3646
 3608TIP3    H135019   6.335   4.843  18.704  0.4416 -0.9400  1.4009
 3608TIP3    H235020   6.454   4.802  18.619  0.3671  0.4827  0.5888
 3609TIP3   OH235021   2.001   2.433  19.705  0.4315  0.1781 -0.6638
 3609TIP3    H135022   2.041   2.346  19.711  0.1060  0.0283 -0.6775
 3609TIP3    H235023   1.915   2.417  19.667  0.3325  0.4974 -0.5717
 3610TIP3   OH235024   4.242   1.906  20.369 -0.1878  0.2823 -0.0330
 3610TIP3    H135025   4.186   1.830  20.352 -1.2708  0.7556  1.2476
 3610TIP3    H235026   4.245   1.913  20.464 -1.1357  2.5414 -0.1025
 3611TIP3   OH235027   1.118   0.865  17.392 -0.6988  0.6305  0.2650
 3611TIP3    H135028   1.171   0.786  17.389 -2.9634 -0.9598  0.2042
 3611TIP3    H235029   1.124   0.896  17.482 -3.6423 -2.5135  1.7688
 3612TIP3   OH235030   4.841   5.277  18.748 -0.3617 -0.2223  0.5638
 3612TIP3    H135031   4.832   5.372  18.755  3.5450  0.5722 -1.9073
 3612TIP3    H235032   4.877   5.250  18.833 -0.8018  0.6289  1.0317
 3613TIP3   OH235033   0.393   0.569  18.210 -0.3948 -0.1712 -0.1111
 3613TIP3    H135034   0.325   0.633  18.230  1.0097  1.3494  0.0586
 3613TIP3    H235035   0.445   0.610  18.141  1.2281 -0.5822  0.8105
 3614TIP3   OH235036   5.276   3.949  20.700 -0.1034  0.3268  0.1897
 3614TIP3    H135037   5.334   4.025  20.709 -0.5417  0.9229 -1.4976
 3614TIP3    H235038   5.330   3.874  20.722  1.1373  0.9328 -0.6837
 3615TIP3   OH235039   3.384   1.610  18.782  0.2305  0.7044 -1.1878
 3615TIP3    H135040   3.331   1.689  18.789 -2.0342 -0.8470  3.5918
 3615TIP3    H235041   3.452   1.620  18.848 -0.1581 -1.2976 -0.4072
 3616TIP3   OH235042   5.425   5.555  18.107  0.3520  0.0572 -0.0975
 3616TIP3    H135043   5.484   5.603  18.165  1.0606 -1.8662  0.8618
 3616TIP3    H235044   5.449   5.582  18.019  1.7549  0.3119  0.3506
 3617TIP3   OH235045   5.316   2.784  19.566 -0.1471 -0.6151  0.1311
 3617TIP3    H135046   5.281   2.724  19.500  0.8606 -0.0492 -0.9506
 3617TIP3    H235047   5.345   2.860  19.517 -1.8197  1.0272  1.5150
 3618TIP3   OH235048   4.525   0.909  20.514 -0.1076 -0.0177  0.3938
 3618TIP3    H135049   4.586   0.883  20.583  1.9968  1.1017 -0.9260
 3618TIP3    H235050   4.549   0.853  20.440 -1.4273 -0.2820  0.1498
 3619TIP3   OH235051   0.862   2.959  19.044  0.3814 -0.0589  0.1645
 3619TIP3    H135052   0.826   2.989  18.961 -0.9292 -0.1332  0.6841
 3619TIP3    H235053   0.953   2.988  19.043  0.3573  0.0125 -1.2505
 3620TIP3   OH235054   4.994   2.356  17.947  0.1613  0.6534  0.3431
 3620TIP3    H135055   4.982   2.383  17.856 -0.2295  1.0523  0.5076
 3620TIP3    H235056   4.917   2.391  17.993  0.5887  0.8703  0.9125
 3621TIP3   OH235057   6.422   6.128  19.583  0.7558 -0.1494  0.1968
 3621TIP3    H135058   6.362   6.192  19.544  0.1936 -0.0498  1.2016
 3621TIP3    H235059   6.450   6.073  19.509  0.3357  0.5269 -0.4760
 3622TIP3   OH235060   6.198   4.991  18.757  0.4001 -0.6056 -0.4918
 3622TIP3    H135061   6.150   4.915  18.723  1.7421 -0.8522 -1.9567
 3622TIP3    H235062   6.161   5.065  18.709  0.7904 -0.6681 -0.8947
 3623TIP3   OH235063   2.411   3.576  18.753  0.5991 -0.5843  0.4686
 3623TIP3    H135064   2.485   3.519  18.772  0.3202 -0.4604  2.0184
 3623TIP3    H235065   2.337   3.516  18.738  0.5342 -0.6556  1.0726
 3624TIP3   OH235066   4.963   4.782  19.917 -0.8701  0.0723  0.3227
 3624TIP3    H135067   5.022   4.737  19.977 -1.0616 -1.0747 -0.3059
 3624TIP3    H235068   4.876   4.747  19.938 -0.9530 -0.2817 -0.5386
 3625TIP3   OH235069   1.066   1.357  18.702 -0.7868 -0.1296  0.2153
 3625TIP3    H135070   1.087   1.274  18.744 -0.9985 -0.5127 -0.4082
 3625TIP3    H235071   0.977   1.376  18.731 -1.3439 -0.9394 -0.8589
 3626TIP3   OH235072   2.349   4.948  19.431 -0.5828 -0.8280  0.4247
 3626TIP3    H135073   2.307   4.916  19.351  0.6073 -0.2695 -0.4412
 3626TIP3    H235074   2.379   4.869  19.475 -1.1721 -1.1338  0.2960
 3627TIP3   OH235075   5.548   0.120  18.299  0.0256  0.4327  0.0228
 3627TIP3    H135076   5.466   0.071  18.291  0.6706 -0.8411  0.7443
 3627TIP3    H235077   5.529   0.206  18.262 -1.1396 -0.3819 -1.3610
 3628TIP3   OH235078   1.887   5.003  20.674 -0.8241  0.1459 -0.1186
 3628TIP3    H135079   1.980   5.022  20.687 -0.4370 -0.1036 -2.1165
 3628TIP3    H235080   1.841   5.079  20.709  0.1767  0.6247  0.1862
 3629TIP3   OH235081   1.058   4.028  16.795  0.1947  0.5657  0.0820
 3629TIP3    H135082   0.981   3.978  16.767  0.5807 -0.7453  1.2415
 3629TIP3    H235083   1.081   3.991  16.880  1.2113  1.9670  0.4473
 3630TIP3   OH235084   0.154   3.326  20.057 -0.2006  0.7883 -1.0781
 3630TIP3    H135085   0.180   3.356  20.144 -0.4117 -0.8761 -0.4016
 3630TIP3    H235086   0.082   3.265  20.073 -1.3715  1.7092 -2.5612
 3631TIP3   OH235087   4.474   4.762  20.301 -0.5459 -0.0375 -0.0358
 3631TIP3    H135088   4.489   4.834  20.241  2.1536 -0.4250  0.0777
 3631TIP3    H235089   4.441   4.804  20.381  2.2418  1.3528  0.5120
 3632TIP3   OH235090   2.104   6.431  19.868  0.0824  0.1166 -0.1418
 3632TIP3    H135091   2.162   6.356  19.854  0.8310  0.5022  0.7827
 3632TIP3    H235092   2.086   6.465  19.780 -0.2468 -1.1137 -0.5726
 3633TIP3   OH235093   5.603   2.085  20.825 -0.8655  0.6428  0.1771
 3633TIP3    H135094   5.684   2.058  20.781 -0.4888  0.2153  1.1088
 3633TIP3    H235095   5.621   2.172  20.858 -1.4315  1.3063 -1.1880
 3634TIP3   OH235096   1.212   0.588  20.425 -0.4712 -0.4920  0.2496
 3634TIP3    H135097   1.272   0.660  20.405 -0.6299 -0.6499 -0.8611
 3634TIP3    H235098   1.260   0.510  20.397 -0.7607 -0.7167  0.3776
 3635TIP3   OH235099   2.791   4.271  19.251 -0.6308 -0.2070 -0.2334
 3635TIP3    H135100   2.830   4.347  19.208 -0.4340 -0.2389 -0.1144
 3635TIP3    H235101   2.722   4.242  19.192  0.9862 -1.5388 -1.5660
 3636TIP3   OH235102   5.852   3.952  19.448  0.2140  0.3564 -0.2228
 3636TIP3    H135103   5.903   4.006  19.508 -0.5739  0.4611  0.3747
 3636TIP3    H235104   5.910   3.879  19.426  0.3812  0.0909  1.0081
 3637TIP3   OH235105   0.073   3.618  19.390 -0.5087  0.2253 -0.3085
 3637TIP3    H135106   0.138   3.669  19.438 -1.1678 -0.2138  1.0864
 3637TIP3    H235107   0.014   3.584  19.457 -1.1452 -0.8611 -1.3765
 3638TIP3   OH235108   4.391   2.535  17.985  0.1630  0.2445 -0.2074
 3638TIP3    H135109   4.433   2.489  17.912  0.7396  2.5513 -1.4215
 3638TIP3    H235110   4.302   2.552  17.954 -0.3256 -0.7369  0.5860
 3639TIP3   OH235111   0.426   5.585  19.544 -0.2175 -0.5777 -0.2096
 3639TIP3    H135112   0.472   5.665  19.570  1.7916 -2.2397  1.7293
 3639TIP3    H235113   0.362   5.570  19.613  0.8704 -1.7063  0.6030
 3640TIP3   OH235114   4.088   1.823  19.355  0.2184  0.3114  0.8424
 3640TIP3    H135115   4.042   1.896  19.397  1.9669  0.4496  2.7084
 3640TIP3    H235116   4.100   1.759  19.426  1.6066 -0.3284  0.0668
 3641TIP3   OH235117   1.446   2.431  18.038  0.4113  0.0640 -0.9661
 3641TIP3    H135118   1.358   2.436  18.002 -0.4987 -1.3075  0.8977
 3641TIP3    H235119   1.486   2.515  18.014 -2.2655  1.8623  0.2981
 3642TIP3   OH235120   4.834   0.856  18.166  0.4196  0.5396  0.1006
 3642TIP3    H135121   4.901   0.825  18.105 -0.4772  0.4470 -0.8491
 3642TIP3    H235122   4.825   0.949  18.146 -2.6162 -0.2059 -2.6520
 3643TIP3   OH235123   2.358   2.135  20.527  0.3768 -0.7295  0.3589
 3643TIP3    H135124   2.262   2.133  20.522  0.3490  0.8847 -0.1901
 3643TIP3    H235125   2.377   2.118  20.619 -0.4076 -1.5330  0.3852
 3644TIP3   OH235126   0.886   1.862  19.958 -0.0247  0.4104 -1.1380
 3644TIP3    H135127   0.866   1.940  20.011  1.7644 -1.1368  2.1085
 3644TIP3    H235128   0.802   1.816  19.952 -0.1884  0.2773  1.1328
 3645TIP3   OH235129   4.476   2.677  20.502 -0.1313 -0.0927  0.1293
 3645TIP3    H135130   4.518   2.756  20.534  1.6089 -0.7467 -0.4184
 3645TIP3    H235131   4.411   2.708  20.439  0.6694  0.9078 -0.2263
 3646TIP3   OH235132   4.532   3.968  20.647 -0.6219  0.0677  0.4067
 3646TIP3    H135133   4.587   3.920  20.584 -0.7988  1.6676 -1.0547
 3646TIP3    H235134   4.500   3.901  20.707  0.5595 -1.3535 -0.4789
 3647TIP3   OH235135   4.630   2.827  20.875 -0.2500 -0.7554 -0.8224
 3647TIP3    H135136   4.652   2.735  20.890  0.7341 -0.8520 -2.5570
 3647TIP3    H235137   4.706   2.863  20.829 -0.4690  1.0361  0.1404
 3648TIP3   OH235138   0.645   4.819  18.242  0.1794  0.6354  0.3738
 3648TIP3    H135139   0.733   4.781  18.243 -0.3172 -0.6132 -0.5360
 3648TIP3    H235140   0.657   4.908  18.277  1.8642  0.6417 -0.1029
 3649TIP3   OH235141   6.386   0.688  19.817  0.0998 -0.3695 -0.0541
 3649TIP3    H135142   6.387   0.750  19.744 -1.8199  2.6272  2.2053
 3649TIP3    H235143   6.432   0.733  19.888 -1.7325 -1.2734  1.8366
 3650TIP3   OH235144   2.341   4.230  19.218 -0.1184  0.3634  0.1396
 3650TIP3    H135145   2.356   4.175  19.141  0.6971 -0.3413  0.7733
 3650TIP3    H235146   2.314   4.168  19.286 -4.3561  1.3363 -0.4037
 3651TIP3   OH235147   3.908   1.075  18.789 -0.0136  0.3250 -0.1978
 3651TIP3    H135148   3.974   1.063  18.720 -1.3685 -1.4220 -1.2820
 3651TIP3    H235149   3.882   1.166  18.781  0.4115  0.3629 -1.5151
 3652TIP3   OH235150   5.632   2.068  19.459  0.1327  0.4328  0.4261
 3652TIP3    H135151   5.727   2.075  19.451  0.1691  0.1422  0.5924
 3652TIP3    H235152   5.603   2.034  19.374  0.2811 -0.4231  0.7069
 3653TIP3   OH235153   2.678   2.918  20.713  0.4269 -1.0342  0.1765
 3653TIP3    H135154   2.584   2.919  20.693  0.4667 -2.9603 -0.2699
 3653TIP3    H235155   2.686   2.969  20.793 -0.6771  1.0200 -0.9359
 3654TIP3   OH235156   0.761   4.831  18.840 -0.1558 -0.5284 -0.2162
 3654TIP3    H135157   0.666   4.848  18.840  0.0604  0.9970  1.1936
 3654TIP3    H235158   0.795   4.889  18.908  1.9789 -0.1131 -1.5500
 3655TIP3   OH235159   3.199   0.516  20.361  0.2553  0.3693 -0.2791
 3655TIP3    H135160   3.152   0.561  20.431 -0.8681 -0.8343 -0.2160
 3655TIP3    H235161   3.199   0.423  20.387  0.3946 -0.0124 -1.5469
 3656TIP3   OH235162   5.613   2.421  20.361  0.1269  0.3283 -0.2798
 3656TIP3    H135163   5.640   2.353  20.298 -2.5097 -0.3174 -0.8242
 3656TIP3    H235164   5.540   2.466  20.318  1.6490  3.4812  0.1578
 3657TIP3   OH235165   1.154   5.644  18.702  0.1277 -0.3108  0.3465
 3657TIP3    H135166   1.071   5.596  18.698 -0.8948  1.3556  0.5242
 3657TIP3    H235167   1.181   5.654  18.611 -0.7185  0.4866  0.1626
 3658TIP3   OH235168   0.845   6.141  18.856 -0.0777  0.3910  0.3273
 3658TIP3    H135169   0.898   6.197  18.912  0.3964  0.8000 -0.5230
 3658TIP3    H235170   0.794   6.201  18.801 -1.8413  0.0306  1.4654
 3659TIP3   OH235171   3.157   2.874  18.457 -0.7928  0.2766 -0.0023
 3659TIP3    H135172   3.116   2.942  18.404 -0.7784 -0.0246 -0.4084
 3659TIP3    H235173   3.177   2.804  18.395  0.2649  0.3815  0.1987
 3660TIP3   OH235174   4.002   0.627  19.208  0.3219  0.8015  0.0876
 3660TIP3    H135175   3.982   0.718  19.232 -2.4933  0.2563  0.1017
 3660TIP3    H235176   4.024   0.631  19.115 -0.0501  1.4712  0.0232
 3661TIP3   OH235177   3.355   4.490  19.803  0.2655  0.0681 -0.0907
 3661TIP3    H135178   3.380   4.426  19.870 -0.9530  0.3947  0.7089
 3661TIP3    H235179   3.360   4.441  19.721  1.3631 -0.4649  0.2667
 3662TIP3   OH235180   1.194   2.009  20.078 -0.5070  0.1157  0.0012
 3662TIP3    H135181   1.142   2.060  20.017 -0.4476  0.9059  0.5889
 3662TIP3    H235182   1.281   2.005  20.039 -0.4333  0.7395  0.0913
 3663TIP3   OH235183   4.980   3.906  20.063 -0.1647  0.1312 -0.0192
 3663TIP3    H135184   4.976   4.001  20.072 -0.9819  0.1836 -0.7784
 3663TIP3    H235185   5.071   3.884  20.079  0.7948  1.4235 -2.9642
 3664TIP3   OH235186   0.590   4.284  19.028  0.1868 -0.4788 -0.1289
 3664TIP3    H135187   0.621   4.295  19.118 -1.5987 -0.2367  0.4997
 3664TIP3    H235188   0.604   4.369  18.987  0.0724 -0.2799  0.2382
 3665TIP3   OH235189   2.689   0.650  19.704  0.0004  0.1793 -0.3735
 3665TIP3    H135190   2.656   0.561  19.720 -1.3487  0.8329  0.7917
 3665TIP3    H235191   2.700   0.687  19.792  0.3113  1.2313 -0.8429
 3666TIP3   OH235192   0.635   4.379  20.155 -0.2084 -0.0417  0.3713
 3666TIP3    H135193   0.710   4.435  20.136 -0.6140  0.2327 -0.4695
 3666TIP3    H235194   0.591   4.368  20.071  0.5358 -2.6438  0.2312
 3667TIP3   OH235195   5.834   2.729  19.138 -0.7135 -0.0714  0.4089
 3667TIP3    H135196   5.872   2.746  19.224 -0.6564 -2.3634  0.9014
 3667TIP3    H235197   5.764   2.793  19.130 -0.7171  0.1909  2.1657
 3668TIP3   OH235198   6.300   3.234  19.480  0.3988 -0.0597 -0.0148
 3668TIP3    H135199   6.207   3.254  19.487  0.1531 -0.5417 -1.4931
 3668TIP3    H235200   6.339   3.272  19.559 -0.9605  0.5983  0.3719
 3669TIP3   OH235201   5.630   2.690  18.910  0.3955 -0.4481  0.6355
 3669TIP3    H135202   5.542   2.672  18.878  0.0879  0.1902  1.0783
 3669TIP3    H235203   5.616   2.753  18.981  1.3281  0.9893 -0.4004
 3670TIP3   OH235204   4.561   1.533  19.402 -0.2669 -0.3455 -0.2446
 3670TIP3    H135205   4.550   1.473  19.475  0.0039  0.6282  0.6227
 3670TIP3    H235206   4.622   1.488  19.343  3.0454  0.5627  2.1993
 3671TIP3   OH235207   5.534   6.466  19.604 -0.2384  0.1997  0.1382
 3671TIP3    H135208   5.548   6.384  19.651  0.8507  0.9149  1.1050
 3671TIP3    H235209   5.594   6.528  19.645 -0.7613  1.3899 -0.8318
 3672TIP3   OH235210   5.875   6.577  18.178 -0.3687  0.1865  0.0175
 3672TIP3    H135211   5.835   6.543  18.258 -0.3985  0.1976  0.0075
 3672TIP3    H235212   5.950   6.520  18.162 -0.3287  0.2188  0.0848
 3673TIP3   OH235213   5.092   2.661  18.402  0.8423 -0.3305  0.1550
 3673TIP3    H135214   5.051   2.741  18.369 -0.0218  0.1124  2.1793
 3673TIP3    H235215   5.074   2.661  18.496 -1.2486 -4.0982 -0.0586
 3674TIP3   OH235216   2.706   3.297  20.125 -0.0339  0.6638 -0.4825
 3674TIP3    H135217   2.783   3.303  20.182 -0.2259 -2.7794  0.3596
 3674TIP3    H235218   2.741   3.272  20.040 -0.1638 -0.6444 -0.1665
 3675TIP3   OH235219   0.065   0.572  18.898  0.1897 -0.1505  0.5843
 3675TIP3    H135220   0.112   0.623  18.963  0.1616 -0.7567  1.0877
 3675TIP3    H235221   0.134   0.526  18.849  0.3063  1.3467 -0.7364
 3676TIP3   OH235222   4.711   3.690  19.436  0.5428  0.4508 -0.2352
 3676TIP3    H135223   4.686   3.781  19.453  2.6073  0.8820  1.0034
 3676TIP3    H235224   4.694   3.645  19.519  0.1589 -0.1386 -0.6304
 3677TIP3   OH235225   1.247   2.633  19.216  0.2501  0.0063 -0.1037
 3677TIP3    H135226   1.177   2.690  19.248 -0.5433  0.4379 -2.4048
 3677TIP3    H235227   1.202   2.554  19.187  0.7218  0.1483 -1.2826
 3678TIP3   OH235228   2.385   3.429  20.657 -0.1351  0.3503  0.4552
 3678TIP3    H135229   2.367   3.522  20.644  0.4413  0.4452  0.3210
 3678TIP3    H235230   2.391   3.419  20.752 -1.8099  0.1331  0.5794
 3679TIP3   OH235231   0.221   2.500  18.359 -0.5461  0.8103 -0.4329
 3679TIP3    H135232   0.252   2.568  18.418 -2.1715 -0.9418  2.6931
 3679TIP3    H235233   0.162   2.546  18.298  0.0432  2.4881  0.2124
 3680TIP3   OH235234   2.302   2.514  20.578  0.7985 -0.2522  0.4752
 3680TIP3    H135235   2.343   2.467  20.650 -0.0895 -0.5608  0.7826
 3680TIP3    H235236   2.373   2.527  20.515  2.3977  2.6228  2.6008
 3681TIP3   OH235237   5.956   5.125  20.699  0.0102 -0.4857  0.1004
 3681TIP3    H135238   5.992   5.038  20.679  0.0494 -1.0737  2.4204
 3681TIP3    H235239   5.970   5.135  20.793 -1.7023  1.2523  0.2219
 3682TIP3   OH235240   5.273   0.349  17.732 -0.1837  0.4707 -0.1237
 3682TIP3    H135241   5.292   0.286  17.802 -0.8933  0.0975 -0.2589
 3682TIP3    H235242   5.338   0.331  17.665 -1.3377 -1.2089 -0.8522
 3683TIP3   OH235243   1.697   5.980  18.338  0.1122  0.0217  0.1281
 3683TIP3    H135244   1.695   5.993  18.433 -1.1752 -0.1692  0.1484
 3683TIP3    H235245   1.653   6.058  18.303 -0.3973 -0.4227 -0.2374
 3684TIP3   OH235246   3.533   1.287  19.879 -0.3827 -0.3575  0.2432
 3684TIP3    H135247   3.576   1.267  19.962 -0.0191 -3.0480 -0.4831
 3684TIP3    H235248   3.498   1.202  19.849 -0.9753  0.6245 -2.0861
 3685TIP3   OH235249   3.829   6.190  19.007 -0.2564 -0.0598  0.2213
 3685TIP3    H135250   3.787   6.246  18.941 -1.1537 -0.2943  0.5787
 3685TIP3    H235251   3.823   6.239  19.088 -0.6082 -0.4667  0.4415
 3686TIP3   OH235252   0.250   1.083  20.908  0.3137 -0.0379 -0.2373
 3686TIP3    H135253   0.156   1.076  20.889  0.0031 -1.3546  1.5181
 3686TIP3    H235254   0.273   1.172  20.883 -1.1013 -0.0784 -1.8982
 3687TIP3   OH235255   0.649   0.544  17.456 -0.2810  0.0038 -0.4073
 3687TIP3    H135256   0.693   0.604  17.395  0.5728  1.3421  1.4303
 3687TIP3    H235257   0.669   0.457  17.421  0.3394  0.7037 -1.9145
 3688TIP3   OH235258   0.533   1.776  17.854  0.0359 -0.2119 -0.3442
 3688TIP3    H135259   0.517   1.775  17.759  0.2903 -0.7050 -0.3887
 3688TIP3    H235260   0.549   1.867  17.875  1.5165 -0.2785 -1.0413
 3689TIP3   OH235261   3.458   1.706  20.549  0.4853 -0.0661  0.5214
 3689TIP3    H135262   3.513   1.645  20.598  1.5964  1.5793  1.4468
 3689TIP3    H235263   3.383   1.722  20.607 -0.1396 -1.0209 -0.0060
 3690TIP3   OH235264   1.439   6.156  17.953 -0.4535  0.4102 -0.5102
 3690TIP3    H135265   1.343   6.153  17.954 -0.4476  0.2609 -0.3417
 3690TIP3    H235266   1.464   6.108  17.874 -0.4608 -1.2097  0.4267
 3691TIP3   OH235267   1.908   2.942  20.218 -0.6073  0.7255  0.3134
 3691TIP3    H135268   1.906   2.949  20.122  0.4420 -2.7666 -0.1129
 3691TIP3    H235269   2.001   2.949  20.240 -0.6153 -0.5141  0.8076
 3692TIP3   OH235270   6.174   4.292  20.888  0.2543 -0.6754  0.9098
 3692TIP3    H135271   6.185   4.385  20.907 -0.8684 -0.2125 -0.4989
 3692TIP3    H235272   6.080   4.277  20.895  0.1732 -1.2106 -0.8612
 3693TIP3   OH235273   3.343   5.218  19.090 -0.0486 -0.3859 -0.2277
 3693TIP3    H135274   3.429   5.224  19.049  0.3579 -0.2203  0.6214
 3693TIP3    H235275   3.281   5.224  19.017  0.6447  0.0103 -0.8004
 3694TIP3   OH235276   5.568   3.936  20.536  0.4397 -0.1527 -0.7753
 3694TIP3    H135277   5.638   4.001  20.539 -0.2033  0.6008 -1.8770
 3694TIP3    H235278   5.553   3.920  20.443 -2.7965  1.8570 -0.7518
 3695TIP3   OH235279   0.395   4.902  19.977  0.5803  0.6310  0.0330
 3695TIP3    H135280   0.389   4.956  20.056 -1.6042  0.5115  0.0117
 3695TIP3    H235281   0.387   4.964  19.905 -1.1701  0.4293 -0.0000
 3696TIP3   OH235282   0.390   5.709  18.436  0.3063 -0.5239  0.0576
 3696TIP3    H135283   0.417   5.646  18.502  0.2264  0.6177  1.2185
 3696TIP3    H235284   0.389   5.793  18.482 -0.5503  0.1771 -1.1830
 3697TIP3   OH235285   1.499   2.215  20.098  0.4425 -0.1178 -0.0068
 3697TIP3    H135286   1.565   2.174  20.154 -0.5039 -0.6310  0.7739
 3697TIP3    H235287   1.530   2.197  20.009  0.6660 -1.5492  0.3252
 3698TIP3   OH235288   1.934   3.416  20.398  0.3329  0.0986  0.0834
 3698TIP3    H135289   1.904   3.343  20.452  1.2572 -0.4490 -0.1097
 3698TIP3    H235290   1.986   3.374  20.329 -0.0650  0.8574 -0.6937
 3699TIP3   OH235291   4.529   0.154  20.277  0.4380 -0.3689  0.6109
 3699TIP3    H135292   4.499   0.244  20.290  1.0992  0.1926 -1.4107
 3699TIP3    H235293   4.600   0.143  20.340  1.3132  1.0430 -0.0872
 3700TIP3   OH235294   1.427   1.073  18.391  0.0878  0.4915 -0.3237
 3700TIP3    H135295   1.374   1.030  18.458 -0.7030  0.3439 -1.0255
 3700TIP3    H235296   1.425   1.166  18.414 -1.6239  0.6732 -1.0826
 3701TIP3   OH235297   6.375   3.262  18.875 -0.0692 -0.1557 -0.0614
 3701TIP3    H135298   6.441   3.242  18.942 -1.3706 -0.0986  1.2842
 3701TIP3    H235299   6.294   3.223  18.909 -0.4456 -1.5686 -2.4017
 3702TIP3   OH235300   0.911   1.385  18.424 -0.0850 -0.2350 -0.2958
 3702TIP3    H135301   0.884   1.370  18.333 -0.2478 -0.6514 -0.1790
 3702TIP3    H235302   0.881   1.474  18.443  0.7408  0.1943 -0.9344
 3703TIP3   OH235303   5.894   5.571  19.275  0.2519  0.4661 -0.3333
 3703TIP3    H135304   5.824   5.522  19.318  0.2142  0.9572  0.1832
 3703TIP3    H235305   5.941   5.614  19.346  0.8369  0.4608 -0.7068
 3704TIP3   OH235306   2.041   0.844  20.200 -0.4809 -0.7562 -0.3866
 3704TIP3    H135307   1.994   0.924  20.226  1.8263 -0.0952  2.3099
 3704TIP3    H235308   2.101   0.873  20.132  0.5158 -0.0516  0.7497
 3705TIP3   OH235309   1.582   5.048  20.262  0.0544  0.0251  0.2145
 3705TIP3    H135310   1.653   5.029  20.322 -0.8487  0.3280  1.4269
 3705TIP3    H235311   1.506   5.065  20.319 -1.5571 -2.3547 -1.0233
 3706TIP3   OH235312   5.600   1.802  18.891 -0.4603 -0.4070  0.1107
 3706TIP3    H135313   5.605   1.898  18.892 -1.4134 -0.3510  1.2340
 3706TIP3    H235314   5.692   1.774  18.889 -0.1523  0.5245  0.4278
 3707TIP3   OH235315   1.401   4.815  17.362  0.2958 -0.3225 -0.0460
 3707TIP3    H135316   1.351   4.751  17.311 -0.5262 -0.3224  0.7267
 3707TIP3    H235317   1.470   4.844  17.303 -0.4456 -0.5426 -1.0575
 3708TIP3   OH235318   4.661   4.564  19.196 -0.1296 -0.0790  0.3457
 3708TIP3    H135319   4.629   4.650  19.170 -1.4534 -0.9355 -0.9584
 3708TIP3    H235320   4.622   4.548  19.282  0.8336  0.9635  1.0034
 3709TIP3   OH235321   2.372   0.144  19.895 -0.7457  0.3508 -0.6653
 3709TIP3    H135322   2.338   0.215  19.841 -0.1151 -0.2263 -1.8699
 3709TIP3    H235323   2.467   0.153  19.889 -0.6212 -1.3998 -2.0123
 3710TIP3   OH235324   2.247   0.156  17.552  0.0140  0.0801 -0.4771
 3710TIP3    H135325   2.242   0.063  17.533  1.5217 -0.0593 -0.3151
 3710TIP3    H235326   2.263   0.197  17.468 -1.6919  0.3329 -0.7177
 3711TIP3   OH235327   3.169   4.973  20.138 -0.6507  0.4271  1.0883
 3711TIP3    H135328   3.087   5.004  20.177 -1.0428  0.9501 -0.1164
 3711TIP3    H235329   3.223   5.051  20.129 -0.3029  0.2009  1.2106
 3712TIP3   OH235330   4.637   3.757  17.570 -0.2085  0.0907 -0.2316
 3712TIP3    H135331   4.683   3.798  17.643 -1.1788 -0.4505  0.7140
 3712TIP3    H235332   4.545   3.781  17.583 -0.7718 -2.0561  0.1730
 3713TIP3   OH235333   1.618   1.794  20.352 -0.2522  0.7353 -0.2773
 3713TIP3    H135334   1.523   1.783  20.365 -0.4243 -0.1462 -1.9086
 3713TIP3    H235335   1.629   1.888  20.338 -0.4895  1.2206  2.4151
 3714TIP3   OH235336   0.392   5.917  21.077  0.0638  0.0962 -0.9702
 3714TIP3    H135337   0.341   5.926  20.997 -0.8441  0.5004 -0.3625
 3714TIP3    H235338   0.341   5.857  21.131  0.7355 -0.2759 -0.7375
 3715TIP3   OH235339   3.285   0.035  20.224  0.4407 -0.2500 -0.2873
 3715TIP3    H135340   3.205   0.069  20.184  1.9501  3.0987 -0.8094
 3715TIP3    H235341   3.318  -0.029  20.162  0.0967  1.1554 -1.9828
 3716TIP3   OH235342   0.738   6.557  20.425  0.0844 -0.3531 -0.5594
 3716TIP3    H135343   0.684   6.609  20.366  2.8174 -0.7911 -3.7481
 3716TIP3    H235344   0.783   6.621  20.480  1.2483  0.6129 -2.4984
 3717TIP3   OH235345   0.113   0.989  20.038  0.0811  0.5034  0.0936
 3717TIP3    H135346   0.142   0.903  20.069  1.2073  1.1963  1.0292
 3717TIP3    H235347   0.146   0.994  19.948  1.3929  0.5748  0.5608
 3718TIP3   OH235348   0.490   4.831  19.408 -0.5253 -0.3993  0.6841
 3718TIP3    H135349   0.415   4.828  19.468 -1.1569  0.8655  0.0072
 3718TIP3    H235350   0.562   4.865  19.460 -0.5765 -1.0404  1.1833
 3719TIP3   OH235351   2.855   3.468  19.394  0.2680 -0.2705 -0.4518
 3719TIP3    H135352   2.880   3.515  19.473 -0.8355 -1.9100  0.9363
 3719TIP3    H235353   2.763   3.489  19.382 -0.0338 -1.4255 -0.2571
 3720TIP3   OH235354   3.457   6.210  17.982 -0.0927 -0.2982  0.0540
 3720TIP3    H135355   3.362   6.223  17.975 -0.2556 -0.2231  1.9374
 3720TIP3    H235356   3.495   6.278  17.927 -1.1137 -1.7922 -2.6915
 3721TIP3   OH235357   0.911   5.396  17.149 -0.1681 -0.3043 -0.4815
 3721TIP3    H135358   0.921   5.465  17.083  0.9637  0.3005  0.2911
 3721TIP3    H235359   1.000   5.381  17.181 -0.7429 -0.2604  1.2168
 3722TIP3   OH235360   2.345   5.787  18.738  0.0470 -0.2996  0.4116
 3722TIP3    H135361   2.260   5.782  18.780  0.9129 -1.5666  2.1433
 3722TIP3    H235362   2.406   5.807  18.809  1.4779 -1.7337 -0.3565
 3723TIP3   OH235363   1.508   4.748  18.379 -0.1633  0.2406  0.4670
 3723TIP3    H135364   1.474   4.776  18.463 -1.5238 -1.6717  0.6411
 3723TIP3    H235365   1.431   4.712  18.334  0.8309 -0.1620 -0.9685
 3724TIP3   OH235366   5.182   1.864  18.459 -0.6810  0.2698  0.3360
 3724TIP3    H135367   5.254   1.924  18.439  0.4336 -0.9482  0.5182
 3724TIP3    H235368   5.218   1.805  18.525 -2.0697  0.0041  0.8868
 3725TIP3   OH235369   4.904   2.932  19.477 -0.6043 -0.3529 -0.0921
 3725TIP3    H135370   4.948   2.959  19.397 -0.5573  0.3995  0.1816
 3725TIP3    H235371   4.976   2.915  19.539 -0.6736  0.2975  0.1735
 3726TIP3   OH235372   0.861   3.809  16.801  0.9746  0.2442  0.1963
 3726TIP3    H135373   0.809   3.744  16.754  0.5378  0.5827  0.2064
 3726TIP3    H235374   0.816   3.819  16.885 -0.2595  2.1872 -0.6479
 3727TIP3   OH235375   4.845   5.538  18.663 -0.3387  0.0249  0.0085
 3727TIP3    H135376   4.774   5.531  18.600 -0.8516 -0.6549  0.6431
 3727TIP3    H235377   4.831   5.623  18.706 -0.4724  0.1149 -0.2133
 3728TIP3   OH235378   4.983   0.726  18.359  0.3177 -0.0232  0.4142
 3728TIP3    H135379   4.918   0.677  18.409  1.7350 -2.0357  0.4134
 3728TIP3    H235380   4.932   0.778  18.297 -1.3119 -1.1718  0.7263
 3729TIP3   OH235381   3.336   0.293  19.649 -0.1941  0.8349  0.0022
 3729TIP3    H135382   3.405   0.306  19.583 -1.4511  2.3299 -1.0834
 3729TIP3    H235383   3.298   0.208  19.626  0.4582  0.5747 -0.1527
 3730TIP3   OH235384   2.498   1.058  17.264  0.0493 -0.3782  0.2291
 3730TIP3    H135385   2.526   0.977  17.221  0.6408 -0.7185  1.2031
 3730TIP3    H235386   2.557   1.066  17.339  0.4492  1.3521 -0.2466
 3731TIP3   OH235387   5.503   3.821  19.960 -0.4713 -0.2859 -0.1204
 3731TIP3    H135388   5.521   3.731  19.989  1.1449  0.4400  1.3524
 3731TIP3    H235389   5.590   3.861  19.952 -1.0568  0.6496 -2.6107
 3732TIP3   OH235390   3.291   0.393  19.070 -0.5820 -0.1210 -0.5898
 3732TIP3    H135391   3.336   0.433  18.995  1.0639  0.9326  0.8720
 3732TIP3    H235392   3.204   0.432  19.070  0.0488  1.3580 -0.8536
 3733TIP3   OH235393   3.281   1.213  18.860  0.4039  0.3220  0.6723
 3733TIP3    H135394   3.347   1.265  18.907  0.5816 -0.0858  0.8768
 3733TIP3    H235395   3.330   1.137  18.827  1.0046  1.9231 -2.6286
 3734TIP3   OH235396   4.060   2.329  20.595 -0.1335  0.4828 -0.2236
 3734TIP3    H135397   4.040   2.416  20.559 -1.1843  1.1413  1.7630
 3734TIP3    H235398   4.102   2.347  20.679  0.3212 -0.9533 -0.1123
 3735TIP3   OH235399   0.379   5.323  18.702  0.2688  0.0257 -0.3088
 3735TIP3    H135400   0.438   5.292  18.771  0.0922  0.0398 -0.1524
 3735TIP3    H235401   0.346   5.243  18.662 -1.4129 -0.0340  1.1171
 3736TIP3   OH235402   1.563   2.055  20.481 -0.3081 -0.3579 -0.3293
 3736TIP3    H135403   1.617   2.111  20.425 -0.3035 -1.8182 -1.8468
 3736TIP3    H235404   1.473   2.077  20.456 -0.3571  0.1297  0.2556
 3737TIP3   OH235405   1.751   0.607  18.117  0.4625 -0.0309 -0.0888
 3737TIP3    H135406   1.666   0.636  18.149  0.0477  0.3291 -1.4783
 3737TIP3    H235407   1.769   0.662  18.041  1.2233 -1.1349 -0.7470
 3738TIP3   OH235408   0.946   4.112  18.446 -0.2142 -0.5180 -0.0554
 3738TIP3    H135409   0.993   4.101  18.528  0.1132 -0.8872 -0.2903
 3738TIP3    H235410   0.855   4.088  18.467 -0.1712 -0.4287  0.2413
 3739TIP3   OH235411   0.518   2.686  18.179 -0.0044  0.0857  0.6100
 3739TIP3    H135412   0.434   2.725  18.203  0.7657  2.0330  0.3642
 3739TIP3    H235413   0.583   2.749  18.210  1.3763 -1.3505  0.7518
 3740TIP3   OH235414   2.499   1.250  17.094 -0.6317  0.3951  0.1575
 3740TIP3    H135415   2.584   1.270  17.054 -0.4002  0.3637  0.6379
 3740TIP3    H235416   2.515   1.173  17.149 -1.1570 -0.1286 -0.3962
 3741TIP3   OH235417   5.874   3.332  17.592  0.2251  0.4400 -0.5097
 3741TIP3    H135418   5.804   3.356  17.532  0.3162 -1.5503 -1.4999
 3741TIP3    H235419   5.849   3.245  17.625  0.5477  1.1545  1.8052
 3742TIP3   OH235420   5.004   6.637  18.647  0.4063 -0.1359 -0.6152
 3742TIP3    H135421   5.020   6.618  18.554 -0.4078 -0.2502 -0.7468
 3742TIP3    H235422   4.909   6.650  18.652  0.4978  0.2805  0.1325
 3743TIP3   OH235423   0.317   4.079  20.831 -0.0419  0.2043  0.1545
 3743TIP3    H135424   0.325   4.172  20.810  0.3998  0.9529  3.1318
 3743TIP3    H235425   0.406   4.049  20.846 -0.2545 -0.4151  0.2162
 3744TIP3   OH235426   1.378   1.690  17.725  0.0279 -0.6011 -0.0113
 3744TIP3    H135427   1.343   1.754  17.663  0.3123 -1.4253 -1.0420
 3744TIP3    H235428   1.344   1.606  17.695  0.3370 -1.0398  0.8378
 3745TIP3   OH235429   4.615   0.535  20.590  0.7172 -0.4289  0.0278
 3745TIP3    H135430   4.697   0.516  20.545  1.4256  2.8983 -0.3774
 3745TIP3    H235431   4.642   0.579  20.671 -0.6480  0.3033  0.1181
 3746TIP3   OH235432   6.003   6.671  19.251 -0.0995  0.1779  0.3382
 3746TIP3    H135433   6.002   6.588  19.203 -0.7384  0.2091  0.2929
 3746TIP3    H235434   6.004   6.645  19.343  0.2003  0.1216  0.3203
 3747TIP3   OH235435   6.679   4.835  19.658  0.1881 -0.3819 -0.0277
 3747TIP3    H135436   6.659   4.779  19.733  0.6820 -0.4953  0.0198
 3747TIP3    H235437   6.668   4.924  19.691 -0.6142 -0.4382 -0.1094
 3748TIP3   OH235438   2.972   1.611  18.201  0.5599  0.5852  0.4878
 3748TIP3    H135439   2.991   1.538  18.260  2.3401  0.8580  0.3083
 3748TIP3    H235440   3.056   1.631  18.160 -0.7139 -0.1276 -2.7811
 3749TIP3   OH235441   2.994   1.025  19.606  0.1098  0.1721 -0.1452
 3749TIP3    H135442   2.940   1.099  19.634 -2.5462 -1.6558 -0.0539
 3749TIP3    H235443   2.990   0.963  19.680  0.4301 -0.9889 -1.0726
 3750TIP3   OH235444   1.641   0.692  20.423 -0.2497  0.5557 -0.1010
 3750TIP3    H135445   1.706   0.761  20.427  0.4354 -0.0366 -0.6610
 3750TIP3    H235446   1.631   0.663  20.514 -0.2554  1.1283  0.0803
 3751TIP3   OH235447   5.481   4.827  18.316 -0.1512  0.4903 -0.2476
 3751TIP3    H135448   5.456   4.897  18.377 -2.4249  0.0834 -0.6083
 3751TIP3    H235449   5.523   4.761  18.370  0.1634  1.2436  0.4416
 3752TIP3   OH235450   0.181   3.043  18.250 -0.3797  0.2004  0.2256
 3752TIP3    H135451   0.127   3.050  18.171  0.3766 -0.2523 -0.3507
 3752TIP3    H235452   0.268   3.072  18.222 -0.4764  1.6268  1.3228
 3753TIP3   OH235453   6.026   0.571  17.909 -0.2554 -0.5340 -0.3843
 3753TIP3    H135454   6.040   0.621  17.990 -0.4883  0.1414 -0.7513
 3753TIP3    H235455   5.956   0.619  17.864 -0.7523 -1.4192 -0.5625
 3754TIP3   OH235456   3.078   0.714  17.778  0.4508  0.0126  0.1098
 3754TIP3    H135457   3.066   0.740  17.686  0.5941  0.9064  0.3405
 3754TIP3    H235458   3.171   0.728  17.795  0.5667 -0.7925  0.2116
 3755TIP3   OH235459   3.322   6.465  18.965  0.4589 -0.3021 -0.2235
 3755TIP3    H135460   3.334   6.409  18.889  1.3114 -0.7793  0.2470
 3755TIP3    H235461   3.261   6.417  19.021 -1.1125  0.5844 -1.1054
 3756TIP3   OH235462   4.571   0.827  19.014 -0.4131 -0.1375 -0.1410
 3756TIP3    H135463   4.545   0.822  18.922 -1.0707 -0.3280  0.0551
 3756TIP3    H235464   4.615   0.912  19.022 -0.8079  0.1066 -0.5160
 3757TIP3   OH235465   5.791   4.010  18.934  0.0013  0.0699 -0.1955
 3757TIP3    H135466   5.765   3.986  19.023 -0.8573 -1.6376 -0.8625
 3757TIP3    H235467   5.850   4.084  18.945 -1.4171  0.9811  1.6766
 3758TIP3   OH235468   6.030   3.632  18.444  0.8361  0.3753 -0.1157
 3758TIP3    H135469   5.972   3.676  18.383 -0.5414 -2.0358 -0.6480
 3758TIP3    H235470   5.973   3.577  18.497  2.4290 -0.5690  0.7164
 3759TIP3   OH235471   4.891   2.487  18.473 -0.0904 -0.1378 -0.3709
 3759TIP3    H135472   4.898   2.517  18.564  0.1996  0.4422 -0.5740
 3759TIP3    H235473   4.971   2.521  18.432 -0.2126 -0.4170 -0.8347
 3760TIP3   OH235474   3.224   0.039  19.554 -0.5572  0.1326 -0.2762
 3760TIP3    H135475   3.232  -0.030  19.488 -3.3149  1.0878 -1.7864
 3760TIP3    H235476   3.203  -0.008  19.635 -0.9818 -0.8929 -0.9585
 3761TIP3   OH235477   1.693   0.483  20.269 -0.1579 -0.1546 -0.4746
 3761TIP3    H135478   1.764   0.437  20.315 -1.4038 -0.5359  1.1711
 3761TIP3    H235479   1.709   0.575  20.287 -0.3061 -0.2682  0.2783
 3762TIP3   OH235480   1.092   3.977  17.500  0.0441 -0.3392 -0.3612
 3762TIP3    H135481   1.122   3.908  17.442 -0.8110 -1.4536  0.4864
 3762TIP3    H235482   0.999   3.986  17.482  0.1430  0.6213 -0.4740
 3763TIP3   OH235483   2.730   0.380  19.398  0.5840 -0.4014  0.8287
 3763TIP3    H135484   2.806   0.363  19.343  0.2650 -1.2589  0.6399
 3763TIP3    H235485   2.768   0.407  19.483  1.0882 -0.4578  0.6270
 3764TIP3   OH235486   0.419   4.239  19.658  0.5856  0.2897  0.1678
 3764TIP3    H135487   0.413   4.190  19.740 -0.1021  1.8410  1.0904
 3764TIP3    H235488   0.425   4.172  19.591  0.1202 -1.0547  1.4064
 3765TIP3   OH235489   4.208   5.033  17.496 -0.4143 -0.5711  0.3520
 3765TIP3    H135490   4.296   5.028  17.459 -0.5871 -1.5981  0.0438
 3765TIP3    H235491   4.191   4.944  17.528 -1.6621 -0.5961 -0.3406
 3766TIP3   OH235492   5.937   3.275  20.674  0.2544 -0.0707  0.0272
 3766TIP3    H135493   5.896   3.307  20.755 -0.1712 -1.2284  0.2818
 3766TIP3    H235494   6.030   3.297  20.684  0.1931 -0.1503  0.7958
 3767TIP3   OH235495   5.508   0.528  18.621  0.0156 -0.1871 -0.1081
 3767TIP3    H135496   5.516   0.448  18.673 -0.3434  0.2647  0.6637
 3767TIP3    H235497   5.422   0.522  18.580 -0.1518 -0.0436  0.2196
 3768TIP3   OH235498   1.876   0.934  17.623  0.0663 -0.4082 -0.6754
 3768TIP3    H135499   1.946   0.903  17.680 -0.6162 -0.4026  0.1791
 3768TIP3    H235500   1.892   0.890  17.539  0.0667 -1.7848  0.0243
 3769TIP3   OH235501   2.364   6.663  19.202  0.1989  0.1266  0.1399
 3769TIP3    H135502   2.454   6.667  19.233 -0.0024 -0.3731  0.8255
 3769TIP3    H235503   2.372   6.654  19.107  0.9343 -1.5178  0.3129
 3770TIP3   OH235504   5.492   2.922  20.279  0.3691 -0.2045 -0.2472
 3770TIP3    H135505   5.454   3.001  20.317  1.9620 -0.7133  2.8160
 3770TIP3    H235506   5.451   2.850  20.328  1.5277 -1.0201 -0.4260
 3771TIP3   OH235507   3.263   0.255  20.407 -0.0734  0.6554  0.0780
 3771TIP3    H135508   3.290   0.210  20.327 -0.0234 -1.0228  1.0016
 3771TIP3    H235509   3.229   0.186  20.464 -0.5268  1.8726  1.3479
 3772TIP3   OH235510   5.421   3.638  19.419  0.8645  0.5611 -0.3173
 3772TIP3    H135511   5.333   3.672  19.403  0.9781  0.6838 -0.7008
 3772TIP3    H235512   5.454   3.689  19.493  0.1067 -0.4117  0.7380
 3773TIP3   OH235513   4.385   5.338  19.624 -0.0003  0.1507  0.2301
 3773TIP3    H135514   4.469   5.345  19.669  0.4683 -0.5229 -0.5016
 3773TIP3    H235515   4.327   5.297  19.687  0.5056 -0.3198  0.3923
 3774TIP3   OH235516   0.347   0.532  18.841 -0.2199 -0.4430  0.5684
 3774TIP3    H135517   0.347   0.446  18.883 -0.3687 -1.1652 -0.8295
 3774TIP3    H235518   0.409   0.584  18.892  0.2843 -1.5525  1.1199
 3775TIP3   OH235519   4.399   4.099  19.567 -0.4731 -0.5217  0.0884
 3775TIP3    H135520   4.404   4.004  19.577 -1.4477 -0.3987  2.2724
 3775TIP3    H235521   4.307   4.116  19.546 -0.4041 -0.0221  0.1850
 3776TIP3   OH235522   1.478   2.580  19.864  0.4115  0.4472  0.4354
 3776TIP3    H135523   1.537   2.626  19.803  2.3335 -1.3821  0.7803
 3776TIP3    H235524   1.511   2.604  19.951  0.0015  0.1826  0.6620
 3777TIP3   OH235525   0.592   3.311  19.811  0.1092  0.1664 -0.2475
 3777TIP3    H135526   0.644   3.235  19.783  1.0298  1.1285 -1.2974
 3777TIP3    H235527   0.613   3.322  19.904  1.2795  0.1110 -0.4891
 3778TIP3   OH235528   3.815   1.383  20.561  0.7233  0.5332  0.0716
 3778TIP3    H135529   3.844   1.293  20.546  0.3464  0.3801  0.2531
 3778TIP3    H235530   3.895   1.436  20.554  0.7806  0.3102 -1.0516
 3779TIP3   OH235531   6.303   1.005  18.844  0.1895  0.6534 -0.2367
 3779TIP3    H135532   6.300   0.909  18.844  0.9811  0.6166 -0.7510
 3779TIP3    H235533   6.343   1.027  18.760 -0.1421  1.4457 -0.1935
 3780TIP3   OH235534   3.573   4.384  17.998 -0.4510 -0.3361  0.2959
 3780TIP3    H135535   3.594   4.395  18.091 -1.6533  2.0516  0.3583
 3780TIP3    H235536   3.493   4.331  17.999  0.6349 -2.0580  0.4635
 3781TIP3   OH235537   5.445   4.549  18.534 -0.1680  0.5160  0.3400
 3781TIP3    H135538   5.534   4.582  18.523 -0.1790  0.5486  0.3499
 3781TIP3    H235539   5.453   4.484  18.605 -0.5281  2.0499  1.8532
 3782TIP3   OH235540   4.966   4.691  17.250  0.0321 -0.1846  0.5275
 3782TIP3    H135541   4.982   4.597  17.247  0.3943 -0.1036 -0.8574
 3782TIP3    H235542   4.883   4.703  17.203  0.7135  0.3061 -0.5994
 3783TIP3   OH235543   2.028   1.294  20.662 -0.2249  0.3473  0.6288
 3783TIP3    H135544   1.994   1.295  20.572  1.9900  0.5628 -0.2569
 3783TIP3    H235545   2.107   1.241  20.657  0.0024  0.4737  2.4519
 3784TIP3   OH235546   5.321   0.925  20.333 -0.0437  0.3637  0.0937
 3784TIP3    H135547   5.317   0.922  20.238 -1.0492 -1.4968  0.1580
 3784TIP3    H235548   5.412   0.951  20.352  0.3466  0.1368 -1.3415
 3785TIP3   OH235549   5.376   1.137  18.892  0.0504  0.1005  0.4736
 3785TIP3    H135550   5.453   1.125  18.948 -0.3868 -0.4800  0.9589
 3785TIP3    H235551   5.349   1.048  18.869  1.7523  0.2809 -2.8353
 3786TIP3   OH235552   6.130   0.567  18.430 -0.3851  0.4518  0.2534
 3786TIP3    H135553   6.109   0.505  18.360 -0.0122  0.0242  0.5114
 3786TIP3    H235554   6.108   0.520  18.511  0.6753  0.3328  0.4889
 3787TIP3   OH235555   0.529   6.047  18.413  0.0441  0.5990 -0.2773
 3787TIP3    H135556   0.490   6.134  18.424 -2.2164 -0.4451  0.4163
 3787TIP3    H235557   0.551   6.042  18.320 -1.1590  1.3821 -0.6246
 3788TIP3   OH235558   5.546   2.927  19.941  0.3343 -0.1428  0.1738
 3788TIP3    H135559   5.455   2.897  19.946  0.1645  0.1081 -1.0230
 3788TIP3    H235560   5.541   3.013  19.899  0.9869  0.6852  1.7079
 3789TIP3   OH235561   0.771   4.389  18.241  0.1229 -0.1860 -0.2116
 3789TIP3    H135562   0.767   4.386  18.337 -0.6816  0.1925 -0.2189
 3789TIP3    H235563   0.688   4.350  18.214 -0.5725  1.5719 -0.7068
 3790TIP3   OH235564   4.043   5.686  20.724 -0.0879 -0.2322 -0.0598
 3790TIP3    H135565   3.997   5.755  20.772  2.0730  0.2294  1.5090
 3790TIP3    H235566   4.049   5.719  20.634 -0.9644  0.6223  0.1840
 3791TIP3   OH235567   4.767   4.884  19.387  0.4637 -0.4433 -1.3015
 3791TIP3    H135568   4.712   4.878  19.309 -1.0162 -2.5303 -0.1888
 3791TIP3    H235569   4.715   4.935  19.449  0.4546 -1.0648 -0.7868
 3792TIP3   OH235570   4.604   4.469  18.359 -0.6197 -0.2488 -0.1202
 3792TIP3    H135571   4.547   4.533  18.402 -2.0777 -1.3416 -0.3670
 3792TIP3    H235572   4.652   4.427  18.430 -0.5170  0.3057  0.1395
 3793TIP3   OH235573   0.226   6.640  18.426 -0.0980 -0.2504  0.9106
 3793TIP3    H135574   0.270   6.622  18.344 -0.0012 -2.2155  1.3478
 3793TIP3    H235575   0.295   6.676  18.483  0.1446 -0.1341  0.5451
 3794TIP3   OH235576   5.078   6.278  17.339 -0.0170 -0.2356 -0.3209
 3794TIP3    H135577   5.123   6.234  17.411  0.8515 -0.9310 -1.2501
 3794TIP3    H235578   5.004   6.222  17.319 -0.0707 -0.2136 -0.1853
 3795TIP3   OH235579   3.529   6.315  17.653 -0.6605  0.2016 -0.4137
 3795TIP3    H135580   3.439   6.295  17.625 -0.5442 -0.3926 -0.3862
 3795TIP3    H235581   3.558   6.384  17.594 -1.8666  1.9373  0.9011
 3796TIP3   OH235582   3.542   0.289  18.570  0.6650 -0.2552 -0.5407
 3796TIP3    H135583   3.524   0.195  18.580 -2.1549  0.2237 -0.2137
 3796TIP3    H235584   3.544   0.303  18.476 -1.3499 -0.3181 -0.6367
 3797TIP3   OH235585   1.650   1.135  20.780 -0.3394  0.2814  0.6138
 3797TIP3    H135586   1.602   1.218  20.779  0.7801  0.9912  2.0418
 3797TIP3    H235587   1.597   1.078  20.836 -0.9566  0.1264 -0.1225
 3798TIP3   OH235588   0.282   5.708  17.989  0.4319  0.0304  0.0641
 3798TIP3    H135589   0.356   5.767  17.980  0.7047 -0.4596 -1.1538
 3798TIP3    H235590   0.315   5.623  17.958 -0.2791 -0.4950  0.6852
 3799TIP3   OH235591   6.286   4.611  20.633  0.0363  0.1797 -0.0046
 3799TIP3    H135592   6.310   4.536  20.688 -1.8533 -0.7812 -0.4085
 3799TIP3    H235593   6.259   4.571  20.550 -1.5896  1.2434 -0.0252
 3800TIP3   OH235594   5.873   3.909  20.185  0.2396  0.2743  0.4949
 3800TIP3    H135595   5.866   3.825  20.140  0.5965  0.8874 -0.7451
 3800TIP3    H235596   5.935   3.959  20.132 -1.5248  2.0623  0.0266
 3801TIP3   OH235597   1.912   0.511  18.894 -0.1665 -0.5978 -0.0359
 3801TIP3    H135598   1.876   0.584  18.945 -1.6386  0.2429 -2.0908
 3801TIP3    H235599   1.985   0.479  18.946 -2.0014 -0.3511  2.9299
 3802TIP3   OH235600   4.755   6.699  18.706  0.4586  0.8778  0.5368
 3802TIP3    H135601   4.664   6.684  18.679  0.5157  1.7324 -0.1950
 3802TIP3    H235602   4.762   6.658  18.792 -0.1413 -0.7157 -0.1180
 3803TIP3   OH235603   4.499   5.626  20.754  0.0638 -0.5288  0.0377
 3803TIP3    H135604   4.538   5.609  20.668 -0.4083 -0.7635 -0.1366
 3803TIP3    H235605   4.443   5.703  20.739 -0.7066 -1.1005 -0.0888
 3804TIP3   OH235606   3.085   3.170  18.388 -0.2858 -0.5184  0.2192
 3804TIP3    H135607   3.066   3.127  18.305  1.4889  0.0144 -0.5043
 3804TIP3    H235608   3.013   3.232  18.400 -1.3685 -1.6584 -0.1349
 3805TIP3   OH235609   3.039   6.695  20.560 -0.0730  0.0882  0.2441
 3805TIP3    H135610   3.123   6.669  20.521 -0.8388 -0.0210 -1.3900
 3805TIP3    H235611   3.033   6.643  20.640  1.7016  0.5768  0.7437
 3806TIP3   OH235612   6.470   4.962  17.710  0.1799  0.2337 -0.2307
 3806TIP3    H135613   6.516   4.905  17.648  0.6399  0.0399  0.2796
 3806TIP3    H235614   6.523   4.958  17.790 -0.1349  0.8740  0.0155
 3807TIP3   OH235615   0.861   0.047  20.563 -0.4127 -0.0488 -0.5043
 3807TIP3    H135616   0.874   0.123  20.507  0.0212 -0.5284 -1.0751
 3807TIP3    H235617   0.876   0.079  20.652  0.7066  0.3191 -0.8132
 3808TIP3   OH235618   6.416   2.950  20.578 -0.0762 -0.0101  0.1917
 3808TIP3    H135619   6.416   2.861  20.613 -0.9156  0.0335  0.3374
 3808TIP3    H235620   6.335   2.955  20.526  0.2336  0.5006 -0.2525
 3809TIP3   OH235621   0.797   3.599  20.260  0.3568 -0.1975 -0.1427
 3809TIP3    H135622   0.878   3.550  20.271  0.2395 -0.2297  0.6536
 3809TIP3    H235623   0.728   3.532  20.260  0.0472  0.0031  2.5721
 3810TIP3   OH235624   0.241   6.485  19.482  0.0284  0.4811 -1.0386
 3810TIP3    H135625   0.184   6.432  19.426  0.0975 -0.1151 -0.5585
 3810TIP3    H235626   0.330   6.459  19.457  0.0537 -0.8368  0.3015
 3811TIP3   OH235627   2.566   3.437  17.334 -0.2248  0.4027 -0.0310
 3811TIP3    H135628   2.500   3.372  17.308  0.0921  0.2774 -0.5319
 3811TIP3    H235629   2.581   3.489  17.256  1.0181 -0.2179 -0.2283
 3812TIP3   OH235630   5.863   0.911  20.579  0.0314 -0.2076  0.9266
 3812TIP3    H135631   5.892   0.836  20.527  0.5900  0.3966  0.3439
 3812TIP3    H235632   5.771   0.894  20.597  0.1005 -0.9282  0.6116
 3813TIP3   OH235633   3.380   0.618  18.494 -0.5504  0.2382  0.1703
 3813TIP3    H135634   3.391   0.582  18.406  0.4990 -0.4119  0.5344
 3813TIP3    H235635   3.397   0.711  18.485 -1.3992  0.3362 -0.4739
 3814TIP3   OH235636   4.055   6.254  17.996 -0.1578  0.6027  0.1000
 3814TIP3    H135637   4.124   6.196  17.965  0.4106  1.7984 -0.9568
 3814TIP3    H235638   4.012   6.286  17.917 -1.6273  0.2650  0.7244
 3815TIP3   OH235639   1.398   5.827  17.250 -0.1718 -0.0938 -0.0562
 3815TIP3    H135640   1.347   5.822  17.331 -1.8801  0.3368 -1.0476
 3815TIP3    H235641   1.385   5.917  17.220 -0.3795 -0.5346 -1.3190
 3816TIP3   OH235642   6.143   5.342  20.464 -0.1450  0.1531  0.1091
 3816TIP3    H135643   6.123   5.427  20.505 -1.6772 -0.2882  0.3535
 3816TIP3    H235644   6.196   5.365  20.388  1.1176  1.1549  1.2209
 3817TIP3   OH235645   2.538   4.688  20.470 -1.0716 -0.6294  0.0058
 3817TIP3    H135646   2.609   4.713  20.530 -1.4867  2.5939 -0.6810
 3817TIP3    H235647   2.569   4.716  20.384 -3.1959  1.0410 -0.2811
 3818TIP3   OH235648   6.429   3.956  17.554 -0.0545  0.5369  0.0546
 3818TIP3    H135649   6.339   3.923  17.562 -0.0581  0.6085  0.3043
 3818TIP3    H235650   6.454   3.935  17.464 -0.0230 -0.2230  0.2380
 3819TIP3   OH235651   5.635   0.950  20.391 -0.3999 -0.1691  0.3649
 3819TIP3    H135652   5.629   0.858  20.364 -0.3980  0.1463 -0.7483
 3819TIP3    H235653   5.726   0.975  20.372 -0.8367  0.5234 -0.9319
 3820TIP3   OH235654   0.901   5.861  19.398 -0.4888  0.1333 -0.0363
 3820TIP3    H135655   0.841   5.801  19.355 -0.8434  0.6591 -0.2884
 3820TIP3    H235656   0.869   5.867  19.488 -0.6255  0.1675 -0.0872
 3821TIP3   OH235657   5.823   6.004  20.466 -0.2796  0.6412 -0.2464
 3821TIP3    H135658   5.852   6.026  20.377 -0.4557  1.9503  0.0105
 3821TIP3    H235659   5.732   6.031  20.470 -0.0721  1.2817  0.5508
 3822TIP3   OH235660   3.358   2.369  20.720  0.6822  0.1678 -0.0769
 3822TIP3    H135661   3.421   2.303  20.690 -0.1363 -0.0406 -1.4107
 3822TIP3    H235662   3.296   2.319  20.773  0.9603  0.1659  0.2524
 3823TIP3   OH235663   4.007   1.276  17.795 -0.0671  0.3158 -0.4903
 3823TIP3    H135664   3.931   1.328  17.825 -1.2463 -1.9495  0.6988
 3823TIP3    H235665   4.077   1.300  17.857 -1.1563 -0.8610  1.2979
 3824TIP3   OH235666   4.281   2.807  17.821 -0.3256  0.0038  0.5381
 3824TIP3    H135667   4.253   2.779  17.734  1.8904 -0.2546 -0.1674
 3824TIP3    H235668   4.237   2.747  17.881  0.3545 -1.7381 -0.6177
 3825TIP3   OH235669   4.323   0.442  19.059  0.5217  0.2225  0.2427
 3825TIP3    H135670   4.374   0.418  18.981  0.1117  1.3155 -0.3837
 3825TIP3    H235671   4.305   0.535  19.048  0.8935  0.5164  1.9169
 3826TIP3   OH235672   2.467   2.050  17.970  0.0734  0.5149 -0.4044
 3826TIP3    H135673   2.447   2.055  17.876 -1.8153  0.1405 -0.0657
 3826TIP3    H235674   2.477   1.956  17.988 -1.5464  0.4066  0.0991
 3827TIP3   OH235675   2.052   6.075  17.940 -0.0448  0.6609  0.0717
 3827TIP3    H135676   2.006   6.146  17.984  2.3653  1.3799  1.6466
 3827TIP3    H235677   2.037   5.998  17.996 -0.1275  0.6711  0.0627
 3828TIP3   OH235678   0.996   4.859  19.679 -0.1301  0.2889 -0.3395
 3828TIP3    H135679   0.999   4.779  19.627  2.8392 -1.3050  1.9719
 3828TIP3    H235680   0.962   4.832  19.764 -2.7719  2.3974 -0.5776
 3829TIP3   OH235681   3.454   6.511  17.881 -0.4354 -0.5200 -0.4580
 3829TIP3    H135682   3.460   6.473  17.794  0.4225 -1.0793 -0.1660
 3829TIP3    H235683   3.370   6.558  17.881 -1.4624 -2.2283 -0.9150
 3830TIP3   OH235684   0.049   4.746  18.307  0.3920 -0.5490 -0.1754
 3830TIP3    H135685   0.074   4.805  18.236  0.3946  0.6897  0.8237
 3830TIP3    H235686   0.126   4.743  18.364  0.0513 -0.7461  0.2823
 3831TIP3   OH235687   4.462   5.381  18.602  0.3697 -0.0745  0.5680
 3831TIP3    H135688   4.527   5.330  18.651  1.9124  1.0195 -0.2953
 3831TIP3    H235689   4.510   5.422  18.531 -1.4498  0.0363 -0.6880
 3832TIP3   OH235690   2.911   6.519  20.768 -0.4604 -0.0259 -0.2256
 3832TIP3    H135691   2.881   6.438  20.808 -0.0183  0.6824  1.6616
 3832TIP3    H235692   2.849   6.535  20.697 -2.3259 -0.5284  1.1958
 3833TIP3   OH235693   5.571   6.471  19.987  0.5299 -0.3280 -0.4918
 3833TIP3    H135694   5.475   6.465  19.988  0.4771 -0.8117 -2.8515
 3833TIP3    H235695   5.599   6.420  20.062 -1.0395 -0.7085 -0.1256
 3834TIP3   OH235696   4.661   3.583  17.283  0.0796 -0.5684 -0.0060
 3834TIP3    H135697   4.586   3.599  17.226  1.7830  1.9723 -1.7216
 3834TIP3    H235698   4.735   3.574  17.224  1.1514 -3.9470  1.5703
 3835TIP3   OH235699   4.973   3.977  18.703  0.2594  0.3709 -0.1866
 3835TIP3    H135700   4.940   3.967  18.614  1.4392  0.6047 -0.6673
 3835TIP3    H235701   5.060   3.937  18.702  0.5289  0.8846  0.7054
 3836TIP3   OH235702   0.730   1.186  18.519  0.0282  0.1148  0.1518
 3836TIP3    H135703   0.783   1.144  18.451 -0.8491  0.4665 -0.7712
 3836TIP3    H235704   0.755   1.278  18.515 -2.1592  0.7016 -1.8051
 3837TIP3   OH235705   5.342   1.905  19.222 -0.1243  0.3371  0.3936
 3837TIP3    H135706   5.403   1.957  19.170  1.4116  0.6448  2.3502
 3837TIP3    H235707   5.342   1.819  19.181  1.5608  0.3772  0.2369
 3838TIP3   OH235708   2.115   4.432  19.084 -0.5137 -0.3676  0.6196
 3838TIP3    H135709   2.080   4.351  19.121  1.5566 -1.5417  0.1211
 3838TIP3    H235710   2.043   4.467  19.031 -1.3354 -2.0457  0.5671
 3839TIP3   OH235711   0.365   5.045  18.675 -0.0973 -0.3428  0.5396
 3839TIP3    H135712   0.460   5.052  18.667 -0.0626 -0.5515  0.7526
 3839TIP3    H235713   0.348   5.058  18.768 -0.0902 -2.3175  0.8516
 3840TIP3   OH235714   0.987   2.166  17.984  0.8750  0.0763 -0.2996
 3840TIP3    H135715   1.055   2.130  18.041 -0.2543 -1.3300  0.2069
 3840TIP3    H235716   0.945   2.090  17.946  0.5359  0.9645 -1.7751
 3841TIP3   OH235717   3.421   5.048  19.848  0.0159 -0.0128 -0.0703
 3841TIP3    H135718   3.447   4.995  19.923 -1.4365  0.0966  0.5329
 3841TIP3    H235719   3.463   5.133  19.863  0.7429 -0.3664 -0.0413
 3842TIP3   OH235720   5.970   2.464  18.631  0.3544 -0.0803 -0.5169
 3842TIP3    H135721   6.022   2.545  18.636 -1.3135  0.9980  0.1296
 3842TIP3    H235722   5.968   2.443  18.538 -0.4713  1.5089 -0.8814
 3843TIP3   OH235723   5.312   1.613  18.342 -0.0448 -0.4886  0.2319
 3843TIP3    H135724   5.248   1.653  18.283 -0.1859 -1.2231 -0.1232
 3843TIP3    H235725   5.293   1.653  18.427 -0.8540 -0.5438  0.0902
 3844TIP3   OH235726   5.948   6.124  17.920 -0.3465  1.2335 -0.0261
 3844TIP3    H135727   6.021   6.107  17.980 -0.4519 -0.1430 -0.2638
 3844TIP3    H235728   5.979   6.092  17.835 -1.9147 -1.2698  0.2495
 3845TIP3   OH235729   1.473   1.627  20.067  0.5740 -0.1825  0.2159
 3845TIP3    H135730   1.527   1.608  19.990  0.8527  2.6088 -0.3759
 3845TIP3    H235731   1.530   1.609  20.142  1.1131 -0.5962 -0.2861
 3846TIP3   OH235732   6.282   4.039  20.373 -0.2037 -0.0228 -0.0664
 3846TIP3    H135733   6.226   4.045  20.451  0.9297  0.9974  0.6870
 3846TIP3    H235734   6.369   4.022  20.407 -0.1947 -3.0038 -1.2923
 3847TIP3   OH235735   5.667   0.254  19.037 -0.6838 -0.0495  0.5381
 3847TIP3    H135736   5.632   0.220  19.119  0.0237  1.1739  1.3755
 3847TIP3    H235737   5.743   0.198  19.018 -2.5026 -2.2432 -0.9060
 3848TIP3   OH235738   3.198   1.730  19.758 -0.4345  0.1738  0.5296
 3848TIP3    H135739   3.105   1.744  19.739  0.2422  1.6947 -2.1959
 3848TIP3    H235740   3.238   1.713  19.673  1.8419 -0.2076  1.5959
 3849TIP3   OH235741   3.829   6.081  17.777  0.2523 -0.0861 -0.2270
 3849TIP3    H135742   3.864   5.994  17.796 -0.0731  0.2142  2.1329
 3849TIP3    H235743   3.888   6.117  17.711  0.5119 -2.0001 -1.0728
 3850TIP3   OH235744   3.994   1.653  18.335 -0.2251  0.2663  0.0040
 3850TIP3    H135745   4.082   1.617  18.325 -0.2519  0.6054 -1.7002
 3850TIP3    H235746   3.983   1.662  18.430  1.8334  0.8377  0.2424
 3851TIP3   OH235747   3.096   1.118  17.853  0.9773  0.0981 -0.3429
 3851TIP3    H135748   3.031   1.052  17.827 -1.0656  1.9816 -0.2868
 3851TIP3    H235749   3.145   1.076  17.923 -1.7137 -0.6881  1.2260
 3852TIP3   OH235750   6.594   4.181  17.437 -0.2644  0.6626  0.4193
 3852TIP3    H135751   6.641   4.214  17.361  0.3346  0.1054  0.5351
 3852TIP3    H235752   6.571   4.091  17.414  3.4223 -1.0041  2.3046
 3853TIP3   OH235753   0.814   3.405  20.572 -0.5797  0.5348 -0.4557
 3853TIP3    H135754   0.861   3.471  20.623 -1.3285  0.5697  0.1999
 3853TIP3    H235755   0.883   3.345  20.543 -0.1047  0.6211  0.4411
 3854TIP3   OH235756   1.999   1.550  18.006 -0.4054 -0.6748  0.2615
 3854TIP3    H135757   1.974   1.478  18.064 -1.6044  0.5406  1.3267
 3854TIP3    H235758   1.929   1.615  18.017  1.3928  1.3457  0.5560
 3855TIP3   OH235759   0.771   3.624  19.992  0.2302 -0.1103 -0.5505
 3855TIP3    H135760   0.764   3.646  20.085 -2.2859  0.0622 -0.7030
 3855TIP3    H235761   0.759   3.529  19.989 -1.1250  0.0455 -0.7605
 3856TIP3   OH235762   0.970   3.097  19.411  0.5245 -0.1467 -0.0715
 3856TIP3    H135763   1.005   3.170  19.361  0.1046 -0.2668 -0.5478
 3856TIP3    H235764   0.889   3.130  19.450 -0.0602 -0.5587 -0.8890
 3857TIP3   OH235765   2.532   4.343  19.011  0.2336 -0.4219  0.3290
 3857TIP3    H135766   2.476   4.343  19.088  0.3316 -0.7286  0.4058
 3857TIP3    H235767   2.571   4.255  19.010  1.3513  0.0560  0.7390
 3858TIP3   OH235768   0.203   1.359  19.337 -0.0061  0.0566 -0.3461
 3858TIP3    H135769   0.262   1.301  19.290 -0.2379 -0.6752  0.2490
 3858TIP3    H235770   0.157   1.408  19.269 -0.1678 -0.8196 -0.8791
 3859TIP3   OH235771   0.651   1.304  20.215  0.0554  0.1190 -0.8114
 3859TIP3    H135772   0.734   1.259  20.227  0.3234  0.3393 -1.7603
 3859TIP3    H235773   0.673   1.384  20.167 -0.2402  1.8532  1.7373
 3860TIP3   OH235774   6.449   3.309  19.698  0.2084 -0.3239 -0.1274
 3860TIP3    H135775   6.517   3.261  19.746  0.5673  0.0531 -0.2569
 3860TIP3    H235776   6.408   3.364  19.765  0.1312 -0.4446 -0.0768
 3861TIP3   OH235777   4.155   4.157  19.450 -0.0448  0.0549 -0.6587
 3861TIP3    H135778   4.082   4.174  19.509 -0.1789 -1.1417 -0.4625
 3861TIP3    H235779   4.193   4.243  19.434 -0.1648  0.4328  0.9575
 3862TIP3   OH235780   1.521   0.839  18.629  0.4354  0.8501 -0.4608
 3862TIP3    H135781   1.503   0.847  18.723  1.8896  0.2780 -0.1060
 3862TIP3    H235782   1.450   0.785  18.595  0.6383 -0.1177  0.5898
 3863TIP3   OH235783   2.999   5.648  19.890  0.2338  0.0341 -0.4040
 3863TIP3    H135784   2.909   5.616  19.879  0.6761 -1.9782  1.2650
 3863TIP3    H235785   3.041   5.629  19.806 -0.7062  0.3862 -0.9700
 3864TIP3   OH235786   0.306   0.963  18.281  0.3330 -0.2571 -0.1638
 3864TIP3    H135787   0.363   1.007  18.344  0.1046  1.0013 -0.8010
 3864TIP3    H235788   0.348   0.977  18.196 -0.3655 -0.2500 -0.5150
 3865TIP3   OH235789   4.322   6.656  17.733 -0.3045 -0.1991 -0.0085
 3865TIP3    H135790   4.369   6.729  17.774  1.0136 -0.4695 -0.9775
 3865TIP3    H235791   4.287   6.693  17.652 -1.0113 -0.2495  0.2614
 3866TIP3   OH235792   1.000   2.046  17.500  0.1856  0.4469 -0.1859
 3866TIP3    H135793   0.992   2.132  17.540  0.5413 -0.1176  1.1387
 3866TIP3    H235794   1.072   2.056  17.437  1.7836  0.5594  1.5844
 3867TIP3   OH235795   2.485   5.408  20.195 -0.1260 -1.3071  0.0420
 3867TIP3    H135796   2.541   5.331  20.194 -0.6043 -1.7070  1.3608
 3867TIP3    H235797   2.396   5.373  20.193 -0.3440 -0.7978  0.4927
 3868TIP3   OH235798   5.980   0.974  17.989  0.4345 -0.1157 -0.0336
 3868TIP3    H135799   5.909   0.950  17.929  0.5060 -0.6504  0.0914
 3868TIP3    H235800   5.964   1.066  18.010 -1.1110 -0.6109  1.1840
 3869TIP3   OH235801   0.081   1.808  19.017  0.4017 -0.3035 -0.5446
 3869TIP3    H135802   0.074   1.716  19.040  1.1514 -0.5701 -1.3598
 3869TIP3    H235803   0.039   1.816  18.932 -0.3454  0.2584 -0.1369
 3870TIP3   OH235804   1.221   5.702  19.514  0.1226  0.3934 -0.1056
 3870TIP3    H135805   1.190   5.788  19.544  1.2890  1.3141 -1.4171
 3870TIP3    H235806   1.312   5.718  19.487  1.2612 -1.8225  2.0174
 3871TIP3   OH235807   3.184   3.569  19.610 -0.2243 -0.1753  0.4618
 3871TIP3    H135808   3.240   3.498  19.577 -0.5913  0.2981 -1.2522
 3871TIP3    H235809   3.103   3.559  19.561 -0.2393  1.4950  0.1006
 3872TIP3   OH235810   4.625   4.919  18.794 -0.2121 -0.1811 -0.3376
 3872TIP3    H135811   4.537   4.902  18.828 -0.6824  0.2196 -1.3127
 3872TIP3    H235812   4.650   4.838  18.751  0.0178 -0.3899  0.1826
 3873TIP3   OH235813   6.664   5.200  18.746 -0.4283 -0.3424 -0.2022
 3873TIP3    H135814   6.654   5.189  18.652 -2.1972  1.6391 -0.3364
 3873TIP3    H235815   6.575   5.216  18.778  0.0338 -1.5848  1.9224
 3874TIP3   OH235816   6.131   0.468  20.659  0.2559 -0.4426  0.4645
 3874TIP3    H135817   6.215   0.493  20.621  0.1520 -0.4401  0.2387
 3874TIP3    H235818   6.149   0.458  20.752 -0.3546  3.5202  1.1832
 3875TIP3   OH235819   3.034   3.597  18.873 -0.0480  0.0354 -0.0925
 3875TIP3    H135820   2.990   3.561  18.796  2.2489 -0.4002 -1.2859
 3875TIP3    H235821   3.124   3.564  18.868  0.9930  2.3831  1.1404
 3876TIP3   OH235822   3.146   2.885  19.091 -0.0419 -0.3492  0.2362
 3876TIP3    H135823   3.118   2.911  19.004 -0.1381  0.6648  0.5483
 3876TIP3    H235824   3.223   2.829  19.077 -0.3401 -0.5744 -0.5066
 3877TIP3   OH235825   2.826   3.576  18.044 -0.3091 -0.1373  0.6517
 3877TIP3    H135826   2.921   3.586  18.031 -0.4614 -0.4868 -0.9869
 3877TIP3    H235827   2.794   3.545  17.959 -1.8565 -0.3273  1.2802
 3878TIP3   OH235828   5.960   6.115  20.238  0.6060 -0.0560 -0.1445
 3878TIP3    H135829   5.967   6.082  20.148  0.8448 -0.3222 -0.0288
 3878TIP3    H235830   5.963   6.210  20.229 -1.8951  0.0559 -0.6570
 3879TIP3   OH235831   4.017   1.827  20.620  0.2294 -0.3961  0.4835
 3879TIP3    H135832   4.053   1.755  20.672 -2.3388 -0.9594  1.6294
 3879TIP3    H235833   4.028   1.904  20.676  1.1426 -0.2304  0.0997
 3880TIP3   OH235834   2.277   1.810  17.786  0.0890  0.9445  0.5170
 3880TIP3    H135835   2.369   1.819  17.763 -0.2302  0.5110 -1.0755
 3880TIP3    H235836   2.271   1.729  17.836  0.3675  0.1218 -0.7434
 3881TIP3   OH235837   5.169   0.102  18.053  0.1361 -0.3872 -0.2755
 3881TIP3    H135838   5.247   0.081  18.103  0.2694  0.2295 -0.2190
 3881TIP3    H235839   5.202   0.146  17.974 -0.1825  0.4454  0.0453
 3882TIP3   OH235840   5.016   3.670  20.519  0.2579  0.9746  0.1209
 3882TIP3    H135841   4.984   3.705  20.602  0.1709 -0.6403  0.8096
 3882TIP3    H235842   5.004   3.742  20.457 -0.7432  1.8435  1.2558
 3883TIP3   OH235843   0.042   6.436  17.928  0.1351 -0.8785 -0.0603
 3883TIP3    H135844   0.001   6.444  17.842  2.6995  0.1907 -1.2951
 3883TIP3    H235845  -0.009   6.369  17.973 -3.4429  0.8964 -1.0572
 3884TIP3   OH235846   2.884   4.974  19.362  0.6326 -0.4386  0.1859
 3884TIP3    H135847   2.967   5.022  19.358  0.1720  0.3032 -1.1940
 3884TIP3    H235848   2.899   4.906  19.427  1.4113  1.3818  2.0079
 3885TIP3   OH235849   1.825   5.833  19.062 -0.3107  0.6206 -0.5568
 3885TIP3    H135850   1.859   5.894  18.998  1.7449  0.9077  0.7010
 3885TIP3    H235851   1.740   5.869  19.088  0.2579  2.2278 -0.8093
 3886TIP3   OH235852   1.333   2.322  17.348 -0.7487  0.1458 -0.2225
 3886TIP3    H135853   1.284   2.402  17.333  0.6554  0.8120 -1.4771
 3886TIP3    H235854   1.423   2.351  17.361 -0.0428 -1.2682 -1.6769
 3887TIP3   OH235855   6.422   3.672  30.584 -0.1675  0.1571  1.3695
 3887TIP3    H135856   6.448   3.614  30.656 -0.2552  0.1853  1.4235
 3887TIP3    H235857   6.376   3.744  30.626 -1.2247 -0.3944  1.1873
 3888TIP3   OH235858   0.255   2.404  20.701 -0.5303  0.1014  0.2698
 3888TIP3    H135859   0.316   2.455  20.648  0.1828  0.2555  1.2187
 3888TIP3    H235860   0.170   2.418  20.660  0.2530 -1.4221 -2.0785
 3889TIP3   OH235861   6.173   6.618  20.295  0.0448  0.0337  0.0153
 3889TIP3    H135862   6.137   6.697  20.255  0.7259  0.1633 -0.3493
 3889TIP3    H235863   6.262   6.641  20.319 -0.2031 -0.1905  1.2073
 3890TIP3   OH235864   1.999   3.179  17.507  0.6778 -0.2714 -0.2281
 3890TIP3    H135865   1.967   3.097  17.470  0.3474  0.0231 -0.6020
 3890TIP3    H235866   2.003   3.240  17.433 -1.1297  0.6656  0.3799
 3891TIP3   OH235867   3.656   2.356  20.209 -0.0606 -0.3922 -0.4611
 3891TIP3    H135868   3.669   2.291  20.278 -0.2584  0.9542  0.8972
 3891TIP3    H235869   3.740   2.361  20.165  0.8940  0.5531  1.3575
 3892TIP3   OH235870   4.989   4.183  20.066  0.0844 -0.5901  0.1627
 3892TIP3    H135871   4.990   4.180  20.161 -0.6373 -1.6486  0.1481
 3892TIP3    H235872   5.055   4.249  20.044  0.1311 -0.1950  1.3887
 3893TIP3   OH235873   2.939   1.779  19.592 -0.3261 -0.2074  0.5101
 3893TIP3    H135874   2.878   1.767  19.519 -0.3541  2.3415  0.0280
 3893TIP3    H235875   2.932   1.872  19.614  2.8367  0.0125  0.9651
 3894TIP3   OH235876   0.229   4.823  18.525  0.1520  0.0747  0.1056
 3894TIP3    H135877   0.271   4.907  18.542  0.4988 -0.3174  1.2653
 3894TIP3    H235878   0.164   4.814  18.594  0.1170 -0.6176 -0.0086
 3895TIP3   OH235879   2.137   1.098  18.354 -0.4879  0.2649 -0.0253
 3895TIP3    H135880   2.189   1.179  18.353  0.2682 -0.2116  0.1968
 3895TIP3    H235881   2.046   1.128  18.362 -0.1679  1.0745  0.7575
 3896TIP3   OH235882   6.262   2.321  18.300 -0.0033 -0.4036 -0.2956
 3896TIP3    H135883   6.214   2.245  18.333  0.6012 -0.3355  0.8122
 3896TIP3    H235884   6.354   2.299  18.314  0.1527  1.2725  1.8895
 3897TIP3   OH235885   6.447   4.089  18.426 -0.8514 -0.5479  0.2029
 3897TIP3    H135886   6.467   4.045  18.509 -0.4574  1.3571  1.1594
 3897TIP3    H235887   6.465   4.181  18.443 -1.0369 -0.0810 -1.9361
 3898TIP3   OH235888   3.004   4.085  19.168 -0.2236  0.1722  0.6951
 3898TIP3    H135889   3.099   4.073  19.173 -0.1039 -0.2555 -1.4012
 3898TIP3    H235890   2.988   4.169  19.211  0.8474 -0.5312  2.5768
 3899TIP3   OH235891   6.126   6.436  18.158  0.7312 -0.1332  0.3942
 3899TIP3    H135892   6.135   6.351  18.199  0.3691  0.0384  0.8332
 3899TIP3    H235893   6.089   6.417  18.071 -1.3329 -0.2927  1.2449
 3900TIP3   OH235894   5.083   2.573  20.047 -0.3127  0.1009  0.1847
 3900TIP3    H135895   5.013   2.633  20.073  1.2040  1.1258  2.2162
 3900TIP3    H235896   5.071   2.497  20.104  2.0586  1.6714  3.0436
 3901TIP3   OH235897   3.142   5.614  20.118  0.0169  0.2547  0.1075
 3901TIP3    H135898   3.078   5.620  20.048 -1.2657  2.0929  1.3348
 3901TIP3    H235899   3.227   5.630  20.076 -0.6491  0.7220 -1.0868
 3902TIP3   OH235900   1.436   0.684  20.910 -0.0298 -0.3304  0.0925
 3902TIP3    H135901   1.415   0.624  20.838  0.9153 -0.8025  0.1872
 3902TIP3    H235902   1.367   0.670  20.975 -0.9741  0.2050 -0.7727
 3903TIP3   OH235903   3.758   1.417  19.733 -0.0444  0.0175  0.0382
 3903TIP3    H135904   3.747   1.502  19.776 -1.2141 -0.3332  0.4569
 3903TIP3    H235905   3.676   1.371  19.749  0.3215 -0.9450 -0.7574
 3904TIP3   OH235906   3.293   4.958  17.984  0.4542  0.2434 -0.1486
 3904TIP3    H135907   3.345   4.889  18.025  0.6172  0.0591 -0.6570
 3904TIP3    H235908   3.232   4.911  17.927  1.3646  0.5541 -1.4253
 3905TIP3   OH235909   1.047   5.189  17.662  0.0424  0.3585 -0.1344
 3905TIP3    H135910   1.140   5.175  17.650  0.4054  2.5169 -0.2567
 3905TIP3    H235911   1.036   5.197  17.757 -0.2409 -1.0366 -0.0277
 3906TIP3   OH235912   5.780   5.824  19.135 -0.5193  0.0245  0.5120
 3906TIP3    H135913   5.757   5.739  19.098  3.3708  0.8125 -4.9266
 3906TIP3    H235914   5.855   5.807  19.192  0.7444 -0.2393 -1.1716
 3907TIP3   OH235915   3.471   3.582  19.179  0.3564 -0.5912  0.1953
 3907TIP3    H135916   3.526   3.549  19.108  0.9385  0.4127  0.1648
 3907TIP3    H235917   3.407   3.638  19.135  1.7311  1.3930  0.5401
 3908TIP3   OH235918   0.902   0.952  19.380 -0.2557  0.1092  0.1266
 3908TIP3    H135919   0.888   1.025  19.441  1.8086 -0.0538  0.8887
 3908TIP3    H235920   0.835   0.889  19.404 -1.3420  1.2661  0.2405
 3909TIP3   OH235921   6.255   5.315  19.472  0.1383  0.4710 -0.4810
 3909TIP3    H135922   6.268   5.302  19.378 -0.5015  2.0491 -0.8265
 3909TIP3    H235923   6.339   5.293  19.511  0.6363  0.4786 -1.5122
 3910TIP3   OH235924   3.436   0.492  18.865 -0.6105 -0.1909 -0.5694
 3910TIP3    H135925   3.460   0.578  18.898  1.0396 -0.8960  0.2066
 3910TIP3    H235926   3.392   0.509  18.782  2.5562  1.3255 -2.1076
 3911TIP3   OH235927   2.462   5.978  19.501  0.6925 -0.2236 -0.1447
 3911TIP3    H135928   2.506   5.969  19.417 -0.0351 -0.3850 -0.5141
 3911TIP3    H235929   2.387   6.035  19.484 -0.2425 -1.3446  0.0783
 3912TIP3   OH235930   2.331   1.083  18.810 -0.4870  0.2895 -0.4634
 3912TIP3    H135931   2.265   1.045  18.752  0.0953 -2.0084  0.2780
 3912TIP3    H235932   2.308   1.050  18.897  0.4936  1.0913  0.1169
 3913TIP3   OH235933   1.220   6.532  17.434 -0.0141 -0.1512  0.0903
 3913TIP3    H135934   1.249   6.472  17.365  0.1404 -1.1378  0.9835
 3913TIP3    H235935   1.195   6.612  17.388  1.4798 -0.2573 -0.9721
 3914TIP3   OH235936   2.386   0.604  19.197  0.3996  0.3113  0.0306
 3914TIP3    H135937   2.410   0.672  19.261 -0.2848  2.7634 -2.1404
 3914TIP3    H235938   2.296   0.582  19.218 -0.6145  2.7640 -1.2744
 3915TIP3   OH235939   1.145   6.460  17.954 -0.1186  0.8319 -0.1656
 3915TIP3    H135940   1.078   6.479  18.019  3.0692  1.1656  3.3801
 3915TIP3    H235941   1.160   6.366  17.960  0.9112  1.0187  0.4032
 3916TIP3   OH235942   5.873   1.450  20.383 -0.2099 -0.3806  0.2084
 3916TIP3    H135943   5.826   1.433  20.301 -0.5004 -0.1912  0.3304
 3916TIP3    H235944   5.803   1.458  20.448 -0.0360  0.3291  0.3207
 3917TIP3   OH235945   3.522   5.668  17.524 -0.2556 -0.4400 -0.0091
 3917TIP3    H135946   3.553   5.676  17.434  0.4837 -1.5450  0.1282
 3917TIP3    H235947   3.601   5.680  17.577 -1.0005  2.3991  0.6399
 3918TIP3   OH235948   3.496   1.403  17.704 -0.7141  0.3508 -0.0418
 3918TIP3    H135949   3.550   1.351  17.645 -2.4215  0.2027 -1.5532
 3918TIP3    H235950   3.468   1.342  17.772  0.7350  0.3644  0.5953
 3919TIP3   OH235951   4.027   3.950  19.316 -0.3111  0.3848 -0.4610
 3919TIP3    H135952   4.072   3.880  19.269 -1.3626 -1.1592  0.7053
 3919TIP3    H235953   4.094   4.016  19.331  1.2897 -1.2591  0.1150
 3920TIP3   OH235954   1.543   5.528  18.945 -0.0178 -0.4064 -0.3091
 3920TIP3    H135955   1.537   5.611  18.897  1.3302  1.0873  1.9369
 3920TIP3    H235956   1.479   5.537  19.016  1.2307 -0.6030  0.8745
 3921TIP3   OH235957   5.861   1.680  19.285  0.1305  0.5486 -0.0748
 3921TIP3    H135958   5.864   1.667  19.190  1.2844 -2.8930  0.2744
 3921TIP3    H235959   5.767   1.690  19.304 -0.0627  2.0221 -1.5895
 3922TIP3   OH235960   2.146   0.577  19.284  0.2690  0.2392 -0.0496
 3922TIP3    H135961   2.139   0.672  19.289  1.7636  0.3876 -0.3284
 3922TIP3    H235962   2.165   0.549  19.373 -1.2041  0.0691  0.2437
 3923TIP3   OH235963   2.120   5.889  18.984 -0.2978  0.1983  0.2668
 3923TIP3    H135964   2.109   5.795  18.997 -0.0316  0.2114  0.5901
 3923TIP3    H235965   2.050   5.929  19.037 -0.5663  0.1748 -0.0672
 3924TIP3   OH235966   4.573   5.194  18.783 -0.0027 -0.0188  0.0332
 3924TIP3    H135967   4.667   5.209  18.772 -0.1442  0.0455 -1.1855
 3924TIP3    H235968   4.562   5.100  18.769 -0.2047  0.0825 -0.5036
 3925TIP3   OH235969   4.017   3.243  18.955 -0.0001 -0.2027  0.2745
 3925TIP3    H135970   4.084   3.203  18.899  0.7456 -0.6406  1.4532
 3925TIP3    H235971   4.035   3.209  19.042 -1.3492  0.2134  0.7370
 3926TIP3   OH235972   1.734   1.945  19.961  0.5133 -0.0370  0.4283
 3926TIP3    H135973   1.815   1.919  20.005  1.1793  0.2040 -0.6165
 3926TIP3    H235974   1.762   2.011  19.898 -0.5856  0.4287  0.4112
 3927TIP3   OH235975   3.494   2.448  19.143 -0.1432 -0.1840  0.0686
 3927TIP3    H135976   3.529   2.532  19.174  0.2773  0.5233 -2.1654
 3927TIP3    H235977   3.419   2.471  19.089  0.5863 -1.1207 -1.4267
 3928TIP3   OH235978   6.556   0.403  17.599 -0.2024 -0.3310  0.1927
 3928TIP3    H135979   6.466   0.422  17.623 -1.0101 -3.1654 -0.1942
 3928TIP3    H235980   6.562   0.429  17.507 -1.1582 -1.5562 -0.2471
 3929TIP3   OH235981   3.786   6.078  18.268 -0.1844  0.2150  0.0173
 3929TIP3    H135982   3.805   5.985  18.278  0.4713  0.1796 -1.3184
 3929TIP3    H235983   3.871   6.121  18.281 -0.5678  0.6732  1.0694
 3930TIP3   OH235984   5.212   1.972  19.493 -0.0571 -0.6092 -0.6956
 3930TIP3    H135985   5.217   1.930  19.407 -2.2617 -1.0899 -0.6504
 3930TIP3    H235986   5.162   1.911  19.547 -0.5993  0.6627  0.2996
 3931TIP3   OH235987   3.233   3.483  20.199  0.2674  0.2662  0.1851
 3931TIP3    H135988   3.145   3.462  20.169 -0.0638 -0.3821  1.5161
 3931TIP3    H235989   3.288   3.412  20.164  0.0531  0.0242  0.3390
 3932TIP3   OH235990   4.323   6.670  20.416  0.2973  0.3753  0.0162
 3932TIP3    H135991   4.371   6.588  20.415  0.4708  0.4169  2.0774
 3932TIP3    H235992   4.382   6.733  20.374  0.9045 -0.1531  0.0746
 3933TIP3   OH235993   1.242   5.147  19.088 -0.6989 -0.3338  0.0705
 3933TIP3    H135994   1.171   5.169  19.148  0.3221  0.0106  1.1907
 3933TIP3    H235995   1.264   5.057  19.110  0.6293  0.2464  1.2434
 3934TIP3   OH235996   3.033   4.000  17.835 -0.2906 -0.1215 -0.1415
 3934TIP3    H135997   3.020   3.948  17.756  0.8062  1.5040 -1.4419
 3934TIP3    H235998   2.965   4.066  17.832 -0.0817  0.1102  0.1301
 3935TIP3   OH235999   4.849   0.215  18.568  0.2425  0.7262  0.0166
 3935TIP3    H136000   4.821   0.140  18.620  1.2653 -0.1027 -0.5885
 3935TIP3    H236001   4.822   0.291  18.619 -1.9055 -0.0056  0.0762
 3936TIP3   OH236002   1.242   3.394  19.628 -0.3184  0.4789  0.2175
 3936TIP3    H136003   1.261   3.484  19.653  0.8018  0.7937 -1.6294
 3936TIP3    H236004   1.158   3.375  19.669  0.6270  1.4499  2.8008
 3937TIP3   OH236005   6.047   3.511  19.282  0.6913  0.1631 -0.0737
 3937TIP3    H136006   5.956   3.539  19.292 -0.1891 -2.7289  1.4847
 3937TIP3    H236007   6.046   3.452  19.206  1.7378  1.5971 -1.2499
 3938TIP3   OH236008   0.669   3.919  18.047 -0.3516 -0.0392  0.5483
 3938TIP3    H136009   0.690   3.862  18.121  0.6239  1.4734  1.5109
 3938TIP3    H236010   0.746   3.914  17.990 -0.1013  0.5610  0.8207
 3939TIP3   OH236011   2.456   1.167  20.326  0.2124 -0.0281  0.2820
 3939TIP3    H136012   2.460   1.081  20.285  1.2779  0.9413 -1.7750
 3939TIP3    H236013   2.368   1.200  20.305 -0.0317 -0.4079  0.6836
 3940TIP3   OH236014   2.259   3.274  17.512 -0.1517  0.2716 -0.0146
 3940TIP3    H136015   2.190   3.208  17.503  1.3697 -1.4448  0.2037
 3940TIP3    H236016   2.226   3.350  17.464 -2.1029 -0.5394 -0.0462
 3941TIP3   OH236017   4.016   6.572  20.384  0.2950  0.3215 -0.2536
 3941TIP3    H136018   3.988   6.617  20.304  0.1700  0.2582 -0.2452
 3941TIP3    H236019   4.102   6.610  20.404 -0.0981  1.0382  0.1202
 3942TIP3   OH236020   1.713   0.775  18.464 -0.0364  0.1907 -0.1217
 3942TIP3    H136021   1.721   0.680  18.473  0.5071  0.2385 -0.0457
 3942TIP3    H236022   1.646   0.799  18.527  1.0389  0.0498  1.1314
 3943TIP3   OH236023   1.174   6.385  18.917 -0.7886 -0.2124 -0.3084
 3943TIP3    H136024   1.248   6.440  18.943 -0.7399 -1.0132  1.3567
 3943TIP3    H236025   1.143   6.424  18.835  0.3489  1.2134 -0.1008
 3944TIP3   OH236026   1.570   6.245  20.184  0.1379  0.3167  0.3621
 3944TIP3    H136027   1.485   6.281  20.210 -0.1510 -0.1481  0.0742
 3944TIP3    H236028   1.631   6.318  20.193 -0.3164  0.6880  0.4472
 3945TIP3   OH236029   3.715   5.550  18.246  0.0733 -0.0272  0.3015
 3945TIP3    H136030   3.699   5.513  18.332  0.5731 -0.4966  0.1978
 3945TIP3    H236031   3.750   5.478  18.194 -0.0451  0.2934 -0.2448
 3946TIP3   OH236032   1.198   6.102  19.214  0.1415 -0.1344  0.1104
 3946TIP3    H136033   1.277   6.052  19.232 -0.8851 -1.8852 -0.0926
 3946TIP3    H236034   1.189   6.160  19.290 -0.3022 -2.4524  1.9268
 3947TIP3   OH236035   1.687   5.523  18.010 -0.2428  0.0804  0.2606
 3947TIP3    H136036   1.593   5.535  18.001 -0.5002 -0.9228  1.3340
 3947TIP3    H236037   1.700   5.504  18.103  1.0495  0.4640  0.1801
 3948TIP3   OH236038   3.315   3.429  17.633 -0.0410 -0.0843  0.1541
 3948TIP3    H136039   3.329   3.417  17.539 -0.5407 -2.3921  0.3098
 3948TIP3    H236040   3.225   3.461  17.639  0.4757  1.5294 -0.1820
 3949TIP3   OH236041   5.174   6.217  17.842  0.4290 -0.0734 -0.1655
 3949TIP3    H136042   5.193   6.213  17.748  0.7397  0.1435 -0.1114
 3949TIP3    H236043   5.079   6.206  17.847  0.4907 -0.7873 -0.4558
 3950TIP3   OH236044   2.339   6.364  18.311 -0.2263  0.0662  0.2067
 3950TIP3    H136045   2.402   6.414  18.260 -0.6720 -0.5386 -0.9832
 3950TIP3    H236046   2.343   6.402  18.398 -0.5027  2.1016 -0.6239
 3951TIP3   OH236047   2.815   3.158  18.601  0.3466  0.5525  0.1944
 3951TIP3    H136048   2.848   3.165  18.691  0.6612  1.2418  0.0359
 3951TIP3    H236049   2.868   3.090  18.561  1.2416  1.2867  0.0965
 3952TIP3   OH236050   4.914   3.723  18.001  0.2454  0.2628  1.1105
 3952TIP3    H136051   4.834   3.754  17.958 -0.5757 -1.1324  1.5614
 3952TIP3    H236052   4.962   3.802  18.023 -0.6716  1.1001  0.1777
 3953TIP3   OH236053   3.320   3.759  19.077  0.2767  0.1187 -0.4878
 3953TIP3    H136054   3.268   3.835  19.102 -0.1583 -0.0523 -0.8409
 3953TIP3    H236055   3.398   3.795  19.035 -0.8332  0.3825 -2.4455
 3954TIP3   OH236056   2.610   6.268  18.805 -0.6434 -0.0674 -0.3158
 3954TIP3    H136057   2.515   6.270  18.793 -0.5560 -2.3897 -2.0961
 3954TIP3    H236058   2.640   6.197  18.749  2.0685 -0.0609  0.9498
 3955TIP3   OH236059   5.292   4.204  20.481  0.5759 -0.4471 -0.0781
 3955TIP3    H136060   5.385   4.208  20.459  0.4589  0.7587 -0.4245
 3955TIP3    H236061   5.255   4.144  20.416  0.6979  1.0161 -1.5486
 3956TIP3   OH236062   2.749   1.683  19.095 -0.1599  0.4020  0.2921
 3956TIP3    H136063   2.795   1.762  19.067 -0.8644  0.3593 -1.0653
 3956TIP3    H236064   2.708   1.649  19.016 -3.3961  1.0145  1.5439
 3957TIP3   OH236065   3.941   4.929  20.473 -0.4752 -0.0187 -0.2598
 3957TIP3    H136066   3.995   4.856  20.504  0.5719 -0.0605 -2.0884
 3957TIP3    H236067   3.990   4.966  20.400 -2.8324  0.0363 -1.9271
 3958TIP3   OH236068   2.403   2.121  17.698 -0.2130  0.5307 -0.2918
 3958TIP3    H136069   2.440   2.184  17.636  0.1370 -0.8921 -1.5850
 3958TIP3    H236070   2.335   2.170  17.744  0.3578  1.9774 -0.9203
 3959TIP3   OH236071   6.011   6.524  18.602 -0.0782  0.0529  0.1054
 3959TIP3    H136072   5.973   6.526  18.690  0.2995  0.1586  0.2714
 3959TIP3    H236073   5.996   6.435  18.570 -1.5748  0.4289 -0.3354
 3960TIP3   OH236074   4.305   6.461  19.393 -0.1100  0.3770  0.4059
 3960TIP3    H136075   4.227   6.509  19.364 -1.3056 -1.2757  0.7932
 3960TIP3    H236076   4.361   6.529  19.431 -0.1796  2.0277 -2.1575
 3961TIP3   OH236077   1.184   5.388  18.578  0.0780  0.0172 -0.2719
 3961TIP3    H136078   1.135   5.465  18.607  0.8662  0.6936 -0.6924
 3961TIP3    H236079   1.255   5.380  18.641  0.7223  0.3922 -0.9344
 3962TIP3   OH236080   6.254   3.781  18.950  0.1529  0.3774  0.4024
 3962TIP3    H136081   6.214   3.775  18.863 -0.0203 -1.8860  0.5883
 3962TIP3    H236082   6.275   3.691  18.973 -0.6562  0.8079  3.1217
 3963TIP3   OH236083   0.613   2.729  19.149  0.1284  0.3542  0.5770
 3963TIP3    H136084   0.623   2.700  19.240 -0.8089 -0.3753  0.4664
 3963TIP3    H236085   0.700   2.714  19.110  0.3515  0.0325  1.1750
 3964TIP3   OH236086   4.635   2.922  17.544 -0.4955  0.0459  0.7339
 3964TIP3    H136087   4.565   2.857  17.539 -1.2494  0.8782  0.2319
 3964TIP3    H236088   4.704   2.886  17.489  0.8567 -2.3376  3.6818
 3965TIP3   OH236089   0.971   2.838  20.663  0.1423 -0.1161 -0.3467
 3965TIP3    H136090   0.925   2.801  20.588 -0.6469  1.0227 -0.4618
 3965TIP3    H236091   0.929   2.799  20.740  2.0552 -2.5809 -0.4356
 3966TIP3   OH236092   4.454   2.764  19.303 -0.0367 -0.0375 -0.3023
 3966TIP3    H136093   4.483   2.851  19.275 -1.8714  0.4967 -0.6855
 3966TIP3    H236094   4.365   2.757  19.268  0.4850 -2.5535 -1.3141
 3967TIP3   OH236095   1.481   2.305  19.137  0.0339  0.2196  0.5263
 3967TIP3    H136096   1.394   2.281  19.168 -0.2483  1.1037  0.4490
 3967TIP3    H236097   1.533   2.316  19.216 -0.2888  0.9964  0.6429
 3968TIP3   OH236098   1.312   0.220  17.549  0.0961 -0.7353  0.0542
 3968TIP3    H136099   1.337   0.172  17.470  0.9792  0.5966 -0.5152
 3968TIP3    H236100   1.343   0.309  17.534 -2.2769  0.2644  0.6999
 3969TIP3   OH236101   5.363   4.612  20.614 -0.0650 -0.0917  0.0726
 3969TIP3    H136102   5.297   4.543  20.615 -1.1168  0.8236 -1.8133
 3969TIP3    H236103   5.323   4.684  20.663 -0.1538  0.1773 -0.3885
 3970TIP3   OH236104   0.871   4.896  20.609  0.3124 -0.3129  0.0755
 3970TIP3    H136105   0.826   4.914  20.527 -0.4129 -0.2133  0.4910
 3970TIP3    H236106   0.934   4.827  20.587  0.9942  0.5727 -0.8397
 3971TIP3   OH236107   0.199   0.954  19.751  0.3544 -0.2671  0.3067
 3971TIP3    H136108   0.126   0.900  19.719 -0.5930  0.2535  1.4830
 3971TIP3    H236109   0.221   1.009  19.676 -0.6117 -0.2899 -0.0225
 3972TIP3   OH236110   2.652   0.909  19.117  0.4713 -0.2078  0.3233
 3972TIP3    H136111   2.616   0.904  19.028 -2.9518 -0.3835  1.6001
 3972TIP3    H236112   2.664   0.818  19.143  0.8288 -0.1657  0.3190
 3973TIP3   OH236113   1.198   0.112  20.647  0.3568 -0.2852  0.0261
 3973TIP3    H136114   1.231   0.026  20.673 -0.5039 -1.1105 -1.4565
 3973TIP3    H236115   1.118   0.123  20.698  0.6074 -0.2351  0.4147
 3974TIP3   OH236116   3.264   1.923  20.075 -0.3720  0.6979 -0.1628
 3974TIP3    H136117   3.289   1.966  19.993  0.0281  1.9411  0.5778
 3974TIP3    H236118   3.348   1.901  20.116 -0.5553  0.6347  0.1809
 3975TIP3   OH236119   3.945   1.614  18.027  0.4028 -0.3573 -0.1325
 3975TIP3    H136120   3.962   1.616  18.121  1.3673 -3.4156 -0.1383
 3975TIP3    H236121   4.029   1.590  17.988 -0.4748 -1.2388 -1.5611
 3976TIP3   OH236122   2.529   3.095  16.819 -0.4624 -0.1458 -0.1959
 3976TIP3    H136123   2.487   3.140  16.745  2.4252 -1.4514 -2.8803
 3976TIP3    H236124   2.597   3.155  16.848  0.6859 -1.0104 -1.0081
 3977TIP3   OH236125   2.213   3.427  18.673  0.0640 -0.6494  0.0003
 3977TIP3    H136126   2.139   3.376  18.706 -0.0315 -0.5506 -0.0564
 3977TIP3    H236127   2.198   3.432  18.578 -0.8009  0.8248  0.1773
 3978TIP3   OH236128   4.796   0.919  18.907 -0.0221  0.2959 -0.0781
 3978TIP3    H136129   4.819   1.007  18.935 -0.7581 -0.0432  1.6750
 3978TIP3    H236130   4.840   0.909  18.822  0.3675  2.1955 -0.1355
 3979TIP3   OH236131   0.986   1.567  20.544  0.5773  0.7289 -0.1909
 3979TIP3    H136132   0.957   1.476  20.548 -1.1228  1.1567 -1.4650
 3979TIP3    H236133   0.909   1.615  20.514  2.4598  2.0153 -3.5438
 3980TIP3   OH236134   0.092   1.537  19.119 -0.1516  0.4847 -0.3923
 3980TIP3    H136135   0.179   1.509  19.089 -0.8567  0.0947 -2.1811
 3980TIP3    H236136   0.032   1.473  19.082 -1.2271  0.7927  0.7562
 3981TIP3   OH236137   3.260   0.153  18.930 -0.1983 -0.2171  0.3670
 3981TIP3    H136138   3.292   0.183  18.846 -0.8228 -0.4538  0.0374
 3981TIP3    H236139   3.277   0.226  18.990  2.1816 -0.8258  0.5309
 3982TIP3   OH236140   4.040   6.315  19.915 -0.1108 -0.0527  0.6497
 3982TIP3    H136141   3.962   6.367  19.898  0.8912  0.4245 -3.4184
 3982TIP3    H236142   4.112   6.363  19.873  2.2743 -1.0228  3.2555
 3983TIP3   OH236143   5.799   4.551  19.149 -0.0237 -0.1674 -0.2611
 3983TIP3    H136144   5.723   4.605  19.171 -0.8301 -1.2998 -0.1894
 3983TIP3    H236145   5.857   4.560  19.224 -0.5319 -0.0648  0.1263
 3984TIP3   OH236146   2.292   1.314  17.969 -0.3542 -0.3401  0.3696
 3984TIP3    H136147   2.323   1.299  17.880 -1.6353 -1.8766  0.1361
 3984TIP3    H236148   2.228   1.244  17.984 -1.3493  0.8513  1.9257
 3985TIP3   OH236149   2.939   4.097  18.893 -0.1748 -0.0048 -0.3095
 3985TIP3    H136150   2.975   4.078  18.980  0.1953  0.3428 -0.3820
 3985TIP3    H236151   2.980   4.032  18.836 -0.6322 -0.4134 -0.1823
 3986TIP3   OH236152   1.583   5.173  20.000 -0.2242  0.0560  0.7788
 3986TIP3    H136153   1.592   5.120  20.079  1.7893 -0.1089  0.4887
 3986TIP3    H236154   1.607   5.114  19.929  0.3942  0.8745  0.2896
 3987TIP3   OH236155   0.482   3.702  18.676  0.9335  0.1520  0.3340
 3987TIP3    H136156   0.428   3.624  18.688 -1.1810  1.3951 -0.6811
 3987TIP3    H236157   0.557   3.672  18.624  0.7308 -1.4035  0.9042
 3988TIP3   OH236158   6.117   0.452  18.691 -0.5176  0.5485 -0.6022
 3988TIP3    H136159   6.100   0.418  18.779  2.8876 -0.1389 -0.0665
 3988TIP3    H236160   6.062   0.398  18.633 -1.4011 -0.2636  0.9386
 3989TIP3   OH236161   6.265   2.356  20.467 -0.2997 -0.2197  0.5017
 3989TIP3    H136162   6.224   2.284  20.513 -1.3946  0.6801  0.9738
 3989TIP3    H236163   6.244   2.340  20.375 -0.6677 -0.4101  0.6177
 3990TIP3   OH236164   0.770   3.384  19.181 -0.5659  0.4235  0.0430
 3990TIP3    H136165   0.739   3.438  19.253 -1.4281 -1.2558  1.0101
 3990TIP3    H236166   0.711   3.308  19.181  0.8708 -0.7606 -0.9262
 3991TIP3   OH236167   1.134   6.009  20.540  0.5062  0.5677 -0.4161
 3991TIP3    H136168   1.158   6.090  20.586  0.9397  0.0421  0.2863
 3991TIP3    H236169   1.081   5.960  20.604 -2.5578  1.6865 -1.8849
 3992TIP3   OH236170   4.127   3.328  20.896  0.5238 -0.1532 -0.1613
 3992TIP3    H136171   4.034   3.308  20.904  0.5071  0.2098  0.6673
 3992TIP3    H236172   4.130   3.420  20.871  0.6568  0.0918  0.7017
 3993TIP3   OH236173   6.354   3.248  18.541 -0.1289  0.5529  0.4396
 3993TIP3    H136174   6.425   3.208  18.592  0.6451 -0.4796 -1.3964
 3993TIP3    H236175   6.396   3.276  18.460 -1.2333  2.6486  0.5275
 3994TIP3   OH236176   4.866   0.754  20.464 -0.4717 -0.1382  0.1244
 3994TIP3    H136177   4.847   0.842  20.497  0.0530  0.3760 -0.8782
 3994TIP3    H236178   4.941   0.725  20.515 -0.5315  0.0682  0.3342
 3995TIP3   OH236179   3.935   0.134  18.966  0.1744  0.2302  0.2924
 3995TIP3    H136180   3.851   0.126  19.010 -0.2220 -2.0286 -0.7392
 3995TIP3    H236181   3.992   0.176  19.031 -0.4585 -2.5884  2.9138
 3996TIP3   OH236182   2.385   1.225  17.685  0.0409 -0.1082  0.0183
 3996TIP3    H136183   2.344   1.300  17.642  1.2350  0.0140 -0.9538
 3996TIP3    H236184   2.326   1.152  17.666 -1.1758  0.5802  1.0483
 3997TIP3   OH236185   1.558   2.775  19.670  0.6565  0.6997 -0.2109
 3997TIP3    H136186   1.576   2.814  19.584  1.1075 -2.2929 -1.6231
 3997TIP3    H236187   1.468   2.745  19.664  0.7695  0.2493  0.2583
 3998TIP3   OH236188   0.809   3.387  18.404 -1.0762  0.4027 -0.4963
 3998TIP3    H136189   0.732   3.331  18.413 -2.1671  1.8012 -0.6856
 3998TIP3    H236190   0.821   3.397  18.310  1.9839 -3.1721 -0.7084
 3999TIP3   OH236191   6.401   4.009  20.826  0.0897  0.0910 -0.0692
 3999TIP3    H136192   6.494   3.988  20.834 -0.2084 -1.5421 -0.5125
 3999TIP3    H236193   6.382   3.999  20.733 -0.8942 -1.3567  0.2556
 4000TIP3   OH236194   1.730   5.356  20.205  0.5012 -0.4620  0.6312
 4000TIP3    H136195   1.803   5.295  20.201  0.1739 -0.7632 -1.2838
 4000TIP3    H236196   1.664   5.321  20.145 -0.0828  1.2635  0.1863
 4001TIP3   OH236197   3.967   2.410  18.461  0.2271 -0.3994  0.3361
 4001TIP3    H136198   3.896   2.358  18.500 -1.8479 -0.8291 -3.5540
 4001TIP3    H236199   3.926   2.492  18.435  2.3733  1.3551  2.0411
 4002TIP3   OH236200   2.241   1.112  20.644 -0.0924  0.5156  0.7485
 4002TIP3    H136201   2.319   1.157  20.614  0.6663 -1.4619 -0.4559
 4002TIP3    H236202   2.274   1.036  20.692 -1.1978 -0.8485 -0.5384
 4003TIP3   OH236203   5.516   5.785  18.912  0.1875 -0.1066 -0.3292
 4003TIP3    H136204   5.464   5.758  18.836  1.0182  3.6585 -2.4879
 4003TIP3    H236205   5.470   5.861  18.947  2.6777  1.7084 -0.6896
 4004TIP3   OH236206   4.100   1.865  17.464 -0.6248  0.2729 -0.2801
 4004TIP3    H136207   4.076   1.898  17.378 -0.5034  1.5606  0.1573
 4004TIP3    H236208   4.158   1.791  17.446  0.7270  1.5330 -1.3019
 4005TIP3   OH236209   0.355   0.838  20.133  0.1870 -0.3163  0.4458
 4005TIP3    H136210   0.305   0.834  20.215  0.0004  0.4944  0.3779
 4005TIP3    H236211   0.412   0.914  20.143  0.4968 -0.4829  0.0015
 4006TIP3   OH236212   0.538   0.388  17.182 -0.3058 -0.8777 -0.0577
 4006TIP3    H136213   0.598   0.435  17.124 -1.0917 -1.1010 -1.0867
 4006TIP3    H236214   0.595   0.334  17.237  0.4238 -1.1510 -1.0600
 4007TIP3   OH236215   4.337   6.350  17.612 -0.8234 -0.0377 -0.3289
 4007TIP3    H136216   4.385   6.430  17.633 -2.0120  0.0076  2.7008
 4007TIP3    H236217   4.406   6.286  17.590  0.3280  1.0884 -0.0986
 4008TIP3   OH236218   1.959   3.911  18.213  0.4711  0.3112  0.4829
 4008TIP3    H136219   1.909   3.938  18.290  1.4965  1.0007  0.9307
 4008TIP3    H236220   1.959   3.815  18.218 -1.9481  0.2129 -0.3070
 4009TIP3   OH236221   3.185   2.802  18.743  0.9703 -1.1035 -0.3433
 4009TIP3    H136222   3.127   2.875  18.766 -0.0768 -2.1792  0.5062
 4009TIP3    H236223   3.173   2.791  18.649 -2.5984 -3.2084  0.1854
 4010TIP3   OH236224   1.142   1.172  18.445  0.3187 -0.1874  0.1238
 4010TIP3    H136225   1.205   1.105  18.471  0.2220 -0.5439 -0.5549
 4010TIP3    H236226   1.066   1.123  18.414 -0.1053  0.2403  0.4747
 4011TIP3   OH236227   1.155   6.220  18.194 -0.8172 -0.4170  0.2373
 4011TIP3    H136228   1.065   6.250  18.189 -0.2774  1.1926 -0.8267
 4011TIP3    H236229   1.175   6.191  18.105  0.1961  0.8345  0.0262
 4012TIP3   OH236230   1.513   3.981  18.351  0.0018  0.2685  0.2817
 4012TIP3    H136231   1.425   3.997  18.386  0.2127  1.2629  0.3830
 4012TIP3    H236232   1.553   4.068  18.345  0.3644  0.0209 -1.4263
 4013TIP3   OH236233   5.586   5.668  18.297  0.3008 -0.0019 -0.1878
 4013TIP3    H136234   5.575   5.715  18.379 -0.1475  0.6414 -0.6122
 4013TIP3    H236235   5.663   5.613  18.312  0.0053 -0.1822  0.7880
 4014TIP3   OH236236   6.496   5.130  19.299  0.5330  0.2450  0.3730
 4014TIP3    H136237   6.422   5.069  19.302 -0.2881  1.2560  1.7437
 4014TIP3    H236238   6.570   5.076  19.270 -0.4386 -1.0950  0.2865
 4015TIP3   OH236239   2.899   4.040  18.181 -0.8526  0.1002 -0.4260
 4015TIP3    H136240   2.825   4.098  18.199 -1.5612 -1.2298  1.1885
 4015TIP3    H236241   2.872   3.990  18.104 -2.3238 -1.4160  1.0210
 4016TIP3   OH236242   0.709   6.576  18.973  0.4309 -0.0154  0.1989
 4016TIP3    H136243   0.675   6.615  19.053  0.9528  1.3672 -0.2214
 4016TIP3    H236244   0.747   6.492  19.001  1.1907  0.7376  1.5156
 4017TIP3   OH236245   4.906   6.327  19.135  0.0339  0.4996  0.3296
 4017TIP3    H136246   4.957   6.245  19.142 -0.2546  0.1078 -1.6016
 4017TIP3    H236247   4.916   6.368  19.221  1.6666 -0.7014  0.7804
 4018TIP3   OH236248   6.486   4.321  18.108 -0.2564  0.2129 -0.2428
 4018TIP3    H136249   6.396   4.322  18.142  0.2050  0.1265  1.0177
 4018TIP3    H236250   6.513   4.229  18.116  0.5856  0.5614  1.1615
 4019TIP3   OH236251   0.845   1.075  20.560  0.2343  0.4520  0.0690
 4019TIP3    H136252   0.769   1.017  20.571  1.6454 -1.5195 -0.0405
 4019TIP3    H236253   0.921   1.018  20.574  1.7191  2.4395  0.6033
 4020TIP3   OH236254   2.306   5.766  19.862 -0.2287  0.7598  0.7369
 4020TIP3    H136255   2.365   5.841  19.859  0.2419  0.3756 -1.4927
 4020TIP3    H236256   2.313   5.726  19.775 -2.6502 -0.1897  0.8989
 4021TIP3   OH236257   0.368   0.902  19.123 -0.1638  0.1870 -0.2680
 4021TIP3    H136258   0.416   0.945  19.193 -1.0743  1.0250 -0.1371
 4021TIP3    H236259   0.278   0.898  19.154 -0.2419 -1.1536 -0.5963
 4022TIP3   OH236260   2.608   6.262  17.928 -0.2994  0.0011  0.1741
 4022TIP3    H136261   2.602   6.166  17.925  0.9979 -0.0718 -0.5014
 4022TIP3    H236262   2.517   6.291  17.929 -0.7143 -1.2288  0.1160
 4023TIP3   OH236263   6.493   4.698  18.914  0.1484  0.4616 -0.4084
 4023TIP3    H136264   6.464   4.689  18.823 -0.3271 -1.1536 -0.1304
 4023TIP3    H236265   6.568   4.640  18.921  0.2192  0.6224  0.2118
 4024TIP3   OH236266   6.558   2.401  20.243 -0.2836 -0.0103 -0.2177
 4024TIP3    H136267   6.524   2.345  20.172 -1.0933 -0.7465  0.7229
 4024TIP3    H236268   6.600   2.339  20.304 -0.5057  0.4956  0.4596
 4025TIP3   OH236269   0.088   5.399  18.588 -0.0507 -0.0027  0.0481
 4025TIP3    H136270   0.092   5.483  18.635  0.8329 -0.8863  1.6768
 4025TIP3    H236271   0.051   5.338  18.652  0.9254 -1.1996 -0.4756
 4026TIP3   OH236272   5.458   0.864  18.701 -0.0584 -0.3222  0.3109
 4026TIP3    H136273   5.437   0.790  18.645 -0.0392  1.0144 -1.5600
 4026TIP3    H236274   5.416   0.939  18.658  0.9897  0.9491  1.4215
 4027TIP3   OH236275   0.786   2.935  18.751  0.1976  0.5517 -1.2753
 4027TIP3    H136276   0.775   2.842  18.775 -0.8090  1.2054  1.0655
 4027TIP3    H236277   0.820   2.932  18.662  0.3052 -2.0780 -1.2423
 4028TIP3   OH236278   3.881   0.049  18.700 -0.0400 -0.5704  0.4377
 4028TIP3    H136279   3.913   0.042  18.790  0.6585 -0.6714  0.1848
 4028TIP3    H236280   3.889   0.142  18.680 -1.8315 -0.2302  1.0587
 4029TIP3   OH236281   3.546   2.261  19.874  0.5065  0.1836  0.1326
 4029TIP3    H136282   3.641   2.262  19.887  0.6673  1.3186 -0.9436
 4029TIP3    H236283   3.535   2.241  19.781 -0.2673  1.0324  0.0264
 4030TIP3   OH236284   4.405   2.146  18.797 -0.2732  0.1285  0.0858
 4030TIP3    H136285   4.472   2.180  18.856 -0.1326  0.0899 -0.0493
 4030TIP3    H236286   4.382   2.061  18.834  0.5446 -0.3511 -0.4687
 4031TIP3   OH236287   4.451   6.677  20.908 -0.3329 -0.2478  0.1752
 4031TIP3    H136288   4.427   6.753  20.961 -3.1010 -1.7051  1.1838
 4031TIP3    H236289   4.506   6.713  20.838 -1.0691  2.5628  0.9355
 4032TIP3   OH236290   1.459   4.781  20.168 -0.2699 -0.4132 -0.1183
 4032TIP3    H136291   1.524   4.850  20.172 -1.0195  0.2816  0.4803
 4032TIP3    H236292   1.493   4.713  20.227  0.1805 -0.3001 -0.2450
 4033TIP3   OH236293   1.929   5.192  20.246 -0.3368 -0.4418 -0.5114
 4033TIP3    H136294   1.913   5.097  20.252  0.0701 -0.4929 -0.2586
 4033TIP3    H236295   1.975   5.214  20.327 -0.2277 -0.0642 -0.6768
 4034TIP3   OH236296   2.146   1.904  20.727 -0.5964 -0.4419 -0.6445
 4034TIP3    H136297   2.194   1.835  20.681 -0.9097 -0.5289 -0.8432
 4034TIP3    H236298   2.065   1.862  20.755 -0.8903 -0.0982 -0.9644
 4035TIP3   OH236299   4.422   1.510  19.770 -0.4587  0.2715 -0.1211
 4035TIP3    H136300   4.469   1.590  19.748 -0.6184 -0.1062 -1.9555
 4035TIP3    H236301   4.333   1.540  19.790 -0.6220  0.5378 -1.1801
 4036TIP3   OH236302   4.073   3.596  20.819 -0.6136 -0.1265  0.1534
 4036TIP3    H136303   3.998   3.625  20.768 -0.0903 -0.2028 -0.6716
 4036TIP3    H236304   4.129   3.673  20.825 -0.7805 -0.0495  0.8332
 4037TIP3   OH236305   1.643   1.459  17.845 -0.0553 -0.0749 -0.2308
 4037TIP3    H136306   1.644   1.535  17.787 -2.2868  0.9549  0.9670
 4037TIP3    H236307   1.590   1.394  17.799  0.3938 -0.2690 -0.4832
 4038TIP3   OH236308   0.103   4.181  19.256 -0.4449 -0.6500 -0.0377
 4038TIP3    H136309   0.142   4.266  19.278  1.0582 -1.3956  0.3067
 4038TIP3    H236310   0.046   4.161  19.331 -1.2849  0.3006 -0.3944
 4039TIP3   OH236311   2.900   6.263  20.125  0.2492  0.3048  0.1255
 4039TIP3    H136312   2.991   6.283  20.149  0.3120 -0.9007  0.9514
 4039TIP3    H236313   2.875   6.191  20.183 -1.3284  0.7939  0.0872
 4040TIP3   OH236314   4.061   1.636  20.833  0.0304  0.2785  0.2341
 4040TIP3    H136315   4.090   1.665  20.919  0.4766  0.7841 -0.0809
 4040TIP3    H236316   4.130   1.577  20.802  1.1852  2.1065 -0.8556
 4041TIP3   OH236317   5.856   3.168  17.929 -0.5392  0.2630 -0.0011
 4041TIP3    H136318   5.945   3.138  17.910 -0.4452  1.1523 -1.0415
 4041TIP3    H236319   5.808   3.156  17.847 -2.2504 -2.9889  1.2810
 4042TIP3   OH236320   4.387   1.916  19.008  0.3008  0.4160 -0.2611
 4042TIP3    H136321   4.473   1.946  19.036  1.1527  0.3362 -2.5986
 4042TIP3    H236322   4.389   1.822  19.020  0.7296  0.3618 -0.7012
 4043TIP3   OH236323   2.282   3.684  20.634  0.2027  0.5462  0.2560
 4043TIP3    H136324   2.193   3.649  20.631  0.6395 -0.5240 -1.0457
 4043TIP3    H236325   2.272   3.776  20.610 -0.4482  0.2048 -0.8274
 4044TIP3   OH236326   2.548   6.622  18.710  0.2402 -0.3778  0.1554
 4044TIP3    H136327   2.494   6.591  18.783  0.0971  1.9063  1.0902
 4044TIP3    H236328   2.620   6.669  18.752 -0.0737  1.3603 -1.1454
 4045TIP3   OH236329   1.867   2.086  19.776  0.0852  0.2072 -0.0356
 4045TIP3    H136330   1.938   2.051  19.722  1.7280 -0.4244  2.3854
 4045TIP3    H236331   1.808   2.128  19.713  1.8510 -0.4817 -2.2969
 4046TIP3   OH236332   3.773   5.299  18.115 -0.1327 -0.3597 -0.9418
 4046TIP3    H136333   3.847   5.276  18.171  0.1943  1.6214 -0.4904
 4046TIP3    H236334   3.698   5.256  18.155  0.1623  0.6845  0.8423
 4047TIP3   OH236335   0.409   0.547  19.766 -0.1564  0.1693  0.1755
 4047TIP3    H136336   0.365   0.500  19.837 -3.4249  0.0569 -1.7321
 4047TIP3    H236337   0.426   0.634  19.802 -0.1980 -0.3787  1.5924
 4048TIP3   OH236338   6.562   2.157  20.117 -0.2744 -0.1523 -0.1233
 4048TIP3    H136339   6.614   2.089  20.158 -0.1054  0.8554  1.3996
 4048TIP3    H236340   6.496   2.109  20.065 -0.5268 -1.4780  1.3481
 4049TIP3   OH236341   6.343   1.369  20.755  0.5502 -0.2251 -0.7876
 4049TIP3    H136342   6.381   1.435  20.698  0.3483  0.3975 -0.2166
 4049TIP3    H236343   6.417   1.332  20.803  0.4833  0.8514  0.1840
 4050TIP3   OH236344   2.466   6.615  17.710 -0.0834  0.3634 -0.6726
 4050TIP3    H136345   2.385   6.625  17.759  0.2329  2.1665 -0.4352
 4050TIP3    H236346   2.460   6.529  17.669 -0.4688 -1.1596  2.3192
 4051TIP3   OH236347   1.400   6.166  18.786  0.1966  0.2077 -0.0404
 4051TIP3    H136348   1.353   6.241  18.820 -1.6538 -1.0830  0.3977
 4051TIP3    H236349   1.334   6.096  18.781  1.1046 -0.5860 -3.2226
 4052TIP3   OH236350   3.309   1.812  17.976 -0.2497 -0.1721 -0.2911
 4052TIP3    H136351   3.358   1.821  18.058 -1.7856 -0.3071  0.6759
 4052TIP3    H236352   3.332   1.724  17.944 -0.3929 -0.5118  0.5141
 4053TIP3   OH236353   5.438   5.397  19.505 -0.3392  0.0837 -0.0718
 4053TIP3    H136354   5.354   5.380  19.461  0.4657 -0.9434 -1.2685
 4053TIP3    H236355   5.455   5.318  19.556 -0.8461  0.9291  1.4739
 4054TIP3   OH236356   4.946   5.206  19.281  0.0473  0.5589  0.4584
 4054TIP3    H136357   4.985   5.140  19.223  0.6800  1.7397 -0.4944
 4054TIP3    H236358   4.914   5.274  19.222 -0.1085  1.3724  1.4485
 4055TIP3   OH236359   5.807   1.447  20.051  0.0644 -0.0935 -0.3868
 4055TIP3    H136360   5.847   1.361  20.059 -1.0678 -0.5032  1.4333
 4055TIP3    H236361   5.749   1.440  19.975 -2.0100 -1.8521  1.2272
 4056TIP3   OH236362   6.030   4.492  18.583  0.6285 -0.1508  0.0490
 4056TIP3    H136363   6.086   4.473  18.658  0.1243  0.9271  0.7258
 4056TIP3    H236364   5.993   4.578  18.602 -2.6764 -1.5153  0.4959
 4057TIP3   OH236365   0.722   3.764  18.289  0.1782 -0.1027  0.0294
 4057TIP3    H136366   0.815   3.742  18.289  0.2785  0.3039 -0.3121
 4057TIP3    H236367   0.689   3.731  18.372  0.5855 -0.4244  0.0644
 4058TIP3   OH236368   4.945   1.475  18.609 -0.5847  0.1996  0.1551
 4058TIP3    H136369   4.955   1.468  18.514  0.5952  0.3306  0.2484
 4058TIP3    H236370   4.977   1.391  18.642 -1.9244 -0.2324  0.3970
 4059TIP3   OH236371   3.371   1.779  17.663  0.4747  0.3953  0.0459
 4059TIP3    H136372   3.359   1.746  17.752  0.8624  0.4904  0.1327
 4059TIP3    H236373   3.282   1.782  17.628  0.2710  0.7842  0.5797
 4060TIP3   OH236374   1.337   4.236  18.684 -0.0306 -0.1215 -0.3158
 4060TIP3    H136375   1.260   4.280  18.720  0.1253  0.6228 -0.8696
 4060TIP3    H236376   1.410   4.269  18.737 -0.1095 -1.0673  0.4198
 4061TIP3   OH236377   6.392   0.943  19.189  0.2462 -0.3597 -0.3023
 4061TIP3    H136378   6.426   0.880  19.252 -0.3369 -0.4264 -0.0477
 4061TIP3    H236379   6.351   0.890  19.121 -1.2557 -0.2667  0.4805
 4062TIP3   OH236380   3.556   1.555  19.872  0.3519  0.2187  0.3259
 4062TIP3    H136381   3.539   1.460  19.876  0.4402  0.2194  0.7990
 4062TIP3    H236382   3.566   1.581  19.964 -0.5436  0.8447  0.2638
 4063TIP3   OH236383   4.833   1.970  19.924  0.5508 -0.2143 -0.0671
 4063TIP3    H136384   4.778   2.035  19.880  0.8302 -0.4261 -0.7325
 4063TIP3    H236385   4.823   1.990  20.017 -1.6537 -1.0262 -0.0737
 4064TIP3   OH236386   4.341   0.097  17.485 -0.2298  0.0726 -0.4078
 4064TIP3    H136387   4.350   0.186  17.451 -0.6464  0.5084  0.5748
 4064TIP3    H236388   4.425   0.079  17.528  0.1686 -0.3453 -1.3388
 4065TIP3   OH236389   5.511   3.910  18.178 -0.5303 -0.1365 -0.7308
 4065TIP3    H136390   5.560   3.990  18.195 -1.8861  0.1905  2.1797
 4065TIP3    H236391   5.575   3.840  18.189  0.1614  0.4320 -1.0802
 4066TIP3   OH236392   5.208   3.495  17.999 -0.5194  0.0079 -0.2748
 4066TIP3    H136393   5.292   3.449  17.995 -1.4070 -1.8254  0.6744
 4066TIP3    H236394   5.230   3.588  17.993  1.6753 -0.3681  1.0337
 4067TIP3   OH236395   1.304   1.341  20.160 -0.3168  0.2847  0.1475
 4067TIP3    H136396   1.306   1.396  20.082 -0.2715 -0.1043 -0.1335
 4067TIP3    H236397   1.254   1.390  20.224 -2.8965 -0.6083 -1.0713
 4068TIP3   OH236398   1.650   1.353  18.284  0.0491  0.1634 -0.1774
 4068TIP3    H136399   1.712   1.412  18.325  1.2081  0.0371 -1.6693
 4068TIP3    H236400   1.611   1.404  18.213  1.5820 -0.9741 -1.9465
 4069TIP3   OH236401   0.902   0.392  18.378  0.6510  0.1454 -0.0074
 4069TIP3    H136402   0.869   0.402  18.289 -0.4847  0.6027  0.4507
 4069TIP3    H236403   0.854   0.317  18.413  0.9142  0.1198  0.3015
 4070TIP3   OH236404   3.590   1.028  19.709 -0.1805 -0.1781  0.2900
 4070TIP3    H136405   3.588   0.951  19.652 -0.9248  0.0152  0.0294
 4070TIP3    H236406   3.514   1.079  19.681 -0.9682 -0.3972  1.9004
 4071TIP3   OH236407   5.579   4.010  17.459  0.0487 -0.4608 -0.3856
 4071TIP3    H136408   5.497   3.996  17.412  1.6142 -0.4013 -3.3583
 4071TIP3    H236409   5.634   3.936  17.434  1.9138  1.0565 -0.9876
 4072TIP3   OH236410   0.546   0.455  19.535 -0.0107  0.5880  0.1653
 4072TIP3    H136411   0.528   0.361  19.543 -1.2943  0.7439 -0.5570
 4072TIP3    H236412   0.511   0.493  19.615 -0.7662  0.5985 -0.1588
 4073TIP3   OH236413   0.611   1.045  20.781 -0.7975  0.4814  1.1139
 4073TIP3    H136414   0.659   1.126  20.800 -0.2360  0.6640 -0.7956
 4073TIP3    H236415   0.632   0.986  20.853  1.6419  0.8526  0.7738
 4074TIP3   OH236416   0.265   6.461  17.215 -0.4277 -0.4054 -0.7774
 4074TIP3    H136417   0.234   6.373  17.235  1.2249 -1.0482 -0.8370
 4074TIP3    H236418   0.191   6.518  17.234 -1.1882 -1.6984  0.3102
 4075TIP3   OH236419   0.926   1.092  18.826  0.4962 -0.4102  0.2962
 4075TIP3    H136420   1.006   1.066  18.781  0.0476  2.3496 -2.4056
 4075TIP3    H236421   0.863   1.022  18.807  1.2875 -0.9208 -0.4947
 4076TIP3   OH236422   1.655   3.384  18.941 -0.7584 -0.1907 -0.3586
 4076TIP3    H136423   1.692   3.472  18.934  0.7847 -0.8726 -1.4586
 4076TIP3    H236424   1.704   3.343  19.013 -1.4006 -0.1937  0.0826
 4077TIP3   OH236425   6.406   1.254  18.919 -0.3770  0.1490  0.4145
 4077TIP3    H136426   6.323   1.301  18.905 -0.5610 -0.1729  0.4216
 4077TIP3    H236427   6.393   1.170  18.876  0.6055  0.7708 -1.1997
 4078TIP3   OH236428   1.176   3.601  20.830  0.0785 -0.3325  0.0272
 4078TIP3    H136429   1.211   3.514  20.812 -0.8987 -0.4002 -1.8660
 4078TIP3    H236430   1.252   3.653  20.855  0.6965 -1.6763  1.1050
 4079TIP3   OH236431   2.462   3.181  20.232  0.3226  0.6394  0.4477
 4079TIP3    H136432   2.550   3.214  20.211  1.0681 -0.5375  1.5791
 4079TIP3    H236433   2.429   3.148  20.149  0.6763  1.6909 -0.1320
 4080TIP3   OH236434   1.339   0.689  18.438 -0.4735  0.4691 -0.3837
 4080TIP3    H136435   1.400   0.717  18.369 -1.0182  0.0308 -1.0570
 4080TIP3    H236436   1.262   0.658  18.391 -0.9337  0.3305  0.4381
 4081TIP3   OH236437   5.716   2.224  19.721  0.3013 -0.8391  0.1382
 4081TIP3    H136438   5.741   2.282  19.793 -0.7547 -0.8445  0.5292
 4081TIP3    H236439   5.774   2.249  19.649 -1.2265  1.8876 -0.2582
 4082TIP3   OH236440   1.991   3.799  19.016  0.1626 -0.2222 -0.5748
 4082TIP3    H136441   2.039   3.792  18.933  0.2446  0.4549 -0.5912
 4082TIP3    H236442   2.058   3.813  19.082  0.1526 -1.4232 -0.2851
 4083TIP3   OH236443   2.042   1.624  20.493 -0.2669 -0.2732  0.4469
 4083TIP3    H136444   2.090   1.683  20.434 -0.6468  0.0289  0.4298
 4083TIP3    H236445   1.969   1.592  20.440 -0.4559 -0.2132  0.6679
 4084TIP3   OH236446   2.097   1.984  16.568  0.1702  0.6597 -0.0071
 4084TIP3    H136447   2.067   1.958  16.481 -0.0342 -1.2640  0.6064
 4084TIP3    H236448   2.133   2.072  16.555 -0.8038  0.8394 -1.8162
 4085TIP3   OH236449   5.177   5.492  20.389  0.1784  0.3070 -0.3275
 4085TIP3    H136450   5.102   5.523  20.338 -0.3740 -0.6505 -0.1213
 4085TIP3    H236451   5.245   5.475  20.324  0.7164  2.4768 -0.3963
 4086TIP3   OH236452   1.343   5.251  17.835  0.3227 -0.4519 -0.4469
 4086TIP3    H136453   1.304   5.249  17.923  2.3897  0.0984  0.5233
 4086TIP3    H236454   1.349   5.159  17.811 -1.5369 -0.5652 -0.6510
 4087TIP3   OH236455   5.734   2.904  20.149 -0.0672  0.0170 -0.1832
 4087TIP3    H136456   5.691   2.932  20.068  0.5871  0.5408 -0.3568
 4087TIP3    H236457   5.663   2.891  20.211 -0.5124  0.4904 -0.5852
 4088TIP3   OH236458   0.028   4.121  20.247 -0.0395 -0.0879 -0.1819
 4088TIP3    H136459   0.047   4.067  20.324 -0.6450 -0.3003 -0.1714
 4088TIP3    H236460  -0.067   4.116  20.238 -0.0978  0.9157 -0.2371
 4089TIP3   OH236461   4.736   4.259  19.973 -0.3547 -0.2734 -0.2919
 4089TIP3    H136462   4.703   4.315  20.043  0.5420  1.2938 -1.0945
 4089TIP3    H236463   4.824   4.235  20.000  0.3742  1.1491 -1.2992
 4090TIP3   OH236464   2.454   4.958  20.267  0.0110  0.4695 -0.0118
 4090TIP3    H136465   2.372   4.957  20.217  0.8263 -0.5796 -1.4376
 4090TIP3    H236466   2.494   4.873  20.247  1.5298  1.0400  0.5056
 4091TIP3   OH236467   2.739   2.937  19.103  0.5061 -0.0318 -0.2213
 4091TIP3    H136468   2.655   2.982  19.118 -0.4995 -1.4903 -1.1571
 4091TIP3    H236469   2.803   3.008  19.095 -0.6511  1.1347  0.3743
 4092TIP3   OH236470   2.160   4.890  18.144  0.3313  0.1874 -0.6734
 4092TIP3    H136471   2.154   4.867  18.051  0.7222  0.2616 -0.7200
 4092TIP3    H236472   2.173   4.985  18.144  1.7564  0.0164 -0.6040
 4093TIP3   OH236473   1.971   1.798  18.227 -0.2432 -0.8318  0.1699
 4093TIP3    H136474   1.903   1.841  18.279 -1.6688 -0.9795 -1.4502
 4093TIP3    H236475   1.942   1.811  18.136  2.0998 -0.6094 -0.6063
 4094TIP3   OH236476   2.471   5.110  18.143 -0.2733 -0.4141  0.0545
 4094TIP3    H136477   2.522   5.190  18.154  0.8364 -1.2073  0.8793
 4094TIP3    H236478   2.533   5.045  18.110 -0.6617 -1.4492  1.2345
 4095TIP3   OH236479   5.848   3.639  18.814 -0.3849  0.9130 -0.2286
 4095TIP3    H136480   5.757   3.628  18.842 -0.5206 -1.3382 -1.3880
 4095TIP3    H236481   5.855   3.732  18.792 -2.5206  1.0522 -0.5205
 4096TIP3   OH236482   1.316   5.558  19.133  0.6049  0.6294 -0.4856
 4096TIP3    H136483   1.267   5.632  19.170 -1.9047 -0.7670 -0.8429
 4096TIP3    H236484   1.274   5.541  19.049  0.1959 -2.0318  0.1797
 4097TIP3   OH236485   5.284   5.679  18.803  0.2935 -0.5890 -0.3998
 4097TIP3    H136486   5.225   5.718  18.868 -0.6397  1.3082 -2.2548
 4097TIP3    H236487   5.225   5.633  18.743  0.7389  0.4772 -1.7095
 4098TIP3   OH236488   1.716   6.009  20.617  0.1133  0.3368 -0.2461
 4098TIP3    H136489   1.634   6.033  20.575 -0.8044 -0.6430  0.9343
 4098TIP3    H236490   1.716   6.055  20.700  0.4775 -0.1237  0.0176
 4099TIP3   OH236491   0.323   2.542  18.744  0.4383 -0.4636 -0.4762
 4099TIP3    H136492   0.330   2.528  18.839  0.2198  0.2621 -0.3471
 4099TIP3    H236493   0.258   2.612  18.735  2.0484  1.0177 -1.0315
 4100TIP3   OH236494   4.840   3.329  20.112  0.2901  0.1350 -0.5720
 4100TIP3    H136495   4.757   3.362  20.078 -0.9540 -2.5353 -0.4160
 4100TIP3    H236496   4.866   3.393  20.178 -2.3738  0.4177  0.3398
 4101TIP3   OH236497   4.221   2.319  20.035  0.2540  0.1236 -0.2822
 4101TIP3    H136498   4.313   2.327  20.060 -0.0858 -1.3306  1.6696
 4101TIP3    H236499   4.210   2.382  19.964  3.0634 -0.5824 -1.4955
 4102TIP3   OH236500   3.526   5.472  17.750  0.4177  0.0925  0.0546
 4102TIP3    H136501   3.492   5.514  17.671  0.4150 -1.0663 -0.5913
 4102TIP3    H236502   3.579   5.399  17.717  1.0451  0.0536  1.1097
 4103TIP3   OH236503   5.038   3.279  20.867  0.3092  0.0746 -0.0246
 4103TIP3    H136504   5.133   3.280  20.859  0.1879 -1.0998 -2.1437
 4103TIP3    H236505   5.009   3.358  20.822  0.2437  0.3384  0.4652
 4104TIP3   OH236506   4.215   2.955  19.517  0.0715  0.2852 -0.3689
 4104TIP3    H136507   4.156   3.022  19.485  0.7728  1.3186  0.4175
 4104TIP3    H236508   4.302   2.984  19.489  0.4028 -0.2126  0.1090
 4105TIP3   OH236509   3.538   3.849  18.872 -0.1789  1.0280 -0.5991
 4105TIP3    H136510   3.534   3.856  18.777  0.7712 -0.6648 -0.8039
 4105TIP3    H236511   3.560   3.937  18.902  2.1210  1.0565 -2.1427
 4106TIP3   OH236512   0.640   5.902  18.613 -0.3890 -0.2164  0.2146
 4106TIP3    H136513   0.597   5.939  18.690 -1.1265  0.5925 -0.5622
 4106TIP3    H236514   0.593   5.940  18.539  1.2400  0.1750 -0.6655
 4107TIP3   OH236515   2.660   0.040  20.669 -0.2357 -0.0299  0.2797
 4107TIP3    H136516   2.707  -0.005  20.739 -2.5490  0.7764  2.5378
 4107TIP3    H236517   2.611  -0.030  20.625  1.1296 -0.5287 -0.4931
 4108TIP3   OH236518   1.522   1.662  19.364  0.0073 -0.2678  0.1516
 4108TIP3    H136519   1.458   1.638  19.431 -1.4773  0.6047 -0.9008
 4108TIP3    H236520   1.596   1.699  19.413 -0.0299 -1.7985  1.4247
 4109TIP3   OH236521   1.040   0.193  19.219 -0.1979  0.4816  0.3852
 4109TIP3    H136522   1.075   0.107  19.193  1.3846  0.7573  1.4775
 4109TIP3    H236523   1.044   0.192  19.314 -2.9780  0.6729  0.5906
 4110TIP3   OH236524   5.814   0.522  19.202  0.0300 -0.8235  0.2069
 4110TIP3    H136525   5.835   0.570  19.282  2.3758 -0.2155 -0.7052
 4110TIP3    H236526   5.769   0.443  19.233  1.2388 -0.8024  2.1755
 4111TIP3   OH236527   3.655   6.064  20.669  0.2640  0.2280 -0.5179
 4111TIP3    H136528   3.569   6.073  20.628 -0.0341  1.0219  0.2423
 4111TIP3    H236529   3.671   6.149  20.711  1.1984 -0.0717 -0.2281
 4112TIP3   OH236530   3.354   2.737  19.287  0.0137  0.4204  0.7990
 4112TIP3    H136531   3.431   2.685  19.311  1.7929  2.3107 -0.4838
 4112TIP3    H236532   3.342   2.797  19.361 -0.7083 -0.3489  1.3199
 4113TIP3   OH236533   0.475   1.531  18.337 -0.0518 -0.2754 -0.3070
 4113TIP3    H136534   0.470   1.572  18.423  2.9859 -0.4203  0.0401
 4113TIP3    H236535   0.501   1.601  18.278  0.7983 -0.7549 -0.5245
 4114TIP3   OH236536   0.621   4.421  20.694 -0.3287  0.5913  0.1376
 4114TIP3    H136537   0.645   4.443  20.604 -1.2966  0.4894 -0.1601
 4114TIP3    H236538   0.634   4.503  20.743  2.8034 -0.0070  0.5234
 4115TIP3   OH236539   5.390   4.207  20.028  0.0989 -0.1179  0.0343
 4115TIP3    H136540   5.343   4.124  20.040  1.3183 -0.6283  1.8019
 4115TIP3    H236541   5.321   4.273  20.021 -0.9719 -0.8643  2.3062
 4116TIP3   OH236542   6.229   0.731  18.888 -0.3114  0.1478  0.2417
 4116TIP3    H136543   6.160   0.718  18.954 -1.1843 -1.9112 -0.9847
 4116TIP3    H236544   6.189   0.704  18.806  1.5263  0.3217 -0.7601
 4117TIP3   OH236545   6.572   1.271  19.793  0.6383 -0.2379 -0.0727
 4117TIP3    H136546   6.524   1.310  19.720 -0.7422 -1.6118  0.0580
 4117TIP3    H236547   6.647   1.329  19.806 -0.7142  1.7263 -0.5945
 4118TIP3   OH236548   5.879   3.149  20.144 -0.5421 -0.2291 -0.5671
 4118TIP3    H136549   5.806   3.089  20.161 -1.2866  0.7149 -0.3625
 4118TIP3    H236550   5.945   3.126  20.210 -1.2272 -0.1662  0.1464
 4119TIP3   OH236551   5.323   5.748  20.413  0.4060  0.1916  0.5563
 4119TIP3    H136552   5.293   5.659  20.394 -1.4088  0.9086 -0.1402
 4119TIP3    H236553   5.398   5.736  20.471  1.3289 -1.8395 -0.9434
 4120TIP3   OH236554   5.676   3.469  20.348  0.0183  0.2908  0.5101
 4120TIP3    H136555   5.715   3.494  20.432 -1.3934 -1.0167  1.6169
 4120TIP3    H236556   5.609   3.535  20.332 -1.4146 -0.7869  1.7321
 4121TIP3   OH236557   3.210   1.079  17.445  0.1043 -0.6562 -0.6322
 4121TIP3    H136558   3.116   1.062  17.448  0.3805 -2.3806 -0.6491
 4121TIP3    H236559   3.232   1.073  17.352 -0.0032  1.3934 -0.8372
 4122TIP3   OH236560   0.159   0.830  20.330 -0.2287 -0.1607 -0.1815
 4122TIP3    H136561   0.151   0.739  20.302  1.0812  0.0342 -1.2682
 4122TIP3    H236562   0.071   0.854  20.357 -0.5885 -1.7601  0.1835
 4123TIP3   OH236563   5.024   1.609  20.954  0.2169 -0.0653  0.3345
 4123TIP3    H136564   5.045   1.570  21.038  0.9747 -3.4084 -1.2277
 4123TIP3    H236565   4.946   1.563  20.925 -1.0301  2.2059 -0.1369
 4124TIP3   OH236566   5.233   4.910  20.323 -0.3089 -0.0581  0.1399
 4124TIP3    H136567   5.162   4.972  20.307  0.2476  0.3822 -0.7278
 4124TIP3    H236568   5.275   4.941  20.403 -1.2452 -0.4805  0.8149
 4125TIP3   OH236569   0.195   2.883  17.336 -0.2510 -0.9222  0.0947
 4125TIP3    H136570   0.245   2.881  17.254  0.5731 -2.2892  0.5943
 4125TIP3    H236571   0.111   2.843  17.314 -0.3483 -0.5250 -0.2700
 4126TIP3   OH236572   5.006   6.292  19.611 -0.1084 -0.1816  0.3765
 4126TIP3    H136573   5.098   6.305  19.587  0.1825 -0.3985  1.3522
 4126TIP3    H236574   5.004   6.208  19.657 -0.5743  0.4145  1.4899
 4127TIP3   OH236575   5.862   2.836  19.608  0.1921  0.0327  0.2257
 4127TIP3    H136576   5.894   2.786  19.533  1.9089 -0.3995  1.1641
 4127TIP3    H236577   5.918   2.914  19.610 -0.5008  0.5286  0.4864
 4128TIP3   OH236578   6.389   5.828  18.024 -0.2810 -0.2177 -0.2936
 4128TIP3    H136579   6.382   5.733  18.033 -0.0162 -0.1239  1.0851
 4128TIP3    H236580   6.483   5.844  18.018 -0.0970  0.1185  2.1946
 4129TIP3   OH236581   2.221   2.384  19.295 -0.5890 -0.3134 -0.0811
 4129TIP3    H136582   2.168   2.427  19.228  0.9950  1.6568 -0.1636
 4129TIP3    H236583   2.201   2.431  19.376  0.2480 -0.2148  0.0772
 4130TIP3   OH236584   6.598   0.286  20.635  0.3497  0.6270  0.4808
 4130TIP3    H136585   6.560   0.201  20.656  0.9843  0.2206  0.0469
 4130TIP3    H236586   6.676   0.264  20.583  1.1833  1.4176  1.3583
 4131TIP3   OH236587   5.351   5.676  17.672  0.4265  0.1260 -0.2908
 4131TIP3    H136588   5.400   5.743  17.624  0.1247  0.1449 -0.5746
 4131TIP3    H236589   5.270   5.720  17.698  1.4710  0.7825  2.0861
 4132TIP3   OH236590   3.302   1.841  16.846  0.3200  0.5654  0.0764
 4132TIP3    H136591   3.299   1.747  16.832  2.5651  0.5608 -0.7939
 4132TIP3    H236592   3.344   1.852  16.931 -0.2800  0.7871  0.3498
 4133TIP3   OH236593   0.804   0.841  16.926 -0.0683  0.1137 -0.1636
 4133TIP3    H136594   0.836   0.844  16.835 -0.5352 -0.3544 -0.3459
 4133TIP3    H236595   0.712   0.816  16.918 -0.9071  2.7533  0.2713
 4134TIP3   OH236596   4.474   1.116  19.345  0.5533 -0.1077 -0.5476
 4134TIP3    H136597   4.563   1.132  19.314  0.7561 -0.0298  0.0627
 4134TIP3    H236598   4.418   1.149  19.275  0.9752 -2.5913 -2.2210
 4135TIP3   OH236599   3.524   1.245  20.387  0.2335 -0.0585 -0.8406
 4135TIP3    H136600   3.591   1.178  20.404 -1.4631 -1.5542  0.2555
 4135TIP3    H236601   3.486   1.264  20.473 -1.0972  0.3920 -1.4972
 4136TIP3   OH236602   5.290   1.487  19.014 -0.2697 -0.2023 -0.3004
 4136TIP3    H136603   5.245   1.482  19.098  1.2634 -0.9005  0.4964
 4136TIP3    H236604   5.363   1.546  19.028  1.4656 -2.2140 -0.4069
 4137TIP3   OH236605   3.809   0.318  18.640  0.0712  0.1150  0.0149
 4137TIP3    H136606   3.799   0.310  18.734  0.1768  1.4360  0.1623
 4137TIP3    H236607   3.724   0.348  18.609 -0.2436 -1.2155 -0.4433
 4138TIP3   OH236608   1.528   2.937  17.893  0.6067  0.3126  0.2250
 4138TIP3    H136609   1.527   2.842  17.905 -0.0506  0.3824  0.7802
 4138TIP3    H236610   1.511   2.973  17.980  1.3182  0.9584  0.1135
 4139TIP3   OH236611   5.314   3.403  19.961 -0.6376  0.3008  0.4382
 4139TIP3    H136612   5.237   3.437  19.918 -0.1553 -0.1048 -0.7796
 4139TIP3    H236613   5.305   3.308  19.956  0.7898  0.2021 -1.3850
 4140TIP3   OH236614   3.963   0.391  18.364 -0.3668 -0.4468  0.2695
 4140TIP3    H136615   3.999   0.400  18.275  0.8039 -1.7559  0.5672
 4140TIP3    H236616   3.869   0.386  18.351 -0.2200 -0.6583 -0.9136
 4141TIP3   OH236617   6.010   5.815  19.339 -0.1055  0.1946  0.2149
 4141TIP3    H136618   5.968   5.900  19.329  0.5920  0.5686  0.3656
 4141TIP3    H236619   6.091   5.834  19.386 -0.6962 -0.7725  1.6665
 4142TIP3   OH236620   0.588   6.348  13.014 -0.3110 -0.5157 -0.6554
 4142TIP3    H136621   0.650   6.355  12.941  1.9156 -1.0576  1.0610
 4142TIP3    H236622   0.503   6.366  12.975  0.8618 -0.0668 -3.2281
 4143TIP3   OH236623   1.771   6.533  18.428  0.7467  0.3891  0.2059
 4143TIP3    H136624   1.835   6.581  18.480  0.0174 -0.1508  1.6708
 4143TIP3    H236625   1.686   6.566  18.458  0.2941 -0.3843 -0.1969
 4144TIP3   OH236626   5.761   2.396  18.804 -0.2458 -0.4253  0.1208
 4144TIP3    H136627   5.763   2.446  18.886  0.3283 -0.4438  0.1192
 4144TIP3    H236628   5.790   2.458  18.737 -0.3865 -0.5091 -0.0198
 4145TIP3   OH236629   4.669   2.237  19.637 -0.6291  0.5126 -0.3219
 4145TIP3    H136630   4.704   2.325  19.620  0.0009  0.1599 -0.9177
 4145TIP3    H236631   4.693   2.187  19.560 -2.5436  0.2557 -0.7856
 4146TIP3   OH236632   1.262   4.944  18.746 -0.3909  0.6504 -0.6490
 4146TIP3    H136633   1.212   4.892  18.809  1.2104  0.3886  0.4572
 4146TIP3    H236634   1.223   5.031  18.751 -1.2619  0.2668 -0.4268
 4147TIP3   OH236635   5.415   5.806  18.515 -0.4220 -0.0119 -0.5283
 4147TIP3    H136636   5.423   5.716  18.547  0.2608 -0.0025 -0.6698
 4147TIP3    H236637   5.407   5.797  18.420 -1.3424  0.0246 -0.4601
 4148TIP3   OH236638   1.404   2.286  18.526  0.0768  0.1810 -0.3191
 4148TIP3    H136639   1.413   2.363  18.582  0.2887  0.5048 -0.7945
 4148TIP3    H236640   1.320   2.247  18.551  0.2524  0.2256  0.3415
 4149TIP3   OH236641   3.362   1.938  20.753  0.3504 -0.4518  0.6054
 4149TIP3    H136642   3.424   1.876  20.793 -0.6522 -0.1158  2.8464
 4149TIP3    H236643   3.278   1.891  20.754 -0.2822  0.6349  1.7086
 4150TIP3   OH236644   2.738   4.675  19.382  0.8022 -0.5246 -0.5103
 4150TIP3    H136645   2.662   4.651  19.434  0.0224 -0.3310 -1.5354
 4150TIP3    H236646   2.721   4.637  19.295  1.5007  0.1841 -0.9732
 4151TIP3   OH236647   1.008   4.930  18.260  0.3720 -0.2526  0.0313
 4151TIP3    H136648   1.084   4.922  18.202  0.2842 -0.7070 -0.0257
 4151TIP3    H236649   0.995   4.842  18.293  0.3961 -0.0018  0.7192
 4152TIP3   OH236650   5.019   3.178  18.221 -0.3598 -0.2340 -0.3844
 4152TIP3    H136651   5.000   3.209  18.132  0.1363 -0.7987 -0.6918
 4152TIP3    H236652   5.114   3.166  18.223 -0.5886 -2.5087 -0.5511
 4153TIP3   OH236653   2.499   2.193  19.727  0.2413  0.5208  0.0415
 4153TIP3    H136654   2.514   2.099  19.719 -0.7923  0.4019 -0.7927
 4153TIP3    H236655   2.587   2.232  19.723  0.6530 -0.3866  0.0214
 4154TIP3   OH236656   5.645   2.471  17.721  0.4563 -0.2369 -0.2911
 4154TIP3    H136657   5.596   2.552  17.735  2.0375  0.4678  1.6661
 4154TIP3    H236658   5.697   2.489  17.642 -0.9256 -0.2611 -1.2336
 4155TIP3   OH236659   5.185   5.264  19.426 -0.2207 -0.0165  0.1367
 4155TIP3    H136660   5.110   5.235  19.375 -1.4569  1.3110  1.1264
 4155TIP3    H236661   5.214   5.186  19.474 -0.5667 -0.6810 -0.7175
 4156TIP3   OH236662   6.581   4.529  17.959  0.3019 -0.1989  0.5788
 4156TIP3    H136663   6.522   4.596  17.994  0.0074 -0.6438  0.9426
 4156TIP3    H236664   6.558   4.450  18.007 -0.0682 -0.8179 -0.5724
 4157TIP3   OH236665   1.887   2.875  19.740  0.2830 -0.3553 -0.0779
 4157TIP3    H136666   1.866   2.810  19.673 -0.5380 -0.3880  0.2065
 4157TIP3    H236667   1.947   2.935  19.696  0.4488 -0.8698 -0.5750
 4158TIP3   OH236668   1.591   4.842  17.174  0.1670  0.6570  0.2625
 4158TIP3    H136669   1.628   4.765  17.131 -0.0496 -0.3825  1.8417
 4158TIP3    H236670   1.647   4.914  17.147 -0.0002  0.0906 -1.7749
 4159TIP3   OH236671   4.834   4.922  18.530  0.2323  0.1652 -0.1153
 4159TIP3    H136672   4.857   4.917  18.623  1.3753 -0.2553 -0.4045
 4159TIP3    H236673   4.819   4.831  18.503 -0.3290  0.3055 -0.2903
 4160TIP3   OH236674   2.186   2.710  17.008 -0.2366  0.4239  0.4615
 4160TIP3    H136675   2.203   2.636  16.950  0.1312  1.0109 -0.1913
 4160TIP3    H236676   2.266   2.719  17.060  0.1618  1.0607 -0.2470
 4161TIP3   OH236677   1.006   6.242  19.070  0.2446 -0.6851  0.5079
 4161TIP3    H136678   1.058   6.300  19.015 -0.0883 -0.7978  0.0753
 4161TIP3    H236679   1.070   6.205  19.132  0.4374  0.1980  0.8434
 4162TIP3   OH236680   2.051   1.171  17.733  0.3199  0.1942  0.4878
 4162TIP3    H136681   1.995   1.173  17.655  0.9759  2.3497 -0.0058
 4162TIP3    H236682   2.067   1.263  17.753  3.8708 -0.2627  0.4404
 4163TIP3   OH236683   1.626   5.734  17.361 -0.0464  0.0022  0.0746
 4163TIP3    H136684   1.547   5.747  17.309 -1.4600  0.0661  2.1156
 4163TIP3    H236685   1.673   5.817  17.353 -0.3174  0.0731 -0.9277
 4164TIP3   OH236686   6.545   1.906  18.371  0.1527 -0.1105  0.1074
 4164TIP3    H136687   6.573   1.833  18.315 -3.0580  0.4190 -2.4632
 4164TIP3    H236688   6.454   1.885  18.393 -0.5019  2.5687  0.2173
 4165TIP3   OH236689   1.766   5.211  20.810 -0.3332  0.2920 -0.0389
 4165TIP3    H136690   1.747   5.230  20.902 -1.8064  1.4891 -0.5466
 4165TIP3    H236691   1.771   5.297  20.768  0.2992 -0.2366 -1.0979
 4166TIP3   OH236692   6.545   6.178  20.363  0.0101 -0.1654 -0.2944
 4166TIP3    H136693   6.477   6.232  20.323 -0.7419 -1.8366 -1.3719
 4166TIP3    H236694   6.497   6.113  20.414  0.9344  1.2312  2.5507
 4167TIP3   OH236695   6.269   0.300  17.071 -0.1504  0.1443 -0.4198
 4167TIP3    H136696   6.232   0.216  17.044  1.5896 -0.5825 -0.6973
 4167TIP3    H236697   6.255   0.358  16.996 -0.9909 -0.0081 -0.3866
 4168TIP3   OH236698   3.514   5.744  19.640 -0.0337 -0.1944 -0.5448
 4168TIP3    H136699   3.429   5.768  19.675  0.4657  1.5257 -0.4271
 4168TIP3    H236700   3.577   5.795  19.691  1.0161 -0.8294 -1.1496
 4169TIP3   OH236701   5.490   1.050  18.113  0.8833  0.1656 -0.2793
 4169TIP3    H136702   5.517   1.142  18.104 -0.5700  0.4465 -2.2681
 4169TIP3    H236703   5.397   1.050  18.092  0.9389 -1.8140 -0.6841
 4170TIP3   OH236704   4.492   1.322  18.778  0.3409 -0.3649  0.2714
 4170TIP3    H136705   4.398   1.340  18.778  0.7105  1.9277  0.4350
 4170TIP3    H236706   4.501   1.239  18.732 -1.7395 -0.5831  0.1553
 4171TIP3   OH236707   6.347   2.312  19.668  0.1249  0.0524  0.2041
 4171TIP3    H136708   6.263   2.272  19.691 -0.0758  1.1942  1.6610
 4171TIP3    H236709   6.327   2.406  19.660  0.8768  0.0985 -1.5103
 4172TIP3   OH236710   2.637   5.046  19.737  0.2777 -0.3281 -0.0507
 4172TIP3    H136711   2.572   5.085  19.679 -0.8097  0.0768  1.3653
 4172TIP3    H236712   2.721   5.066  19.697 -0.3087  2.0388 -0.2546
 4173TIP3   OH236713   5.183   5.394  18.907 -0.0861  0.1056  0.3358
 4173TIP3    H136714   5.258   5.443  18.941  0.0954 -0.2206  0.4024
 4173TIP3    H236715   5.163   5.437  18.824 -0.5809  0.9584  0.8707
 4174TIP3   OH236716   2.026   4.595  19.740  0.1374  0.1980  0.5335
 4174TIP3    H136717   2.025   4.669  19.680  1.1815  0.1151  0.3862
 4174TIP3    H236718   2.102   4.610  19.796 -1.6019  0.9942  2.8122
 4175TIP3   OH236719   1.267   4.076  17.704  0.5872 -0.0997  0.5339
 4175TIP3    H136720   1.210   4.023  17.649  0.4172  0.5838  0.0399
 4175TIP3    H236721   1.338   4.105  17.646  1.8261 -1.4671  1.2819
 4176TIP3   OH236722   2.031   0.507  20.634  0.1280 -0.3336 -0.0052
 4176TIP3    H136723   1.941   0.474  20.632  0.3374 -0.9271 -2.0025
 4176TIP3    H236724   2.084   0.434  20.602  1.1722  0.4018 -0.0091
 4177TIP3   OH236725   4.675   2.449  19.175  0.3954  0.7689  0.5223
 4177TIP3    H136726   4.608   2.390  19.210  0.1469  0.5021 -0.3798
 4177TIP3    H236727   4.737   2.460  19.247 -0.7617  1.2556  1.4866
 4178TIP3   OH236728   6.132   4.316  19.052 -0.3973 -0.3495 -0.1828
 4178TIP3    H136729   6.217   4.313  19.097  0.1992  0.7949 -1.1876
 4178TIP3    H236730   6.068   4.316  19.122  0.3500 -2.5186  0.6002
 4179TIP3   OH236731   2.367   4.348  18.101 -0.1486  0.5398 -0.1223
 4179TIP3    H136732   2.449   4.390  18.073 -0.6671  0.8434 -1.2150
 4179TIP3    H236733   2.353   4.381  18.190  1.4519 -0.3270  0.5058
 4180TIP3   OH236734   0.739   3.158  20.325  0.1807  0.1452  0.0071
 4180TIP3    H136735   0.678   3.219  20.366 -1.1758 -1.1995  0.0672
 4180TIP3    H236736   0.817   3.211  20.307 -1.1783  2.0609 -0.5984
 4181TIP3   OH236737   6.188   3.854  18.160  0.0064  0.3623 -0.3567
 4181TIP3    H136738   6.229   3.768  18.169  0.4020  0.3377 -2.1108
 4181TIP3    H236739   6.183   3.869  18.066  0.7426  2.6485 -0.0849
 4182TIP3   OH236740   3.389   1.078  17.666 -0.3260  0.1592  0.3643
 4182TIP3    H136741   3.320   1.088  17.731 -1.0750  1.3297 -0.5661
 4182TIP3    H236742   3.348   1.106  17.583  0.8740 -0.3860 -0.4406
 4183TIP3   OH236743   3.686   4.188  19.661  0.3677  0.1036 -0.1198
 4183TIP3    H136744   3.631   4.118  19.626  1.2844 -0.0104 -1.3954
 4183TIP3    H236745   3.681   4.177  19.756 -1.8447  0.1521 -0.1766
 4184TIP3   OH236746   4.751   4.536  19.748 -0.3948  0.3866  0.1972
 4184TIP3    H136747   4.673   4.566  19.701  0.1263  0.1784 -0.8150
 4184TIP3    H236748   4.731   4.554  19.840 -0.3979  3.2890 -0.2470
 4185TIP3   OH236749   1.964   1.971  20.323  0.9101  0.2490 -0.4905
 4185TIP3    H136750   1.998   1.881  20.323  1.4253  0.4312 -1.3770
 4185TIP3    H236751   2.016   2.016  20.257  3.1672  2.1890  2.3281
 4186TIP3   OH236752   1.581   3.021  18.769  0.1398 -0.3725  0.0674
 4186TIP3    H136753   1.666   3.054  18.738  0.5261  0.7811  2.1509
 4186TIP3    H236754   1.552   3.086  18.834 -1.5271 -1.6145  0.6422
 4187TIP3   OH236755   2.696   1.670  20.410 -0.5853  0.3009  0.1282
 4187TIP3    H136756   2.657   1.756  20.424 -1.8620 -0.2366 -0.0154
 4187TIP3    H236757   2.622   1.614  20.387 -0.4225 -1.7253  3.9014
 4188TIP3   OH236758   4.537   6.375  18.527 -0.3955 -0.3308  0.6099
 4188TIP3    H136759   4.628   6.352  18.541  0.1948  1.1127 -0.5175
 4188TIP3    H236760   4.487   6.317  18.584  1.0314 -3.1349 -0.7922
 4189TIP3   OH236761   1.940   5.430  17.892  0.0542  0.2022  0.4752
 4189TIP3    H136762   1.855   5.465  17.918  0.0909  0.4763  0.2245
 4189TIP3    H236763   1.955   5.356  17.952 -0.7709 -0.4169 -0.0573
 4190TIP3   OH236764   2.271   5.589  20.526 -0.4089  0.8753  0.3905
 4190TIP3    H136765   2.224   5.550  20.452  1.7730 -2.2901  0.4898
 4190TIP3    H236766   2.258   5.529  20.598  1.0868  1.6137  1.3356
 4191TIP3   OH236767   4.362   0.511  20.476 -0.8843  0.1785  0.9332
 4191TIP3    H136768   4.446   0.537  20.513 -0.4557 -1.6826  1.3469
 4191TIP3    H236769   4.377   0.507  20.382 -0.7379  0.6487  0.9357
 4192TIP3   OH236770   6.263   4.866  17.856 -0.2185 -0.4131 -0.3398
 4192TIP3    H136771   6.333   4.895  17.798 -0.9892  0.7608 -0.7266
 4192TIP3    H236772   6.265   4.928  17.930 -1.2186  0.0244 -0.6573
 4193TIP3   OH236773   6.289   1.182  18.250 -0.3129 -0.3526 -0.1993
 4193TIP3    H136774   6.363   1.146  18.201 -0.6785  1.2123 -2.0375
 4193TIP3    H236775   6.325   1.206  18.335  0.5781 -2.2997  0.0177
 4194TIP3   OH236776   5.483   0.671  20.098  0.4873  0.2966 -0.1507
 4194TIP3    H136777   5.521   0.585  20.115  0.6470 -0.4729 -3.5740
 4194TIP3    H236778   5.558   0.731  20.097  0.3120  0.7004  2.8266
 4195TIP3   OH236779   3.262   3.912  18.336 -0.6935  0.1644  0.0837
 4195TIP3    H136780   3.298   3.826  18.357 -1.6565  0.0809  1.4663
 4195TIP3    H236781   3.235   3.904  18.244 -1.4361 -1.2485  0.3950
 4196TIP3   OH236782   2.335   0.514  20.155  0.2421 -0.5868  0.0967
 4196TIP3    H136783   2.302   0.556  20.234  1.4448  1.0104 -0.1921
 4196TIP3    H236784   2.430   0.524  20.161  0.4079 -1.2032 -1.1291
 4197TIP3   OH236785   0.759   1.439  17.465  0.2495  0.7175 -0.2147
 4197TIP3    H136786   0.735   1.421  17.374  1.7417 -0.2777 -0.4484
 4197TIP3    H236787   0.790   1.529  17.465 -0.3609  0.9358 -0.5425
 4198TIP3   OH236788   3.592   2.609  19.369  0.0702  0.3387  0.7508
 4198TIP3    H136789   3.663   2.672  19.385 -0.7672  1.1334  1.4197
 4198TIP3    H236790   3.590   2.555  19.448 -0.1814  0.4159  0.7958
 4199TIP3   OH236791   2.265   6.084  20.789 -0.3380  0.3906  0.0394
 4199TIP3    H136792   2.308   5.998  20.790 -1.2588 -0.0841  0.4656
 4199TIP3    H236793   2.231   6.093  20.700 -1.0352 -0.1223  0.2342
 4200TIP3   OH236794   3.788   0.597  18.863 -0.1619  0.5393 -0.3382
 4200TIP3    H136795   3.743   0.524  18.905 -2.1388  0.6163 -2.1613
 4200TIP3    H236796   3.740   0.674  18.891  0.0233  0.8322 -0.8288
 4201TIP3   OH236797   1.881   5.262  18.099 -0.4107 -0.0383  0.0361
 4201TIP3    H136798   1.788   5.239  18.092 -0.9680  1.6817  1.1314
 4201TIP3    H236799   1.927   5.184  18.068 -2.2118 -0.1063 -2.8694
 4202TIP3   OH236800   6.510   6.214  19.873  0.0627 -0.0275  0.4889
 4202TIP3    H136801   6.464   6.209  19.789 -0.1501 -2.4300  0.6888
 4202TIP3    H236802   6.446   6.253  19.932 -1.7456 -3.0569  0.6944
 4203TIP3   OH236803   5.446   3.122  17.702 -0.5979  0.1807  0.0574
 4203TIP3    H136804   5.384   3.054  17.677  0.6467 -0.5810 -1.0925
 4203TIP3    H236805   5.466   3.167  17.620 -0.6489  1.3137  0.6451
 4204TIP3   OH236806   2.866   6.128  18.103 -0.2466  0.0213  0.1931
 4204TIP3    H136807   2.820   6.044  18.100  0.0189 -0.1087 -1.9739
 4204TIP3    H236808   2.958   6.105  18.088 -0.1846  0.6810 -0.5009
 4205TIP3   OH236809   2.597   0.208  20.434  0.2372  0.0135 -0.0242
 4205TIP3    H136810   2.635   0.294  20.421 -0.8824  0.7177  1.1353
 4205TIP3    H236811   2.610   0.189  20.527 -1.9110  0.1759  0.3685
 4206TIP3   OH236812   6.440   2.210  19.058 -0.0985  0.4990 -0.2296
 4206TIP3    H136813   6.495   2.253  19.124  2.9666  0.0241 -2.2198
 4206TIP3    H236814   6.439   2.272  18.985  0.4678 -0.7906 -1.3878
 4207TIP3   OH236815   5.243   5.875  19.211  0.0771  0.3942 -0.4360
 4207TIP3    H136816   5.263   5.803  19.151 -0.4282 -0.2247  0.1117
 4207TIP3    H236817   5.147   5.876  19.215  0.0705  1.3394 -0.7104
 4208TIP3   OH236818   4.868   3.093  17.252  0.4678  0.1933  0.3284
 4208TIP3    H136819   4.923   3.094  17.174  0.1194  1.9096  0.0671
 4208TIP3    H236820   4.779   3.109  17.220  0.3041  0.7965  1.0509
 4209TIP3   OH236821   1.720   5.589  19.405  0.2397 -0.9822  0.1418
 4209TIP3    H136822   1.662   5.525  19.362 -1.0879  1.0575 -1.2962
 4209TIP3    H236823   1.781   5.615  19.337 -0.1462  0.3008  0.2703
 4210TIP3   OH236824   1.645   6.287  19.850  0.1268  0.0367  0.2016
 4210TIP3    H136825   1.571   6.339  19.818  0.8389  0.9386 -0.0504
 4210TIP3    H236826   1.703   6.351  19.891  0.1385 -0.8401  1.6284
 4211TIP3   OH236827   2.595   1.924  19.178  0.9189  0.4361 -0.1292
 4211TIP3    H136828   2.646   1.968  19.109  2.3970 -1.0226 -0.0268
 4211TIP3    H236829   2.541   1.993  19.216 -0.2153  1.2518 -2.9524
 4212TIP3   OH236830   3.631   1.777  17.800  0.1798  0.5117  0.0544
 4212TIP3    H136831   3.560   1.831  17.768 -0.6641 -0.9428 -0.6355
 4212TIP3    H236832   3.658   1.818  17.882 -0.4391  1.9236 -0.4217
 4213TIP3   OH236833   1.789   1.587  20.336 -0.4687 -0.3890 -0.5731
 4213TIP3    H136834   1.735   1.542  20.399 -0.4408  1.2399  0.6861
 4213TIP3    H236835   1.748   1.673  20.326  2.1295  1.1282  0.8690
 4214TIP3   OH236836   0.372   4.105  19.895 -0.1776 -0.2531 -0.4478
 4214TIP3    H136837   0.288   4.081  19.933 -0.6515  2.3968  0.3970
 4214TIP3    H236838   0.427   4.126  19.970  0.1552  1.1937 -1.0618
 4215TIP3   OH236839   0.880   2.833  18.534 -0.1004 -0.1044  0.0561
 4215TIP3    H136840   0.900   2.755  18.585  1.1284 -0.6500 -1.1993
 4215TIP3    H236841   0.965   2.861  18.500 -0.6283  1.3596 -0.1168
 4216TIP3   OH236842   1.362   3.867  17.524  0.5737  0.2824 -0.6393
 4216TIP3    H136843   1.367   3.801  17.455 -0.7923 -0.6951  0.1588
 4216TIP3    H236844   1.322   3.822  17.599 -0.0212  1.8941  0.0720
 4217TIP3   OH236845   6.187   5.976  20.346  0.3071 -0.2855  0.7253
 4217TIP3    H136846   6.160   5.888  20.323  0.5129 -0.4509  1.1084
 4217TIP3    H236847   6.117   6.033  20.313  1.7218 -0.2256 -2.6592
 4218TIP3   OH236848   0.016   4.292  17.219  0.4367  1.1254  0.2948
 4218TIP3    H136849   0.100   4.338  17.227  1.0036  0.3361 -0.9049
 4218TIP3    H236850   0.019   4.252  17.132  0.9016 -2.9940  1.9990
 4219TIP3   OH236851   0.202   3.010  20.458  0.3684  0.8951  0.2074
 4219TIP3    H136852   0.201   2.935  20.516 -0.8620  0.7956  0.0776
 4219TIP3    H236853   0.255   3.076  20.504  1.7975 -0.1566  0.1427
 4220TIP3   OH236854   3.578   5.842  18.768 -0.4165 -0.2003 -0.1210
 4220TIP3    H136855   3.664   5.837  18.725 -0.5633  1.9960 -0.8226
 4220TIP3    H236856   3.533   5.763  18.741  1.1707 -1.1205 -0.2082
 4221TIP3   OH236857   6.708   1.402  18.084 -0.4496 -0.1735 -0.6773
 4221TIP3    H136858   6.745   1.323  18.045  0.0940  0.0084 -0.5490
 4221TIP3    H236859   6.704   1.466  18.013 -2.7787 -0.9013 -1.2858
 4222TIP3   OH236860   6.340   3.075  16.815 -0.0127  0.1930 -0.6407
 4222TIP3    H136861   6.284   3.016  16.867  1.4260 -1.3943 -0.8167
 4222TIP3    H236862   6.331   3.160  16.858 -0.1237 -0.7221  1.2471
 4223TIP3   OH236863   0.285   1.881  20.495  0.1040  0.1143  0.3007
 4223TIP3    H136864   0.190   1.871  20.494 -0.1314  2.1205 -0.4463
 4223TIP3    H236865   0.307   1.896  20.587 -0.5453  1.5169  0.2437
 4224TIP3   OH236866   2.635   1.254  18.416 -0.7916  0.4320 -0.0501
 4224TIP3    H136867   2.566   1.200  18.454 -0.6522 -0.7244 -1.3542
 4224TIP3    H236868   2.606   1.269  18.326 -0.1399  1.3568 -0.1154
 4225TIP3   OH236869   1.811   5.936  18.029  0.7196  0.2686  0.0223
 4225TIP3    H136870   1.755   5.984  18.090  1.8013  0.4350  0.9167
 4225TIP3    H236871   1.855   5.870  18.084 -1.2215 -2.2864 -1.2534
 4226TIP3   OH236872   2.102   1.142  18.021 -0.4981  0.2693 -0.1102
 4226TIP3    H136873   2.096   1.051  18.049 -2.7898  0.2669 -0.4118
 4226TIP3    H236874   2.070   1.142  17.931  0.5359  1.2230 -0.5008
 4227TIP3   OH236875   1.750   4.666  19.002 -0.4239 -0.2218  0.2314
 4227TIP3    H136876   1.747   4.677  19.097  1.6044  0.4030  0.2778
 4227TIP3    H236877   1.837   4.629  18.985 -0.4553  0.3946 -1.4361
 4228TIP3   OH236878   3.612   1.199  20.135 -0.4763 -0.4363  0.1523
 4228TIP3    H136879   3.562   1.177  20.214  0.7566  0.9975  1.3916
 4228TIP3    H236880   3.704   1.190  20.161  0.0411  2.6624 -0.2171
 4229TIP3   OH236881   6.658   4.053  19.461  0.1272  0.4338  0.2519
 4229TIP3    H136882   6.590   3.988  19.479  1.8688 -0.9431  2.4562
 4229TIP3    H236883   6.728   4.002  19.420  1.4508  0.9257  1.8267
 4230TIP3   OH236884   1.186   4.882  20.394  0.2488  0.0247 -0.1578
 4230TIP3    H136885   1.233   4.827  20.458 -1.2616 -0.0301  0.9747
 4230TIP3    H236886   1.244   4.956  20.379  1.2204 -0.6206  0.2436
 4231TIP3   OH236887   4.622   4.028  17.784 -0.4658  1.0671  0.3477
 4231TIP3    H136888   4.664   4.057  17.703  0.2717 -1.6875 -0.3493
 4231TIP3    H236889   4.541   3.986  17.756  1.1011 -2.4769  0.5799
 4232TIP3   OH236890   0.050   1.865  20.768  0.2935 -0.1273  0.1999
 4232TIP3    H136891   0.114   1.906  20.825  0.3130  0.2184 -0.0683
 4232TIP3    H236892  -0.010   1.936  20.744 -0.2107 -0.4518  0.4794
 4233TIP3   OH236893   2.533   2.936  20.311  0.0328  0.2167  0.2158
 4233TIP3    H136894   2.500   3.023  20.294 -0.8568  0.2197  1.8213
 4233TIP3    H236895   2.501   2.913  20.398 -0.1758 -1.9108 -0.3471
 4234TIP3   OH236896   6.503   2.915  18.009 -0.2451 -0.1600 -0.0506
 4234TIP3    H136897   6.455   2.965  17.943  1.5158  0.2495 -1.1004
 4234TIP3    H236898   6.497   2.824  17.979 -0.2597 -0.0977 -0.2356
 4235TIP3   OH236899   0.299   3.641  20.634  0.1507 -0.3383 -0.5205
 4235TIP3    H136900   0.303   3.584  20.558 -0.4108 -0.4257 -0.4942
 4235TIP3    H236901   0.380   3.623  20.682 -0.3320 -1.6298 -0.1509
 4236TIP3   OH236902   2.192   6.186  20.512  1.4132 -0.3473 -0.8025
 4236TIP3    H136903   2.109   6.232  20.519  0.8533 -1.3191 -0.8871
 4236TIP3    H236904   2.241   6.234  20.445 -0.2827 -1.4669 -2.9942
 4237TIP3   OH236905   3.357   0.430  18.268  0.1190 -0.2213 -0.1683
 4237TIP3    H136906   3.422   0.431  18.199 -0.8079  1.1766 -1.0660
 4237TIP3    H236907   3.286   0.375  18.234 -0.1310  0.0796 -0.1403
 4238TIP3   OH236908   1.031   5.817  20.819  0.3077  0.6137  0.3367
 4238TIP3    H136909   1.076   5.889  20.862  1.9649  0.0809 -0.4200
 4238TIP3    H236910   0.958   5.859  20.772  1.5574  1.9080 -0.5471
 4239TIP3   OH236911   0.658   3.257  18.005 -0.2297  0.3984 -0.0288
 4239TIP3    H136912   0.701   3.232  17.924  0.9190  0.8625  0.4221
 4239TIP3    H236913   0.728   3.263  18.069 -1.0307  0.6817  0.8483
 4240TIP3   OH236914   4.514   2.407  18.210  0.6172  0.2245 -0.4963
 4240TIP3    H136915   4.525   2.434  18.301  0.1259 -2.2637  0.3717
 4240TIP3    H236916   4.429   2.442  18.185  0.3250  0.1179  0.3160
 4241TIP3   OH236917   4.097   5.733  18.856 -0.3585 -1.1220 -0.1772
 4241TIP3    H136918   4.100   5.661  18.919  1.5729 -0.8847  0.0659
 4241TIP3    H236919   4.013   5.723  18.811 -0.7496 -2.6621  0.8394
 4242TIP3   OH236920   4.079   1.083  17.611  0.8598  0.0030  0.4949
 4242TIP3    H136921   4.028   1.144  17.665  0.1176  0.1048 -0.2961
 4242TIP3    H236922   4.019   1.011  17.593  0.5357  0.6967 -1.4839
 4243TIP3   OH236923   0.835   4.008  17.421 -0.0221  0.7760 -0.1439
 4243TIP3    H136924   0.765   3.960  17.378  0.0557  0.5327 -0.0002
 4243TIP3    H236925   0.798   4.096  17.435 -0.9931  0.1642  1.5658
 4244TIP3   OH236926   5.293   6.065  18.879 -0.1023  0.3325  0.2890
 4244TIP3    H136927   5.335   6.141  18.838 -1.1901  1.3044  0.9202
 4244TIP3    H236928   5.203   6.093  18.894 -0.6276 -1.2261  0.2096
 4245TIP3   OH236929   4.416   2.007  19.378 -0.2795 -0.6456 -0.0178
 4245TIP3    H136930   4.452   1.988  19.465  0.1987 -1.7463 -0.4358
 4245TIP3    H236931   4.406   1.921  19.337  0.8162 -0.0838 -1.5738
 4246TIP3   OH236932   4.208   3.927  20.279 -0.0758  0.0508 -0.3648
 4246TIP3    H136933   4.173   3.845  20.314 -2.7603  0.5637 -1.5503
 4246TIP3    H236934   4.168   3.995  20.333  3.2961  0.6751  1.5915
 4247TIP3   OH236935   5.602   2.885  19.121 -0.0045  0.2779 -0.0911
 4247TIP3    H136936   5.567   2.970  19.146  0.8337  0.2997  1.1058
 4247TIP3    H236937   5.591   2.830  19.199  0.9682 -0.2142 -0.2724
 4248TIP3   OH236938   3.331   4.287  18.702  0.7355 -0.0126  0.4209
 4248TIP3    H136939   3.351   4.339  18.625 -0.0968 -0.6446 -0.2497
 4248TIP3    H236940   3.334   4.196  18.671  0.3256 -0.2719  1.1096
 4249TIP3   OH236941   5.766   2.970  18.107 -0.0802 -0.1185  0.1614
 4249TIP3    H136942   5.679   2.953  18.071  0.5308 -2.5181 -0.3687
 4249TIP3    H236943   5.804   3.035  18.049 -1.0826  0.1103 -0.2708
 4250TIP3   OH236944   3.029   3.003  17.634  0.2598  0.0092  0.2084
 4250TIP3    H136945   3.046   3.002  17.540 -1.7963  0.1490 -0.2248
 4250TIP3    H236946   3.021   3.096  17.656  0.5315 -0.0312  0.4790
 4251TIP3   OH236947   3.506   5.145  20.715 -0.5669  0.5095 -0.2195
 4251TIP3    H136948   3.578   5.113  20.768  0.0723  0.3646 -1.1479
 4251TIP3    H236949   3.512   5.240  20.719 -0.8613  0.5091  0.3982
 4252TIP3   OH236950   5.198   5.172  19.959 -0.2094  0.8066 -0.0668
 4252TIP3    H136951   5.290   5.197  19.958  0.4663 -1.3805 -2.0204
 4252TIP3    H236952   5.174   5.161  19.867 -1.5132 -1.5437  0.4531
 4253TIP3   OH236953   0.332   6.641  19.188 -0.1000 -0.0306  0.2649
 4253TIP3    H136954   0.336   6.733  19.214 -1.7000 -0.1649  1.0869
 4253TIP3    H236955   0.245   6.612  19.215 -0.9346 -0.9201 -2.9225
 4254TIP3   OH236956   0.736   1.684  20.525 -0.1712 -0.5103  0.2231
 4254TIP3    H136957   0.665   1.629  20.557 -0.6589 -0.7796 -1.2462
 4254TIP3    H236958   0.728   1.681  20.430  0.1955  1.5691  0.0783
 4255TIP3   OH236959   3.940   5.292  19.491  0.2615  0.3511  0.1659
 4255TIP3    H136960   3.967   5.245  19.412 -0.6906 -0.4484  0.2882
 4255TIP3    H236961   3.993   5.371  19.492  1.3156 -0.3229 -0.5031
 4256TIP3   OH236962   0.267   1.321  18.796 -0.1422  0.0644 -0.1814
 4256TIP3    H136963   0.258   1.402  18.747  1.5912  0.5739  0.2899
 4256TIP3    H236964   0.194   1.267  18.766  0.4283  0.6038 -2.7876
 4257TIP3   OH236965   4.877   1.767  19.192 -0.5799  0.1045  0.3043
 4257TIP3    H136966   4.787   1.735  19.186 -0.4405 -0.3791  0.7143
 4257TIP3    H236967   4.929   1.689  19.213 -0.0914  0.4142  0.2706
 4258TIP3   OH236968   2.084   5.959  18.242  0.4729 -0.0394  0.4090
 4258TIP3    H136969   2.080   5.866  18.261  0.0511 -0.4443 -1.4606
 4258TIP3    H236970   2.020   5.999  18.300 -0.4960 -1.1283  0.1217
 4259TIP3   OH236971   5.344   0.185  19.984 -0.1846  0.4920  0.2301
 4259TIP3    H136972   5.297   0.104  20.004  0.4037  0.0058 -0.3451
 4259TIP3    H236973   5.276   0.245  19.954 -0.2785 -0.7869 -2.4239
 4260TIP3   OH236974   4.115   6.024  20.649  0.5075 -0.5543  0.4813
 4260TIP3    H136975   4.078   6.064  20.727  0.4271 -1.1941  0.7766
 4260TIP3    H236976   4.130   6.097  20.589  1.5357  0.0870  1.4764
 4261TIP3   OH236977   1.040   0.827  20.713  0.3848  0.2964  0.2380
 4261TIP3    H136978   1.043   0.852  20.621  1.1378 -0.2670  0.1011
 4261TIP3    H236979   1.131   0.827  20.741  0.4231 -2.0023  0.2978
 4262TIP3   OH236980   4.016   6.420  18.998  0.0354  0.3462  0.4863
 4262TIP3    H136981   4.064   6.502  18.982  0.1225  0.1493 -0.3271
 4262TIP3    H236982   4.070   6.372  19.060  0.4653  0.5024  0.2426
 4263TIP3   OH236983   3.976   4.213  20.186 -0.8113 -0.0893  0.3749
 4263TIP3    H136984   3.889   4.250  20.167 -0.1569  0.4220 -1.9495
 4263TIP3    H236985   3.985   4.141  20.125  0.5792  0.1662  0.2554
 4264TIP3   OH236986   4.603   5.121  19.113 -0.0271 -0.3111 -0.1048
 4264TIP3    H136987   4.639   5.209  19.100  0.1429 -0.5983 -1.7896
 4264TIP3    H236988   4.595   5.112  19.208  2.2867  0.5868  0.2293
 4265TIP3   OH236989   0.612   5.044  17.575  0.3800 -0.1351 -0.5146
 4265TIP3    H136990   0.519   5.026  17.589  0.6139 -0.7944  0.2605
 4265TIP3    H236991   0.618   5.139  17.572 -0.2276 -0.0745  0.0619
 4266TIP3   OH236992   2.270   4.443  18.333  0.3519 -0.5287  0.0967
 4266TIP3    H136993   2.178   4.464  18.318  0.1510 -1.3270  0.1733
 4266TIP3    H236994   2.282   4.456  18.427  0.6223  0.6941 -0.0878
 4267TIP3   OH236995   1.217   3.979  18.454 -0.1616 -0.0006  0.2776
 4267TIP3    H136996   1.154   4.000  18.386  0.7274  0.0454 -0.5504
 4267TIP3    H236997   1.165   3.974  18.534 -1.4962 -1.5672 -0.6120
 4268TIP3   OH236998   4.273   5.196  19.815 -0.3019 -0.1647  0.2110
 4268TIP3    H136999   4.205   5.263  19.804 -0.0432  0.1765  0.6717
 4268TIP3    H237000   4.249   5.151  19.895 -0.7116 -0.9167 -0.3180
 4269TIP3   OH237001   3.204   3.970  18.065  0.3614 -0.4212 -0.1074
 4269TIP3    H137002   3.157   4.022  18.130  1.9573  2.5648 -1.1603
 4269TIP3    H237003   3.144   3.964  17.991 -0.4129 -1.5056  0.5682
 4270TIP3   OH237004   4.471   3.472  18.112 -0.7129 -0.0689  0.1678
 4270TIP3    H137005   4.393   3.470  18.056 -0.4288  0.8783 -0.2820
 4270TIP3    H237006   4.452   3.409  18.182 -1.6926 -0.1791 -0.1816
 4271TIP3   OH237007   5.713   2.688  19.891 -0.1024 -0.1702  0.4285
 4271TIP3    H137008   5.668   2.603  19.894 -0.5220  0.0502  0.5245
 4271TIP3    H237009   5.642   2.752  19.897  0.3655  0.2069  3.2579
 4272TIP3   OH237010   2.523   4.007  20.567  0.0407  0.0172  0.3807
 4272TIP3    H137011   2.432   4.018  20.593 -0.3483  0.4313 -1.0439
 4272TIP3    H237012   2.540   3.913  20.577  0.0610  0.2017  2.4129
 4273TIP3   OH237013   3.876   6.314  20.427 -0.6794 -0.0302 -0.2973
 4273TIP3    H137014   3.950   6.373  20.443 -0.2403 -0.6012 -0.1757
 4273TIP3    H237015   3.819   6.363  20.368 -0.1675  0.3948 -0.4541
 4274TIP3   OH237016   6.583   6.598  19.397  1.1062  0.0505  0.2371
 4274TIP3    H137017   6.621   6.518  19.362 -0.4916 -0.5866 -0.0923
 4274TIP3    H237018   6.620   6.606  19.485  2.7078 -0.0301 -0.4044
 4275TIP3   OH237019   0.905   3.872  19.230 -0.1236  0.6079 -0.2584
 4275TIP3    H137020   0.934   3.955  19.192 -0.6139  1.1281  0.4752
 4275TIP3    H237021   0.948   3.805  19.177  2.4259  1.3253  0.7625
 4276TIP3   OH237022   4.397   3.864  17.667 -0.0162 -0.9502  0.2414
 4276TIP3    H137023   4.352   3.846  17.750 -0.7622  1.0963  0.3447
 4276TIP3    H237024   4.335   3.917  17.617  0.4556 -2.0895 -1.6305
 4277TIP3   OH237025   3.713   4.113  19.937 -0.7623  0.3425  0.2189
 4277TIP3    H137026   3.723   4.196  19.984  0.1671  0.3472  0.0205
 4277TIP3    H237027   3.681   4.052  20.004  2.1343 -0.0883  1.3471
 4278TIP3   OH237028   4.093   2.697  20.757  0.0811  0.0434  0.0948
 4278TIP3    H137029   4.133   2.613  20.781  2.3038  0.8419 -0.6092
 4278TIP3    H237030   4.142   2.762  20.807 -1.4805  0.9813  0.4790
 4279TIP3   OH237031   3.739   4.916  19.081  0.0754  0.2095  0.3039
 4279TIP3    H137032   3.788   4.937  19.160 -0.0297  0.0793  0.4056
 4279TIP3    H237033   3.649   4.943  19.101  0.0700  0.2777  0.1876
 4280TIP3   OH237034   5.947   2.121  19.986  0.5735  0.0641 -0.0275
 4280TIP3    H137035   5.857   2.087  19.978  0.7740 -0.1903 -1.6460
 4280TIP3    H237036   5.993   2.055  20.037  0.0475 -0.2557  0.0468
 4281TIP3   OH237037   3.176   5.731  17.968  0.2982 -0.5848 -0.4422
 4281TIP3    H137038   3.203   5.746  18.059 -2.4071 -0.3562  0.4021
 4281TIP3    H237039   3.206   5.643  17.948  1.1523 -0.5413  0.5836
 4282TIP3   OH237040   0.977   2.302  17.590 -0.2580  0.4703 -0.2060
 4282TIP3    H137041   0.899   2.313  17.645  0.8339 -0.1818  1.5571
 4282TIP3    H237042   0.992   2.389  17.552 -0.7545  1.0746  0.9347
 4283TIP3   OH237043   5.364   2.421  18.647 -0.3747  0.6667 -0.3950
 4283TIP3    H137044   5.324   2.403  18.562  1.0718  0.8668 -1.1451
 4283TIP3    H237045   5.452   2.385  18.640 -0.0900  1.0746  0.8779
 4284TIP3   OH237046   6.249   2.105  17.249 -0.4241 -0.3784 -0.5260
 4284TIP3    H137047   6.186   2.087  17.318 -0.2947  0.9909 -0.0331
 4284TIP3    H237048   6.197   2.111  17.169 -0.7333 -0.6293 -0.3454
 4285TIP3   OH237049   0.582   1.764  19.278  0.0438  0.1407 -0.1160
 4285TIP3    H137050   0.582   1.860  19.288  2.1769  0.1336  0.5387
 4285TIP3    H237051   0.493   1.738  19.299 -0.5995  1.9847 -0.3270
 4286TIP3   OH237052   2.073   1.630  19.645 -0.0360  0.3006 -0.6620
 4286TIP3    H137053   2.133   1.663  19.578 -0.0885 -0.4390 -1.0862
 4286TIP3    H237054   2.041   1.547  19.609  1.6587 -1.2850  1.2086
 4287TIP3   OH237055   1.718   0.794  20.026 -0.2057 -0.3064 -0.4361
 4287TIP3    H137056   1.644   0.848  20.052  0.1187  0.3721 -0.8767
 4287TIP3    H237057   1.680   0.709  20.005 -0.9544  0.2007 -1.2302
 4288TIP3   OH237058   4.971   6.044  19.765 -0.5682  0.2101 -0.5636
 4288TIP3    H137059   4.998   6.098  19.840  1.3764  0.4305 -1.3520
 4288TIP3    H237060   4.876   6.057  19.759 -0.9418 -0.5079  2.3612
 4289TIP3   OH237061   3.804   2.745  19.880  0.1067  0.4856 -0.2198
 4289TIP3    H137062   3.845   2.723  19.796 -1.9959  0.1726 -1.2515
 4289TIP3    H237063   3.767   2.832  19.866  0.6283  0.8767  0.7628
 4290TIP3   OH237064   1.595   0.206  18.706  0.2519 -0.6792  0.0565
 4290TIP3    H137065   1.528   0.155  18.753 -0.0763 -0.7578 -0.4875
 4290TIP3    H237066   1.546   0.257  18.642  0.8208 -1.9698 -1.4856
 4291TIP3   OH237067   1.690   3.191  17.620 -0.1224 -0.4148  0.3172
 4291TIP3    H137068   1.717   3.276  17.587 -1.1275  0.0711  0.6881
 4291TIP3    H237069   1.710   3.130  17.549  0.0097  0.2267 -0.2062
 4292TIP3   OH237070   5.314   6.334  18.832  0.0660 -0.0925  0.6823
 4292TIP3    H137071   5.368   6.338  18.911  1.8969  0.2637 -0.5198
 4292TIP3    H237072   5.283   6.423  18.820 -1.1426 -0.3675  1.5694
 4293TIP3   OH237073   2.656   3.881  20.045  0.0516 -0.4107  0.7679
 4293TIP3    H137074   2.619   3.954  19.997  1.6828  0.1665  0.3289
 4293TIP3    H237075   2.602   3.806  20.020 -0.0855  0.1657 -0.7806
 4294TIP3   OH237076   2.343   4.142  20.166 -0.3673  0.3524 -0.5699
 4294TIP3    H137077   2.320   4.071  20.225 -1.5577  1.1156 -0.0859
 4294TIP3    H237078   2.275   4.139  20.098  0.1178  0.4462 -1.0678
 4295TIP3   OH237079   2.921   4.275  20.353 -0.6788  0.0690 -0.3093
 4295TIP3    H137080   2.890   4.287  20.443  0.3609 -1.8069  0.3496
 4295TIP3    H237081   2.866   4.204  20.319 -0.9490  0.6531 -1.1320
 4296TIP3   OH237082   3.223   5.549  18.228  0.1466 -0.0449  0.0664
 4296TIP3    H137083   3.250   5.473  18.278  1.5272  0.9910  0.9638
 4296TIP3    H237084   3.255   5.532  18.139  1.8489  0.1355  0.6024
 4297TIP3   OH237085   3.086   6.312  17.077  0.1417 -0.3429  0.7168
 4297TIP3    H137086   3.017   6.310  17.012 -0.0672  1.1119  0.8741
 4297TIP3    H237087   3.131   6.228  17.066  0.7668  0.2516 -1.9839
 4298TIP3   OH237088   2.132   2.278  18.948  0.8562  0.3752 -0.2204
 4298TIP3    H137089   2.162   2.249  18.862  0.6442  0.8717 -0.4662
 4298TIP3    H237090   2.039   2.257  18.950  0.9149  0.1385 -0.0185
 4299TIP3   OH237091   2.785   1.718  19.386  0.3771  0.4609  0.0401
 4299TIP3    H137092   2.810   1.626  19.378  0.3940  0.5020 -0.4701
 4299TIP3    H237093   2.749   1.739  19.300 -0.6520  0.6308  0.5039
 4300TIP3   OH237094   1.329   2.932  18.678 -0.0060  0.2793  0.2167
 4300TIP3    H137095   1.253   2.969  18.724  0.1557 -0.2887  0.9580
 4300TIP3    H237096   1.401   2.991  18.700  0.9374 -1.9338  3.8361
 4301TIP3   OH237097   1.027   0.501  18.621 -0.3301 -0.1924 -0.1332
 4301TIP3    H137098   1.046   0.409  18.642 -0.3505 -0.4464 -1.1896
 4301TIP3    H237099   0.987   0.498  18.534 -0.4626  0.8089 -0.1137
 4302TIP3   OH237100   4.223   3.721  18.672 -0.3950 -0.5679 -0.3109
 4302TIP3    H137101   4.276   3.789  18.713  0.8000 -0.1804 -2.4170
 4302TIP3    H237102   4.241   3.643  18.724 -0.4495  0.2848  1.0686
 4303TIP3   OH237103   2.528   2.094  18.420 -0.0508  0.1986 -0.5361
 4303TIP3    H137104   2.608   2.103  18.471 -0.4497  0.2473  0.0980
 4303TIP3    H237105   2.522   2.175  18.369  1.6604 -0.8906 -2.6110
 4304TIP3   OH237106   5.469   2.499  20.101  0.4145 -0.5580  0.4859
 4304TIP3    H137107   5.523   2.419  20.102 -0.5463 -1.2956 -1.3516
 4304TIP3    H237108   5.405   2.483  20.031 -0.3630  1.4773  0.6825
 4305TIP3   OH237109   0.159   2.036  20.137 -0.3690  0.3747  0.3821
 4305TIP3    H137110   0.253   2.033  20.155 -0.2398 -0.9359 -0.4599
 4305TIP3    H237111   0.152   2.047  20.043 -1.0768  1.4787  0.5401
 4306TIP3   OH237112   0.017   5.567  19.406  0.5173  0.4138 -0.0621
 4306TIP3    H137113   0.008   5.543  19.314 -0.8409 -1.3670  0.4784
 4306TIP3    H237114  -0.045   5.639  19.418  0.6199  0.5815 -0.5028
 4307TIP3   OH237115   1.255   1.536  20.965  0.2451 -0.0843  0.1076
 4307TIP3    H137116   1.228   1.587  21.041 -0.1882  0.1831 -0.2181
 4307TIP3    H237117   1.331   1.582  20.930 -0.4174  0.6119 -0.4517
 4308TIP3   OH237118   0.195   1.874  19.715 -0.4275  0.1322  1.0245
 4308TIP3    H137119   0.179   1.843  19.804  2.0882 -2.2647  0.7693
 4308TIP3    H237120   0.142   1.816  19.660 -0.6185  0.4701  0.8495
 4309TIP3   OH237121   2.268   1.725  19.471  0.0584 -0.5870  0.0191
 4309TIP3    H137122   2.333   1.707  19.403  1.1688 -0.2120  0.9606
 4309TIP3    H237123   2.286   1.815  19.499 -1.4315 -0.1585 -0.3021
 4310TIP3   OH237124   6.062   6.118  19.672 -0.1478 -0.0122  0.5960
 4310TIP3    H137125   6.122   6.084  19.738  1.4030  1.4760  0.0235
 4310TIP3    H237126   6.104   6.099  19.588 -1.0456  0.0388  0.1189
 4311TIP3   OH237127   0.543   5.403  18.219 -0.8177 -0.2088 -0.9119
 4311TIP3    H137128   0.499   5.330  18.174 -0.4914 -0.0824 -1.4427
 4311TIP3    H237129   0.485   5.478  18.205 -0.4657 -0.0551 -1.5624
 4312TIP3   OH237130   1.568   5.161  17.286 -0.6768 -0.6426  0.1132
 4312TIP3    H137131   1.496   5.100  17.271 -1.8865  0.2108  2.0140
 4312TIP3    H237132   1.528   5.248  17.274  0.4690 -0.1692 -0.4340
 4313TIP3   OH237133   5.128   0.359  20.634 -0.5907  0.5704  0.0686
 4313TIP3    H137134   5.131   0.387  20.543 -1.3008  0.4414  0.0023
 4313TIP3    H237135   5.195   0.290  20.639 -0.5510  0.5739 -0.3487
 4314TIP3   OH237136   3.637   1.235  18.801 -0.2394  1.0148  0.6643
 4314TIP3    H137137   3.570   1.268  18.742  0.2547  0.6894 -0.1025
 4314TIP3    H237138   3.694   1.310  18.817  0.1756  0.8674 -0.0708
 4315TIP3   OH237139   4.633   4.009  18.872  0.5201  0.1039  0.0665
 4315TIP3    H137140   4.589   4.009  18.957  0.0910 -1.2041 -0.1277
 4315TIP3    H237141   4.713   3.959  18.887 -0.0736 -1.0622 -0.5253
 4316TIP3   OH237142   4.055   3.707  19.586 -0.1073  0.9055 -0.1102
 4316TIP3    H137143   4.000   3.781  19.611  0.8689  1.2983  0.9564
 4316TIP3    H237144   4.118   3.697  19.658  0.5132 -0.2330 -0.7641
 4317TIP3   OH237145   4.445   0.508  19.307  0.5510  0.0493  0.0366
 4317TIP3    H137146   4.405   0.437  19.357 -1.2965  1.1894  0.2566
 4317TIP3    H237147   4.434   0.483  19.215  0.5729 -0.2951  0.1289
 4318TIP3   OH237148   1.933   5.012  18.606 -0.1587  0.0605 -0.4414
 4318TIP3    H137149   1.879   4.934  18.620 -1.1178  0.9126  0.8740
 4318TIP3    H237150   1.927   5.028  18.512 -0.6550 -0.9530 -0.5982
 4319TIP3   OH237151   0.936   5.179  20.565  0.0450  0.5234  1.0140
 4319TIP3    H137152   0.963   5.088  20.563 -0.9723  0.2146 -0.2137
 4319TIP3    H237153   0.844   5.176  20.593 -0.4410  1.0127 -0.4178
 4320TIP3   OH237154   4.548   4.885  20.851 -0.2648 -0.3902 -0.0967
 4320TIP3    H137155   4.587   4.916  20.933  0.3128 -1.6220  0.1248
 4320TIP3    H237156   4.508   4.963  20.812  1.0751  0.6131  0.4397
 4321TIP3   OH237157   0.331   2.062  18.664  0.4002 -0.3868 -0.6521
 4321TIP3    H137158   0.296   2.039  18.578 -2.1250 -0.5856  0.3590
 4321TIP3    H237159   0.338   2.157  18.663 -0.3178 -0.3357 -0.8218
 4322TIP3   OH237160   3.482   3.892  17.195 -0.3141  0.1244  0.5854
 4322TIP3    H137161   3.436   3.939  17.125 -0.0657 -1.1022 -0.4300
 4322TIP3    H237162   3.535   3.826  17.149  0.2192 -0.3999  1.9082
 4323TIP3   OH237163   6.188   5.986  19.062 -1.1621 -0.3228  0.1175
 4323TIP3    H137164   6.226   6.072  19.044  1.7604 -1.7989 -1.5241
 4323TIP3    H237165   6.211   5.968  19.153  1.6851 -0.8530 -0.6134
 4324TIP3   OH237166   0.497   4.714  18.458  0.4595  0.8143 -0.2445
 4324TIP3    H137167   0.406   4.728  18.483  0.3931  0.5165 -0.3177
 4324TIP3    H237168   0.508   4.766  18.379  0.8810  2.3840  0.7994
 4325TIP3   OH237169   2.052   0.720  19.747 -0.2604  0.2397 -0.3584
 4325TIP3    H137170   2.049   0.658  19.820  0.7673 -0.3327 -0.7935
 4325TIP3    H237171   1.960   0.742  19.731 -0.5113  0.2886  1.0248
 4326TIP3   OH237172   2.800   3.607  19.942 -0.0798  0.4238 -0.3654
 4326TIP3    H137173   2.709   3.631  19.926 -0.1937  0.7853  0.7512
 4326TIP3    H237174   2.851   3.682  19.912 -0.3707  1.7079  2.0830
 4327TIP3   OH237175   0.014   4.567  19.851 -0.0960 -0.0380  0.0683
 4327TIP3    H137176  -0.068   4.588  19.894 -0.1893  0.0395 -0.1440
 4327TIP3    H237177   0.082   4.608  19.905 -0.1256 -0.8394  0.7346
 4328TIP3   OH237178   0.593   5.364  20.675 -0.3319 -0.3810 -0.0129
 4328TIP3    H137179   0.557   5.352  20.763  1.4755  0.0590  0.8541
 4328TIP3    H237180   0.571   5.284  20.628 -2.1173 -0.2397  0.5386
 4329TIP3   OH237181   1.108   5.606  20.424 -0.6663 -0.0194 -0.5266
 4329TIP3    H137182   1.182   5.606  20.483 -0.1729  0.1530 -1.1374
 4329TIP3    H237183   1.085   5.513  20.414 -1.4226  0.0043  0.7339
 4330TIP3   OH237184   1.403   6.402  18.275 -0.0304  0.0114 -0.4240
 4330TIP3    H137185   1.332   6.353  18.234 -0.3500 -0.0628  0.2060
 4330TIP3    H237186   1.426   6.351  18.353  1.8241 -0.8319 -1.4546
 4331TIP3   OH237187   6.204   2.454  19.944 -0.2021  0.9393  0.2005
 4331TIP3    H137188   6.174   2.378  19.893 -0.3812  0.6220  0.7767
 4331TIP3    H237189   6.138   2.521  19.927  1.2028  1.8431 -2.2989
 4332TIP3   OH237190   5.209   6.636  19.787 -0.0158 -0.5949 -0.3438
 4332TIP3    H137191   5.221   6.731  19.788  0.6520 -0.6450  1.9376
 4332TIP3    H237192   5.227   6.611  19.696 -0.8232  1.5026 -1.1444
 4333TIP3   OH237193   4.370   1.859  18.726 -0.1981  0.6401  0.3199
 4333TIP3    H137194   4.384   1.784  18.783 -0.0108  1.0452  0.8142
 4333TIP3    H237195   4.458   1.882  18.696 -0.0242  1.7705  1.6084
 4334TIP3   OH237196   5.214   0.965  18.331  0.0823 -0.2080 -0.8215
 4334TIP3    H137197   5.175   0.939  18.248 -0.7594 -0.7485 -0.2760
 4334TIP3    H237198   5.256   0.885  18.364  1.2455  0.2430 -1.1643
 4335TIP3   OH237199   5.731   3.936  19.860  0.2563  0.2816  0.3572
 4335TIP3    H137200   5.797   4.003  19.874 -0.0117  0.4807  0.6842
 4335TIP3    H237201   5.779   3.863  19.820  0.2080  1.3368 -1.7247
 4336TIP3   OH237202   5.109   2.782  20.382  0.4002  0.1839 -0.3783
 4336TIP3    H137203   5.173   2.714  20.360  1.1073  0.3886  0.8993
 4336TIP3    H237204   5.159   2.844  20.436 -0.3517  1.4695 -1.1285
 4337TIP3   OH237205   5.294   2.463  17.920  0.1923  0.0281  0.3993
 4337TIP3    H137206   5.240   2.439  17.845  1.8274 -0.8186 -0.5616
 4337TIP3    H237207   5.369   2.403  17.916  0.4374  0.0838  2.6038
 4338TIP3   OH237208   0.239   5.004  20.654  0.4637 -0.1118  0.1726
 4338TIP3    H137209   0.146   4.984  20.644  0.3548  0.2411  0.4330
 4338TIP3    H237210   0.242   5.099  20.665  0.9577  0.0315 -1.0252
 4339TIP3   OH237211   0.024   1.030  20.762  0.2314 -0.4654  0.2698
 4339TIP3    H137212  -0.064   1.007  20.792 -0.2690 -0.5983 -1.1981
 4339TIP3    H237213   0.010   1.074  20.678  1.6202 -2.1062 -0.9133
 4340TIP3   OH237214   3.916   4.726  20.170 -0.4470  0.1858 -0.3027
 4340TIP3    H137215   3.943   4.668  20.098 -0.5432 -0.3767  0.1022
 4340TIP3    H237216   3.831   4.691  20.197 -0.6580  0.7227 -0.2620
 4341TIP3   OH237217   0.679   2.195  18.112  0.2193 -0.1281 -0.0787
 4341TIP3    H137218   0.633   2.225  18.191  1.5382  2.7154 -0.2786
 4341TIP3    H237219   0.768   2.177  18.142  0.2911 -0.7321 -0.6251
 4342TIP3   OH237220   6.088   0.215  20.429 -0.7214 -0.2608  0.1353
 4342TIP3    H137221   6.178   0.242  20.407 -0.9967  0.5976  0.0307
 4342TIP3    H237222   6.084   0.221  20.524 -1.2710  1.7616  0.0307
 4343TIP3   OH237223   5.703   4.490  20.962 -0.4781 -0.3339 -0.3642
 4343TIP3    H137224   5.709   4.567  21.018  1.2473 -1.5078  1.2074
 4343TIP3    H237225   5.628   4.507  20.905 -1.0578  1.8253  0.9231
 4344TIP3   OH237226   1.004   3.732  20.444  0.2916  0.0313 -0.4478
 4344TIP3    H137227   0.955   3.749  20.524  1.1135  0.9686 -0.1286
 4344TIP3    H237228   0.941   3.751  20.374  0.1913  1.3137 -0.0477
 4345TIP3   OH237229   3.584   6.659  19.592 -0.3312  0.1890  0.0772
 4345TIP3    H137230   3.558   6.656  19.500 -0.5436 -0.9050  0.1618
 4345TIP3    H237231   3.520   6.603  19.637  1.8512 -2.2840  0.3395
 4346TIP3   OH237232   0.800   0.111  17.800 -0.1131  0.0912 -0.3671
 4346TIP3    H137233   0.749   0.186  17.830 -0.1427  0.2001 -0.6805
 4346TIP3    H237234   0.816   0.129  17.707 -1.0387 -0.8090 -0.7240
 4347TIP3   OH237235   2.214   2.543  18.270 -0.2064  0.0690  0.1182
 4347TIP3    H137236   2.224   2.452  18.298 -0.8031  0.6825  2.6087
 4347TIP3    H237237   2.139   2.542  18.211  1.3783 -1.3764 -2.0119
 4348TIP3   OH237238   2.232   6.014  18.603  0.2494  0.2100  0.2694
 4348TIP3    H137239   2.283   5.988  18.526 -2.6576 -0.7865 -1.5233
 4348TIP3    H237240   2.202   5.932  18.641 -0.7366  0.7276  0.6682
 4349TIP3   OH237241   0.106   1.799  17.275 -0.3744  0.0680 -0.2076
 4349TIP3    H137242   0.048   1.875  17.263  0.0189  0.4251  0.1309
 4349TIP3    H237243   0.169   1.806  17.203 -0.3928  0.0109 -0.2289
 4350TIP3   OH237244   0.390   1.341  19.906 -0.2879  0.1041  0.2448
 4350TIP3    H137245   0.308   1.320  19.861  0.0663  1.3382 -1.0609
 4350TIP3    H237246   0.451   1.274  19.877 -1.2314 -1.9955  2.7214
 4351TIP3   OH237247   3.155   2.600  20.283  0.2012  0.1399  0.2675
 4351TIP3    H137248   3.234   2.555  20.314 -0.1498 -0.2758  0.5626
 4351TIP3    H237249   3.114   2.636  20.362 -0.5209 -0.6467  0.2607
 4352TIP3   OH237250   3.142   6.040  18.152 -0.2916  0.0292  0.1004
 4352TIP3    H137251   3.136   6.089  18.233 -0.0880  0.7202 -0.2957
 4352TIP3    H237252   3.207   5.972  18.169  1.5315  1.6178 -0.1973
 4353TIP3   OH237253   1.573   5.804  20.320 -0.2628 -0.0477  0.2270
 4353TIP3    H137254   1.496   5.856  20.345  0.7913  1.5366  0.3068
 4353TIP3    H237255   1.556   5.777  20.230 -0.5673  0.9996 -0.0452
 4354TIP3   OH237256   1.837   2.891  17.969 -0.0058  0.2598 -0.1547
 4354TIP3    H137257   1.904   2.824  17.981  0.4341  0.8173  0.6616
 4354TIP3    H237258   1.822   2.894  17.875  1.3706  0.3409 -0.3966
 4355TIP3   OH237259   0.180   4.291  17.880 -0.5171  0.0872 -0.5320
 4355TIP3    H137260   0.141   4.206  17.863 -0.5495  0.0794 -0.4191
 4355TIP3    H237261   0.261   4.291  17.829 -0.3668 -0.1290 -0.2925
 4356TIP3   OH237262   5.292   0.380  18.538  0.3211  0.2654 -0.4773
 4356TIP3    H137263   5.285   0.300  18.487 -1.4476  0.4854 -0.6167
 4356TIP3    H237264   5.235   0.366  18.614  0.0089  1.3704 -0.4865
 4357TIP3   OH237265   0.715   2.289  20.086  0.5657 -0.1379  0.3306
 4357TIP3    H137266   0.723   2.358  20.020 -0.3316  1.1273  1.4934
 4357TIP3    H237267   0.798   2.241  20.080  0.6306  0.1293 -1.4726
 4358TIP3   OH237268   2.228   4.555  19.920 -0.0907  0.1576  0.5631
 4358TIP3    H137269   2.213   4.574  20.013  0.2015 -0.1568  0.6765
 4358TIP3    H237270   2.321   4.574  19.906 -0.1865  0.4217  0.2805
 4359TIP3   OH237271   4.334   5.916  18.351 -0.2583  0.2068  0.0551
 4359TIP3    H137272   4.403   5.874  18.299 -1.4804 -0.0951 -1.3783
 4359TIP3    H237273   4.328   5.864  18.430  0.6265 -0.2305 -0.1517
 4360TIP3   OH237274   1.379   0.070  18.051 -0.0889  0.1703 -0.7521
 4360TIP3    H137275   1.428   0.056  17.970 -0.4653 -0.8503 -0.8281
 4360TIP3    H237276   1.291   0.038  18.031  0.2346 -1.7470  0.5374
 4361TIP3   OH237277   2.816   4.263  18.594  0.0985 -0.4951 -0.0569
 4361TIP3    H137278   2.889   4.279  18.654 -1.3153 -0.2368  1.6882
 4361TIP3    H237279   2.826   4.171  18.568  0.3143 -0.8572  1.2298
 4362TIP3   OH237280   5.371   2.436  18.204 -0.0984  0.3162  0.5753
 4362TIP3    H137281   5.345   2.471  18.119 -1.5643 -1.5141  0.2218
 4362TIP3    H237282   5.425   2.506  18.243  1.0392  0.9976 -2.0289
 4363TIP3   OH237283   4.011   5.254  20.944  0.1103 -0.5773  0.3065
 4363TIP3    H137284   4.082   5.190  20.951 -0.3701 -1.0533  0.8711
 4363TIP3    H237285   3.980   5.265  21.034  1.2081  1.6319  0.4894
 4364TIP3   OH237286   5.561   3.637  18.790  0.5400 -0.3171  0.7936
 4364TIP3    H137287   5.566   3.618  18.697  1.9500 -2.9908  1.3006
 4364TIP3    H237288   5.560   3.733  18.795 -1.0123 -0.0945 -1.9571
 4365TIP3   OH237289   4.100   4.086  20.452 -0.1480 -0.1515  0.1570
 4365TIP3    H137290   4.016   4.132  20.454 -0.2768 -0.3783  0.0218
 4365TIP3    H237291   4.108   4.046  20.538 -0.1279 -0.0377  0.2069
 4366TIP3   OH237292   4.498   5.943  17.024 -0.8163 -0.4142 -0.6503
 4366TIP3    H137293   4.576   5.935  16.969 -0.4874 -0.1099 -0.2296
 4366TIP3    H237294   4.472   5.852  17.041 -1.1331 -0.5120 -1.6024
 4367TIP3   OH237295   6.655   3.648  20.732  0.0479  0.2894  0.3053
 4367TIP3    H137296   6.676   3.720  20.791 -0.1745  2.0153 -1.5972
 4367TIP3    H237297   6.740   3.612  20.706  0.1404 -1.6550  2.8721
 4368TIP3   OH237298   2.063   4.206  19.759  0.0720  0.4594  0.1106
 4368TIP3    H137299   1.969   4.227  19.755  0.0553  0.5634  0.8780
 4368TIP3    H237300   2.105   4.276  19.710 -0.1583  1.1175  0.8296
 4369TIP3   OH237301   0.068   5.609  17.246 -0.2897  0.1723 -0.1576
 4369TIP3    H137302   0.140   5.606  17.183  0.0330  2.1958  0.0188
 4369TIP3    H237303   0.084   5.690  17.295 -1.7797 -0.2012  1.0056
 4370TIP3   OH237304   1.914   0.763  18.283 -0.2889  0.5769 -0.0338
 4370TIP3    H137305   1.860   0.783  18.359 -2.3512 -2.2717 -0.5969
 4370TIP3    H237306   1.856   0.715  18.224  2.1181 -0.1757 -1.9706
 4371TIP3   OH237307   0.791   5.175  17.052  0.1926  0.2779 -0.0536
 4371TIP3    H137308   0.837   5.252  17.085  1.9578 -0.6096 -0.3599
 4371TIP3    H237309   0.735   5.148  17.126  0.9948  0.7284  0.7375
 4372TIP3   OH237310   3.122   2.554  18.847  0.7525 -0.1365 -0.4595
 4372TIP3    H137311   3.026   2.558  18.844  0.6553 -1.3406  0.3507
 4372TIP3    H237312   3.150   2.641  18.820 -0.6050  0.6174  0.4172
 4373TIP3   OH237313   4.159   0.266  18.507  0.1893 -0.3295  0.7216
 4373TIP3    H137314   4.094   0.296  18.443 -0.0340 -0.7947  0.7308
 4373TIP3    H237315   4.242   0.304  18.477  0.0746 -0.4939  0.1964
 4374TIP3   OH237316   5.130   1.131  20.499 -0.0524 -0.1481 -0.1751
 4374TIP3    H137317   5.136   1.178  20.416 -2.9685  0.4254 -0.1516
 4374TIP3    H237318   5.122   1.039  20.475  0.9966 -0.1838 -0.4237
 4375TIP3   OH237319   4.066   3.057  17.658 -0.7052  0.0914 -0.3731
 4375TIP3    H137320   3.971   3.047  17.661 -0.7876  0.9283  0.9894
 4375TIP3    H237321   4.097   2.978  17.614 -2.0287 -0.1742 -0.8895
 4376TIP3   OH237322   6.231   2.725  18.386 -0.6695 -0.1787  0.1024
 4376TIP3    H137323   6.191   2.684  18.463  2.0785 -2.8180  0.2727
 4376TIP3    H237324   6.218   2.819  18.401 -3.2833 -0.7124  1.9805
 4377TIP3   OH237325   5.989   2.857  20.209 -0.2039  0.1155  0.1211
 4377TIP3    H137326   6.002   2.788  20.273  1.1575 -2.1078 -2.3481
 4377TIP3    H237327   5.894   2.873  20.210 -0.2285  0.1665  2.5647
 4378TIP3   OH237328   0.398   4.550  18.698  0.9439 -0.6707  0.7728
 4378TIP3    H137329   0.440   4.635  18.692 -0.9856  0.3825  1.3312
 4378TIP3    H237330   0.350   4.541  18.616 -0.6718 -0.1484  1.6097
 4379TIP3   OH237331   4.032   6.057  20.009 -0.1764  0.1700 -0.7081
 4379TIP3    H137332   4.031   6.152  19.999  3.8225  0.3979 -0.6377
 4379TIP3    H237333   4.039   6.043  20.103  0.9342 -0.0513 -0.8053
 4380TIP3   OH237334   2.176   5.353  19.603 -0.3622 -0.3242 -0.4885
 4380TIP3    H137335   2.166   5.304  19.521 -1.5474  1.2742 -1.3499
 4380TIP3    H237336   2.090   5.347  19.645  0.0733 -0.6421  0.3783
 4381TIP3   OH237337   3.247   6.247  19.797  0.4101  0.2466  0.3527
 4381TIP3    H137338   3.151   6.242  19.795  0.3771  0.6767 -1.8032
 4381TIP3    H237339   3.275   6.182  19.732  1.6078 -0.0268  1.1152
 4382TIP3   OH237340   1.434   0.303  20.646  0.1311 -0.1253  0.4442
 4382TIP3    H137341   1.399   0.387  20.675  0.5957  0.4758 -0.6606
 4382TIP3    H237342   1.359   0.243  20.648 -0.2000  0.3084  1.2499
 4383TIP3   OH237343   4.238   2.434  18.549  0.1581 -0.5682 -0.4509
 4383TIP3    H137344   4.146   2.438  18.521  0.1268  0.1692 -0.2468
 4383TIP3    H237345   4.268   2.349  18.517 -0.8460 -1.2089  0.2658
 4384TIP3   OH237346   2.903   6.039  20.732  0.1787 -0.2188  0.3260
 4384TIP3    H137347   2.962   5.974  20.772 -0.9019 -1.2399  0.3347
 4384TIP3    H237348   2.859   5.990  20.662  0.2951  0.8897 -0.5440
 4385TIP3   OH237349   0.811   1.982  17.826  0.1322 -0.4000  0.2007
 4385TIP3    H137350   0.749   1.997  17.898 -0.1855 -1.2738  0.1239
 4385TIP3    H237351   0.756   1.977  17.748  0.4412  0.1992 -0.0601
 4386TIP3   OH237352   5.701   2.001  19.141  0.3548 -0.2435  0.1814
 4386TIP3    H137353   5.641   2.076  19.145  0.1845 -0.3491 -0.2898
 4386TIP3    H237354   5.787   2.040  19.125  0.1830 -0.1743 -0.6239
 4387TIP3   OH237355   1.943   6.663  18.588  0.4399  0.4219 -0.2756
 4387TIP3    H137356   2.022   6.675  18.534  0.0160 -1.8134 -1.5448
 4387TIP3    H237357   1.908   6.751  18.599  1.5812  1.1827 -2.1154
 4388TIP3   OH237358   6.684   1.072  19.407 -0.0527 -0.8571  0.3618
 4388TIP3    H137359   6.632   0.993  19.394 -0.9813 -0.1189 -0.6126
 4388TIP3    H237360   6.621   1.135  19.443  0.1395  0.0499 -0.8420
 4389TIP3   OH237361   0.380   0.193  19.132  0.4865 -0.4211  0.0928
 4389TIP3    H137362   0.391   0.214  19.039 -2.3400 -1.3810 -0.5326
 4389TIP3    H237363   0.298   0.235  19.158  0.2507 -1.7014  1.6445
 4390TIP3   OH237364   1.505   2.658  18.718 -0.2472 -0.3520 -0.0659
 4390TIP3    H137365   1.482   2.668  18.626  0.5772  3.0796 -0.0296
 4390TIP3    H237366   1.468   2.735  18.761  0.9571 -0.9039  2.1503
 4391TIP3   OH237367   0.799   4.065  19.950  0.2064 -0.6795 -0.4192
 4391TIP3    H137368   0.881   4.038  19.991  0.2434  1.0892  0.7699
 4391TIP3    H237369   0.825   4.137  19.892 -0.4854 -0.2372 -0.1808
 4392TIP3   OH237370   2.767   3.508  17.799  0.1880  0.2710  0.5243
 4392TIP3    H137371   2.781   3.585  17.743  1.7392 -0.2905  0.0902
 4392TIP3    H237372   2.737   3.440  17.739  0.8271 -0.0378  0.5525
 4393TIP3   OH237373   4.204   1.367  19.593 -0.1822 -0.2485  0.6042
 4393TIP3    H137374   4.114   1.396  19.580 -0.3297 -0.8414  0.2917
 4393TIP3    H237375   4.248   1.387  19.510  0.2706  1.0866  1.1343
 4394TIP3   OH237376   3.445   4.775  19.202  0.0203  0.1145 -0.1939
 4394TIP3    H137377   3.519   4.715  19.210  0.3880  0.3081 -1.7857
 4394TIP3    H237378   3.476   4.857  19.240  0.1370 -0.1964  0.3885
 4395TIP3   OH237379   2.833   0.319  19.795  0.4490  0.1993 -0.0937
 4395TIP3    H137380   2.894   0.265  19.744  0.7643 -1.1355  1.6139
 4395TIP3    H237381   2.886   0.394  19.824  1.4257 -1.1202  1.6621
 4396TIP3   OH237382   5.418   5.276  19.196 -0.3122 -0.1313 -0.7657
 4396TIP3    H137383   5.484   5.261  19.264  0.4165 -1.3466 -1.6922
 4396TIP3    H237384   5.374   5.191  19.187 -1.5926  0.4909 -0.6105
 4397TIP3   OH237385   3.221   2.413  19.068 -0.1131 -0.0728 -0.0918
 4397TIP3    H137386   3.202   2.453  18.983 -0.4766  0.1609  0.0957
 4397TIP3    H237387   3.168   2.333  19.068 -1.4004  0.7334  0.5553
 4398TIP3   OH237388   5.085   2.028  20.676 -0.0599 -0.2710  0.3887
 4398TIP3    H137389   5.158   2.068  20.724  0.4101  0.1601 -0.6602
 4398TIP3    H237390   5.058   1.954  20.731  1.1571 -0.4364  0.8002
 4399TIP3   OH237391   0.255   4.851  19.559  0.1955 -0.5501 -0.7776
 4399TIP3    H137392   0.241   4.940  19.591  0.9835 -0.5092 -0.5242
 4399TIP3    H237393   0.184   4.800  19.597  0.4091 -0.2525  0.0453
 4400TIP3   OH237394   3.625   5.226  20.186  0.4480 -0.0938  0.5950
 4400TIP3    H137395   3.686   5.155  20.164  0.0575 -0.2026 -0.2048
 4400TIP3    H237396   3.601   5.210  20.277  1.5303 -0.1000  0.8958
 4401TIP3   OH237397   5.088   5.650  17.551  0.4817 -0.1991  0.1997
 4401TIP3    H137398   5.107   5.744  17.556  1.6098 -0.3769 -0.4447
 4401TIP3    H237399   5.163   5.613  17.505  0.5276 -1.5576  1.2945
 4402TIP3   OH237400   3.976   2.029  18.656  0.0245 -0.3962 -0.4156
 4402TIP3    H137401   4.053   2.024  18.599 -0.4825 -0.6657 -1.0889
 4402TIP3    H237402   4.002   1.980  18.734  1.3131  1.3545  0.3165
 4403TIP3   OH237403   2.114   6.326  20.141 -0.4862 -0.0353  0.4635
 4403TIP3    H137404   2.094   6.242  20.098 -1.7963 -0.1497  1.2309
 4403TIP3    H237405   2.130   6.387  20.069  0.7456 -0.9799 -0.1101
 4404TIP3   OH237406   1.218   3.058  19.832  0.3118 -0.0425 -0.2993
 4404TIP3    H137407   1.247   3.078  19.742  1.4944  0.1290  0.0931
 4404TIP3    H237408   1.188   3.141  19.867  0.4003  0.0096 -0.3469
 4405TIP3   OH237409   5.670   4.637  18.414  0.0441  0.7078 -0.2219
 4405TIP3    H137410   5.705   4.564  18.362  0.3520  0.6111  0.1187
 4405TIP3    H237411   5.736   4.706  18.408 -0.0031  0.7633 -0.1133
 4406TIP3   OH237412   4.070   2.149  19.857  0.0198 -0.3601  0.0018
 4406TIP3    H137413   4.002   2.114  19.915 -0.1037  2.0651  1.4728
 4406TIP3    H237414   4.112   2.218  19.909  1.5641  0.2589 -1.9609
 4407TIP3   OH237415   5.592   5.946  18.641  0.7395 -0.2742  0.2087
 4407TIP3    H137416   5.653   5.873  18.639  0.6711 -0.3206 -0.1981
 4407TIP3    H237417   5.513   5.914  18.598  0.2275 -0.3854  1.1992
 4408TIP3   OH237418   4.287   6.282  18.644 -0.0269  0.3140  0.3348
 4408TIP3    H137419   4.255   6.192  18.637  1.1538 -0.0215 -1.4195
 4408TIP3    H237420   4.235   6.320  18.714 -1.1425 -1.4826  0.5602
 4409TIP3   OH237421   2.649   1.721  18.575  0.3214 -0.7016 -0.2966
 4409TIP3    H137422   2.588   1.721  18.649 -1.6915 -1.8488 -1.8675
 4409TIP3    H237423   2.677   1.630  18.568  0.3413 -0.6386 -1.0718
 4410TIP3   OH237424   6.020   5.309  18.367 -0.0986  0.1393 -0.5779
 4410TIP3    H137425   6.059   5.370  18.304  0.4682 -0.6080 -0.9519
 4410TIP3    H237426   6.052   5.223  18.342 -2.1843 -0.5648 -1.0503
 4411TIP3   OH237427   5.458   3.420  19.080 -0.0967  0.0374 -0.1953
 4411TIP3    H137428   5.390   3.434  19.014 -1.6266  0.9634  1.4871
 4411TIP3    H237429   5.489   3.508  19.102 -1.4578  0.0251  2.1026
 4412TIP3   OH237430   3.042   0.592  20.588 -0.2511 -0.4765  0.1226
 4412TIP3    H137431   3.015   0.592  20.680  0.9963 -0.5970  0.5011
 4412TIP3    H237432   2.977   0.647  20.544 -1.1901 -0.8725  0.9685
 4413TIP3   OH237433   4.284   5.063  19.149  0.0332  0.5610  0.8269
 4413TIP3    H137434   4.281   4.982  19.099 -1.6465  0.9251  0.2643
 4413TIP3    H237435   4.376   5.089  19.147  0.2851 -0.3048 -0.6542
 4414TIP3   OH237436   1.489   0.007  19.279 -0.4459  0.2267  0.4550
 4414TIP3    H137437   1.501   0.048  19.365 -0.2866  0.0430  0.5171
 4414TIP3    H237438   1.415  -0.052  19.291 -0.0716 -0.2136  0.6083
 4415TIP3   OH237439   0.101   3.383  18.516 -0.9753 -0.3781  0.2083
 4415TIP3    H137440   0.023   3.429  18.548 -0.8701 -0.3325  0.4044
 4415TIP3    H237441   0.083   3.290  18.532 -1.6070 -0.4946 -1.1084
 4416TIP3   OH237442   3.240   1.615  18.386 -0.2873 -0.3204  0.4916
 4416TIP3    H137443   3.224   1.528  18.422  1.4956 -1.4453 -1.2112
 4416TIP3    H237444   3.282   1.599  18.301  0.0936  2.2058  0.1104
 4417TIP3   OH237445   1.079   4.182  19.984 -0.5627 -0.1742 -0.2049
 4417TIP3    H137446   1.109   4.091  19.982 -1.5717 -0.5284 -0.0153
 4417TIP3    H237447   1.146   4.231  19.936  0.7442 -0.7765  0.9417
 4418TIP3   OH237448   4.636   4.427  20.185 -0.5288 -0.2779  0.4483
 4418TIP3    H137449   4.541   4.411  20.182 -0.6656  0.3460  1.0948
 4418TIP3    H237450   4.657   4.427  20.279  0.2025 -0.9217  0.2926
 4419TIP3   OH237451   3.795   1.456  18.965  0.7057  0.1245  0.7339
 4419TIP3    H137452   3.869   1.448  19.025  1.2925  1.7394  0.2856
 4419TIP3    H237453   3.831   1.431  18.879  0.8915  1.3365  0.4360
 4420TIP3   OH237454   3.418   3.731  18.490 -0.0658 -0.1781 -0.2023
 4420TIP3    H137455   3.443   3.640  18.473  0.8174 -0.0622  0.3936
 4420TIP3    H237456   3.495   3.782  18.466 -0.1246  0.3024  0.5911
 4421TIP3   OH237457   5.459   1.677  19.101 -0.5568 -0.1722  0.2369
 4421TIP3    H137458   5.491   1.729  19.027  0.0274  0.7945  1.1345
 4421TIP3    H237459   5.528   1.684  19.166  0.7412 -4.1257 -0.4446
 4422TIP3   OH237460   2.973   1.048  19.993 -0.7818  0.3026  0.2949
 4422TIP3    H137461   2.899   1.089  19.947 -2.6398 -0.5093  2.3914
 4422TIP3    H237462   2.960   1.071  20.085  1.9932  0.6692  0.6644
 4423TIP3   OH237463   3.003   0.200  19.599 -0.0443  0.4337  0.1286
 4423TIP3    H137464   2.989   0.258  19.525 -0.7851  0.5435  0.3491
 4423TIP3    H237465   3.090   0.163  19.585  0.2000  1.1711 -0.2988
 4424TIP3   OH237466   3.204   1.296  19.807 -0.7339 -0.1245  0.1363
 4424TIP3    H137467   3.129   1.263  19.758 -1.3788 -0.6690  1.4309
 4424TIP3    H237468   3.262   1.220  19.815  0.4136  0.5136 -1.6185
 4425TIP3   OH237469   4.846   3.298  17.434 -0.2923  0.2243  0.2131
 4425TIP3    H137470   4.922   3.340  17.393  0.8850 -0.2522  1.7872
 4425TIP3    H237471   4.840   3.213  17.392  0.7629 -0.1750  0.8181
 4426TIP3   OH237472   4.869   5.570  20.208 -0.2510  0.5887  0.3222
 4426TIP3    H137473   4.881   5.540  20.299  2.3309 -1.0541 -0.4449
 4426TIP3    H237474   4.785   5.533  20.182 -0.9839  0.9663  1.9730
 4427TIP3   OH237475   5.444   1.942  19.625  0.2575  0.1718  0.0134
 4427TIP3    H137476   5.512   1.986  19.573 -0.3720  1.2846  0.0768
 4427TIP3    H237477   5.363   1.987  19.599 -0.7153 -2.1743 -1.2593
 4428TIP3   OH237478   4.788   4.401  17.059  0.1636  0.1459  0.5824
 4428TIP3    H137479   4.859   4.395  17.124 -0.2852  1.7534  1.2707
 4428TIP3    H237480   4.711   4.424  17.110 -0.3642  0.6738 -0.4272
 4429TIP3   OH237481   1.530   2.743  20.722 -0.8155 -0.0998 -0.0325
 4429TIP3    H137482   1.497   2.833  20.725 -1.9697 -0.5238  0.3618
 4429TIP3    H237483   1.464   2.692  20.768  0.3002 -1.0164  0.5962
 4430TIP3   OH237484   6.583   5.613  18.826  0.1234  0.2766 -0.1401
 4430TIP3    H137485   6.655   5.667  18.859  1.0914 -1.6385  1.0664
 4430TIP3    H237486   6.550   5.660  18.750  0.4397  2.9018  1.2242
 4431TIP3   OH237487   0.621   5.679  18.897  0.6566  0.2248  0.2057
 4431TIP3    H137488   0.678   5.753  18.917 -0.8736  1.0529  1.7644
 4431TIP3    H237489   0.569   5.667  18.976 -1.8180  0.0056 -1.3593
 4432TIP3   OH237490   4.658   2.528  20.876 -0.3452 -0.0114 -0.7448
 4432TIP3    H137491   4.619   2.474  20.807 -3.9103  2.0868 -0.5628
 4432TIP3    H237492   4.650   2.475  20.955  1.3250 -1.3496 -1.4101
 4433TIP3   OH237493   5.936   5.798  17.569  0.2830  0.6703 -0.3763
 4433TIP3    H137494   5.845   5.797  17.538  0.4229  0.1052 -0.7710
 4433TIP3    H237495   5.988   5.814  17.491  0.6358 -0.7241 -0.4389
 4434TIP3   OH237496   1.868   1.465  20.777  0.1683  0.2596 -0.2213
 4434TIP3    H137497   1.918   1.398  20.731  0.2473  0.0094  0.2226
 4434TIP3    H237498   1.881   1.445  20.870 -1.1957 -0.1464 -0.0930
 4435TIP3   OH237499   1.539   5.782  17.623  0.2394  0.5416 -0.4418
 4435TIP3    H137500   1.618   5.782  17.677  0.6545 -0.3728 -1.0252
 4435TIP3    H237501   1.570   5.788  17.533 -0.3192 -0.3772 -0.7119
 4436TIP3   OH237502   4.789   6.608  18.969 -0.1877  0.5602  0.2971
 4436TIP3    H137503   4.773   6.651  19.053 -0.6923 -0.4065  0.7053
 4436TIP3    H237504   4.809   6.517  18.991  0.8083  0.5406 -0.5556
 4437TIP3   OH237505   3.185   0.841  18.273  0.3016  0.3330 -0.2195
 4437TIP3    H137506   3.268   0.795  18.286  0.0449 -0.4101 -1.0912
 4437TIP3    H237507   3.208   0.933  18.267  0.8741  0.3173  1.2079
 4438TIP3   OH237508   4.748   3.181  20.824 -0.3196 -0.2393  0.4847
 4438TIP3    H137509   4.844   3.179  20.830  0.0066 -2.8356 -2.6144
 4438TIP3    H237510   4.719   3.100  20.865 -0.9212 -0.6573 -0.7133
 4439TIP3   OH237511   1.045   3.080  18.467 -0.0169  0.0274  0.6652
 4439TIP3    H137512   1.022   3.072  18.374  1.2616 -0.3547  0.3679
 4439TIP3    H237513   0.970   3.126  18.506 -0.6706 -0.0038 -0.5045
 4440TIP3   OH237514   0.863   1.066  18.063  0.5009  0.1637  0.5272
 4440TIP3    H137515   0.783   1.021  18.092  0.9274  0.2232  1.8764
 4440TIP3    H237516   0.933   1.002  18.076  0.5913 -0.2072 -1.5069
 4441TIP3   OH237517   0.345   6.302  18.388  0.0783 -0.1543  0.4782
 4441TIP3    H137518   0.356   6.353  18.308 -0.9629  2.1692  1.7032
 4441TIP3    H237519   0.260   6.259  18.377  0.0715 -0.0755  0.2209
 4442TIP3   OH237520   0.046   6.563  17.489 -0.4012 -0.1626  0.0595
 4442TIP3    H137521   0.083   6.626  17.427 -0.4055 -0.4758 -0.2663
 4442TIP3    H237522  -0.048   6.582  17.489 -0.4909 -0.5889 -0.5285
 4443TIP3   OH237523   3.858   5.651  19.733 -0.2902  0.1962 -0.1145
 4443TIP3    H137524   3.783   5.640  19.792  0.3933 -0.7234  0.6082
 4443TIP3    H237525   3.931   5.673  19.791 -0.2426  2.4492 -0.9331
 4444TIP3   OH237526   2.274   2.900  17.705  0.3549 -0.1957 -0.4974
 4444TIP3    H137527   2.275   2.924  17.612  1.6732 -3.2262 -1.3718
 4444TIP3    H237528   2.187   2.862  17.719 -0.4260  1.6629 -0.0177
 4445TIP3   OH237529   1.092   1.617  18.515  0.1281  0.8880 -0.3810
 4445TIP3    H137530   1.092   1.640  18.608  0.5379 -0.2205 -0.0900
 4445TIP3    H237531   1.029   1.676  18.475 -0.3462  1.1113  0.6777
 4446TIP3   OH237532   2.013   4.549  18.262  0.1566 -0.1999  0.1734
 4446TIP3    H137533   2.040   4.549  18.170 -0.1774  2.3729 -0.0127
 4446TIP3    H237534   2.049   4.630  18.298 -1.5061 -0.0784  1.7374
 4447TIP3   OH237535   6.056   1.373  19.223 -0.3171  0.1962 -0.0912
 4447TIP3    H137536   6.100   1.292  19.247 -1.3400 -0.7751 -1.3120
 4447TIP3    H237537   5.988   1.385  19.290  1.3303  1.3901  1.4608
 4448TIP3   OH237538   2.095   6.220  19.631 -1.0689  0.0601 -0.2050
 4448TIP3    H137539   2.010   6.180  19.652 -1.1552 -0.5602 -1.5957
 4448TIP3    H237540   2.157   6.176  19.690 -1.5361 -0.3532 -0.0123
 4449TIP3   OH237541   5.568   3.895  18.822  0.1214 -0.4262 -0.0858
 4449TIP3    H137542   5.516   3.973  18.801  1.5385  0.7492  0.6380
 4449TIP3    H237543   5.657   3.927  18.832  0.3949 -1.7475  2.4189
 4450TIP3   OH237544   0.894   4.196  17.934 -0.7659  0.6781  0.8118
 4450TIP3    H137545   0.933   4.222  18.017  2.0298  0.4411 -0.3235
 4450TIP3    H237546   0.878   4.103  17.942  1.4556  0.1988  0.4782
 4451TIP3   OH237547   2.906   2.185  17.180 -0.0566  0.0982 -0.6025
 4451TIP3    H137548   2.821   2.153  17.151  0.0654 -0.0688 -0.7842
 4451TIP3    H237549   2.897   2.281  17.182 -0.5990  0.0280  0.5221
 4452TIP3   OH237550   4.692   6.215  20.973  0.7022 -0.2901  0.3305
 4452TIP3    H137551   4.608   6.179  20.947  0.2008  0.3354  1.0272
 4452TIP3    H237552   4.677   6.309  20.982  0.6770 -0.4591  3.2172
 4453TIP3   OH237553   3.684   1.070  18.528 -0.4812 -0.5182 -0.0358
 4453TIP3    H137554   3.755   1.118  18.485 -1.0597  0.3095 -0.0980
 4453TIP3    H237555   3.722   0.985  18.550 -0.1037 -0.9176 -2.0229
 4454TIP3   OH237556   2.717   6.460  20.055  1.3429  0.7481 -0.6890
 4454TIP3    H137557   2.669   6.448  19.973 -0.0834 -0.1256  0.2162
 4454TIP3    H237558   2.783   6.391  20.054 -0.9072 -1.6077  0.3667
 4455TIP3   OH237559   4.517   5.753  18.224 -0.1624  0.0587  0.1680
 4455TIP3    H137560   4.594   5.805  18.200 -1.1466  0.1288 -3.3600
 4455TIP3    H237561   4.553   5.673  18.261  1.5328  0.8634  0.3738
 4456TIP3   OH237562   3.811   4.606  19.595  0.1038  0.1808 -0.4622
 4456TIP3    H137563   3.810   4.673  19.527 -1.3752  0.5598 -0.1040
 4456TIP3    H237564   3.764   4.532  19.556  0.5240 -0.1493 -0.3561
 4457TIP3   OH237565   0.209   2.625  18.994  0.0102  0.1116 -0.4117
 4457TIP3    H137566   0.288   2.680  18.999 -0.4773  0.7670  0.4405
 4457TIP3    H237567   0.170   2.646  18.910 -0.2059  1.1427 -0.0671
 4458TIP3   OH237568   6.147   2.092  18.408  0.6764  0.0377 -0.3136
 4458TIP3    H137569   6.177   2.030  18.342 -0.0861  0.7680 -1.3805
 4458TIP3    H237570   6.059   2.116  18.380  0.8089  1.2996  0.2768
 4459TIP3   OH237571   1.913   2.187  17.695  0.2981  0.2546 -0.2517
 4459TIP3    H137572   1.861   2.130  17.638  1.0562  0.8773 -1.6244
 4459TIP3    H237573   2.001   2.150  17.693  0.2920  0.1658  0.7064
 4460TIP3   OH237574   0.474   4.927  20.734  0.6423  0.4699 -0.0100
 4460TIP3    H137575   0.478   4.974  20.817  1.9218 -1.2927  0.9923
 4460TIP3    H237576   0.383   4.937  20.705 -0.0048  0.5600  1.9433
 4461TIP3   OH237577   3.748   1.980  17.545  0.6987 -0.3720 -0.4831
 4461TIP3    H137578   3.766   2.038  17.471 -0.4842  0.0217 -0.4815
 4461TIP3    H237579   3.662   2.007  17.576  0.9052 -0.9522  0.6483
 4462TIP3   OH237580   4.357   6.109  19.019  0.5131 -0.2255 -0.0215
 4462TIP3    H137581   4.286   6.080  18.962 -0.3407  1.1947  0.2620
 4462TIP3    H237582   4.377   6.033  19.074  0.3281 -1.1387 -1.1749
 4463TIP3   OH237583   6.259   5.703  16.890 -0.3225 -0.1965  0.1793
 4463TIP3    H137584   6.274   5.659  16.974 -0.0519  1.9005  1.2995
 4463TIP3    H237585   6.214   5.784  16.913 -0.1657  0.4818 -1.7010
 4464TIP3   OH237586   4.303   5.637  19.978 -0.9818 -0.4091 -0.4081
 4464TIP3    H137587   4.373   5.604  19.921 -0.7192 -0.8184  0.1482
 4464TIP3    H237588   4.281   5.564  20.034 -1.1667  0.0279  0.0945
 4465TIP3   OH237589   3.782   6.519  19.128 -0.1813 -0.0325 -0.0562
 4465TIP3    H137590   3.705   6.508  19.073 -0.4373 -1.6323  0.5585
 4465TIP3    H237591   3.856   6.504  19.069 -0.3693  0.3348 -0.3918
 4466TIP3   OH237592   4.300   1.070  20.615  0.5062 -0.2181 -0.1180
 4466TIP3    H137593   4.265   1.100  20.531 -1.0706 -0.3624  0.4594
 4466TIP3    H237594   4.338   0.984  20.596 -2.1930 -1.4952 -0.2423
 4467TIP3   OH237595   5.812   0.851  18.479  0.1396  0.7173 -0.1984
 4467TIP3    H137596   5.795   0.775  18.422  2.3479  2.0009 -2.8370
 4467TIP3    H237597   5.753   0.919  18.447  0.5107  1.0761 -0.1322
 4468TIP3   OH237598   4.828   3.637  20.073 -0.1691  0.2348  0.6221
 4468TIP3    H137599   4.804   3.725  20.042 -1.8567 -0.9142 -1.5895
 4468TIP3    H237600   4.755   3.581  20.046  0.9826 -1.9337  1.7249
 4469TIP3   OH237601   3.820   2.026  19.917  0.4328  0.0162  0.3394
 4469TIP3    H137602   3.797   2.119  19.918 -0.8427 -0.2744 -0.4386
 4469TIP3    H237603   3.785   1.992  19.999  3.9391  0.8439  2.4065
 4470TIP3   OH237604   1.845   5.176  19.812 -0.0151  0.2237 -0.3667
 4470TIP3    H137605   1.857   5.196  19.719 -0.7815  1.3531 -0.2448
 4470TIP3    H237606   1.765   5.125  19.816  0.2229 -0.1511 -0.3605
 4471TIP3   OH237607   5.823   5.546  18.330  0.6293  0.1983 -0.3500
 4471TIP3    H137608   5.908   5.577  18.300  0.9400 -0.5879 -0.3102
 4471TIP3    H237609   5.838   5.514  18.419  0.0411  1.1067  0.0849
 4472TIP3   OH237610   0.383   3.588  16.585  0.3295  0.3724  0.2883
 4472TIP3    H137611   0.349   3.501  16.565  2.2279 -0.8894  2.0781
 4472TIP3    H237612   0.344   3.646  16.519 -2.0393 -1.5741 -0.1168
 4473TIP3   OH237613   1.864   1.550  17.551  0.7012  0.2217  0.0032
 4473TIP3    H137614   1.796   1.604  17.592 -2.6410 -2.5738 -1.3635
 4473TIP3    H237615   1.894   1.602  17.477 -0.2928  1.3800  0.3723
 4474TIP3   OH237616   4.886   0.590  19.231 -0.1338  0.3895 -0.5673
 4474TIP3    H137617   4.977   0.563  19.247 -0.3275 -0.8504 -1.4101
 4474TIP3    H237618   4.877   0.586  19.136 -2.2237 -3.5931 -0.3632
 4475TIP3   OH237619   0.797   6.198  18.082 -0.3791  0.0331  0.5322
 4475TIP3    H137620   0.822   6.137  18.012 -0.1603 -1.5076  1.8786
 4475TIP3    H237621   0.702   6.189  18.088 -0.4712  0.6105  0.0713
 4476TIP3   OH237622   1.534   5.437  20.412  0.4248  0.1973 -0.1845
 4476TIP3    H137623   1.588   5.407  20.339  0.6696  0.7803 -0.2445
 4476TIP3    H237624   1.586   5.506  20.454  0.3874 -0.2841  0.6772
 4477TIP3   OH237625   1.039   3.166  20.079  0.4406  0.6785  0.7188
 4477TIP3    H137626   1.066   3.075  20.081 -1.0826 -0.0088 -2.5805
 4477TIP3    H237627   1.109   3.211  20.031 -0.1510  0.6394 -0.1951
 4478TIP3   OH237628   4.689   0.183  19.631  0.1319 -0.0163  0.0343
 4478TIP3    H137629   4.636   0.203  19.554 -2.1104 -2.5260  0.7725
 4478TIP3    H237630   4.641   0.221  19.705 -0.3864 -1.7133  0.6352
 4479TIP3   OH237631   5.140   2.224  18.668 -0.2059  0.5525 -0.2472
 4479TIP3    H137632   5.135   2.224  18.573 -1.2189  1.0811 -0.2079
 4479TIP3    H237633   5.169   2.312  18.691 -0.2733  0.5262 -0.0599
 4480TIP3   OH237634   0.772   2.502  18.183  0.0559  0.3206 -0.0651
 4480TIP3    H137635   0.678   2.520  18.179 -0.0340 -0.2210 -0.4776
 4480TIP3    H237636   0.785   2.429  18.123  0.9450  1.2077 -0.9885
 4481TIP3   OH237637   4.967   1.616  18.112 -0.0465  0.1914 -0.1929
 4481TIP3    H137638   4.975   1.624  18.017  0.5809  0.7871 -0.0969
 4481TIP3    H237639   5.026   1.683  18.147 -0.9046  0.5537  0.6116
 4482TIP3   OH237640   4.660   0.316  19.890 -0.1345  0.6963  0.0374
 4482TIP3    H137641   4.614   0.393  19.925  0.8478  1.0422  0.5826
 4482TIP3    H237642   4.714   0.351  19.819  1.2859  0.7547  1.0982
 4483TIP3   OH237643   3.296   4.692  20.805  0.2678 -0.0516 -0.3895
 4483TIP3    H137644   3.242   4.722  20.879  1.7898 -0.1953  0.8411
 4483TIP3    H237645   3.359   4.763  20.792 -0.2077  0.1234 -1.8099
 4484TIP3   OH237646   1.298   4.714  19.628  0.2368 -0.1268 -0.1448
 4484TIP3    H137647   1.380   4.712  19.579  0.5424 -1.0782  0.3673
 4484TIP3    H237648   1.316   4.661  19.706 -0.7003  0.1019  0.2430
 4485TIP3   OH237649   0.066   5.772  18.920 -0.6830  0.3812  0.8554
 4485TIP3    H137650   0.142   5.713  18.915 -1.0248 -0.0199  0.2512
 4485TIP3    H237651   0.093   5.851  18.874 -0.8820 -0.0469 -0.0063
 4486TIP3   OH237652   2.435   2.950  20.583  0.3668 -0.5914 -0.5340
 4486TIP3    H137653   2.351   2.905  20.589  0.6700 -1.0722  4.6216
 4486TIP3    H237654   2.413   3.040  20.560 -1.5508 -0.8146  0.2736
 4487TIP3   OH237655   3.633   5.831  17.832 -0.1359 -0.2084  0.5707
 4487TIP3    H137656   3.635   5.786  17.917  0.3920  0.3011  0.8334
 4487TIP3    H237657   3.725   5.838  17.806 -0.3286 -0.8496 -0.3110
 4488TIP3   OH237658   2.351   2.674  20.225 -0.0974  0.1143  0.2165
 4488TIP3    H137659   2.381   2.700  20.138 -0.8861 -0.2689 -0.1775
 4488TIP3    H237660   2.431   2.662  20.276  0.3501  0.9310 -0.2800
 4489TIP3   OH237661   6.471   2.585  18.650  0.1631  0.7456 -0.5965
 4489TIP3    H137662   6.507   2.669  18.679  1.9268  0.3307 -1.4447
 4489TIP3    H237663   6.539   2.548  18.593 -1.3664 -0.4189 -1.7401
 4490TIP3   OH237664   2.622   1.802  18.298  0.0136  0.1151 -0.2664
 4490TIP3    H137665   2.626   1.809  18.393  0.4670  0.2712 -0.2948
 4490TIP3    H237666   2.584   1.886  18.270 -2.7875 -0.9782 -0.0633
 4491TIP3   OH237667   2.476   1.078  19.243 -0.7698 -0.5597  0.8155
 4491TIP3    H137668   2.553   1.040  19.200 -0.5317 -0.6739  1.3401
 4491TIP3    H237669   2.420   1.106  19.170  0.2821  0.5902  0.4014
 4492TIP3   OH237670   4.049   5.435  18.552 -0.4152 -0.0294 -0.3032
 4492TIP3    H137671   4.132   5.466  18.516 -1.0785  3.0790  0.5000
 4492TIP3    H237672   4.016   5.372  18.488  1.0303  1.1137 -2.2852
 4493TIP3   OH237673   1.075   5.312  20.358  0.1855  0.1350  0.3010
 4493TIP3    H137674   1.030   5.299  20.274 -1.6690  0.4046  1.2004
 4493TIP3    H237675   1.021   5.264  20.421  2.2481 -1.1440  1.1937
 4494TIP3   OH237676   0.665   1.334  20.805 -0.0508 -0.6454 -0.7407
 4494TIP3    H137677   0.696   1.416  20.845 -0.6447 -1.0451  0.5973
 4494TIP3    H237678   0.593   1.362  20.748  1.1202 -0.0088 -1.9758
 4495TIP3   OH237679   2.803   0.336  20.070  0.0055 -0.0926  0.1316
 4495TIP3    H137680   2.805   0.253  20.118 -1.9689 -0.8944 -1.0661
 4495TIP3    H237681   2.820   0.312  19.979  1.5448  1.1360  0.0401
 4496TIP3   OH237682   1.892   2.781  19.177 -0.0583  0.2763 -0.0476
 4496TIP3    H137683   1.845   2.725  19.115 -2.9421 -0.0994  2.2472
 4496TIP3    H237684   1.898   2.866  19.133  0.5525 -0.6902 -1.9173
 4497TIP3   OH237685   2.154   5.481  20.292  0.6020  0.0688 -0.1731
 4497TIP3    H137686   2.058   5.485  20.292  0.6121  0.5289  0.4558
 4497TIP3    H237687   2.179   5.500  20.202  0.1405  1.3071 -0.0575
 4498TIP3   OH237688   1.362   4.798  20.580 -0.0013 -0.3022 -0.6066
 4498TIP3    H137689   1.413   4.744  20.640 -2.3660  0.8367  2.7911
 4498TIP3    H237690   1.394   4.887  20.595 -0.2362 -0.0464 -1.5338
 4499TIP3   OH237691   0.148   0.435  18.355 -0.1490 -0.0671 -0.2659
 4499TIP3    H137692   0.175   0.511  18.303  1.4898 -1.2456 -1.2289
 4499TIP3    H237693   0.103   0.378  18.293  0.2465 -0.7057  0.0293
 4500TIP3   OH237694   0.091   6.547  18.648 -0.2856  0.0031  0.6372
 4500TIP3    H137695   0.009   6.502  18.627 -0.2746  0.6001 -0.8658
 4500TIP3    H237696   0.124   6.575  18.563  0.6044  1.2905  1.3831
 4501TIP3   OH237697   4.330   4.857  20.036 -0.0024  0.4174  0.0110
 4501TIP3    H137698   4.359   4.776  19.993 -0.7850  0.4412 -0.5843
 4501TIP3    H237699   4.411   4.900  20.064  0.7122  1.3228 -3.1142
 4502TIP3   OH237700   4.208   3.469  18.798  0.1748 -0.2265  0.1001
 4502TIP3    H137701   4.193   3.475  18.893 -0.8482  0.5169 -0.0883
 4502TIP3    H237702   4.122   3.449  18.762  0.7313 -1.3775 -0.6129
 4503TIP3   OH237703   2.170   5.667  18.130  0.7096 -0.0020 -0.1901
 4503TIP3    H137704   2.075   5.671  18.144  0.6407 -0.2428 -0.5803
 4503TIP3    H237705   2.199   5.758  18.137  0.1268  0.4057 -2.2735
 4504TIP3   OH237706   2.836   4.573  18.419 -0.1957  0.3882 -0.3519
 4504TIP3    H137707   2.835   4.628  18.497  1.0664  2.2660 -1.5601
 4504TIP3    H237708   2.748   4.582  18.382 -0.6961 -0.2497  0.6420
 4505TIP3   OH237709   1.079   0.982  19.167  0.4996  0.1310 -0.2612
 4505TIP3    H137710   1.027   0.953  19.242 -1.4293 -0.2473 -1.6765
 4505TIP3    H237711   1.124   0.903  19.136 -1.4657 -0.5613 -1.5627
 4506TIP3   OH237712   4.461   1.629  20.279 -0.0306 -0.6564  0.1298
 4506TIP3    H137713   4.405   1.650  20.204  1.1139  0.8089 -0.3772
 4506TIP3    H237714   4.400   1.608  20.350 -1.4271  3.2781  0.3516
 4507TIP3   OH237715   2.224   0.280  18.373  0.7174  0.1536 -0.0597
 4507TIP3    H137716   2.291   0.347  18.361  0.3604  0.7372  1.0497
 4507TIP3    H237717   2.153   0.305  18.314  0.6586  0.6614  0.2212
 4508TIP3   OH237718   1.905   5.487  20.615  0.7659 -0.2726  0.5117
 4508TIP3    H137719   1.872   5.457  20.700 -0.5890 -0.7725 -0.1630
 4508TIP3    H237720   1.909   5.582  20.623 -1.5711 -0.1073  0.4224
 4509TIP3   OH237721   1.647   3.927  18.772 -0.1727  0.5342 -0.3802
 4509TIP3    H137722   1.667   4.018  18.753 -0.0222  0.0308 -2.9656
 4509TIP3    H237723   1.552   3.924  18.776 -0.2024  0.7094 -0.8846
 4510TIP3   OH237724   3.203   6.285  19.145  0.1341 -0.1777  0.2157
 4510TIP3    H137725   3.203   6.260  19.238 -0.7779 -0.2695  0.1991
 4510TIP3    H237726   3.114   6.266  19.115 -0.4547  2.4419  0.0314
 4511TIP3   OH237727   1.214   1.695  18.784  0.4969  0.1713  0.3934
 4511TIP3    H137728   1.165   1.763  18.830 -0.9295  0.1807 -1.0198
 4511TIP3    H237729   1.297   1.737  18.760  0.5200  0.7125  1.3759
 4512TIP3   OH237730   2.860   0.734  20.434  0.5597  0.8059 -0.3001
 4512TIP3    H137731   2.860   0.800  20.364 -2.5200  0.9981 -0.2826
 4512TIP3    H237732   2.779   0.752  20.482  0.1297 -2.3731  0.3362
 4513TIP3   OH237733   5.590   4.040  18.484  0.0350 -0.5604  0.4163
 4513TIP3    H137734   5.634   3.962  18.452  0.9501 -0.1560  0.6542
 4513TIP3    H237735   5.653   4.111  18.470 -0.6454  0.0858  0.5101
 4514TIP3   OH237736   3.011   0.008  20.094  0.4554 -0.1654 -0.5738
 4514TIP3    H137737   2.980  -0.023  20.179  1.6297  1.3721  0.4645
 4514TIP3    H237738   2.993  -0.065  20.034 -1.0362 -1.0168  0.8191
 4515TIP3   OH237739   0.189   3.931  20.066 -0.2950  0.4751 -0.3665
 4515TIP3    H137740   0.142   3.897  19.991 -0.1308  0.7459 -0.5949
 4515TIP3    H237741   0.122   3.976  20.118 -0.6841 -0.9216  0.3860
 4516TIP3   OH237742   5.945   1.197  20.072  0.2642 -0.5252 -0.2979
 4516TIP3    H137743   5.964   1.216  20.164  1.5109 -0.1885 -0.6121
 4516TIP3    H237744   5.925   1.103  20.070 -1.0761 -0.2845  0.4993
 4517TIP3   OH237745   1.493   2.897  20.331  0.0757 -0.1205 -0.4102
 4517TIP3    H137746   1.439   2.903  20.252  0.3053 -0.6727 -0.6144
 4517TIP3    H237747   1.429   2.893  20.403 -0.1320  0.4403 -0.5611
 4518TIP3   OH237748   5.606   1.782  19.299  0.2529  0.3913  0.4072
 4518TIP3    H137749   5.626   1.776  19.392  1.4365 -0.6721  0.1175
 4518TIP3    H237750   5.622   1.874  19.277  1.7441  0.2854  0.9137
 4519TIP3   OH237751   4.860   4.402  19.363  0.2498  0.0787  0.6291
 4519TIP3    H137752   4.795   4.472  19.371 -0.8018 -0.7092 -0.6302
 4519TIP3    H237753   4.840   4.343  19.435  0.7597  0.7612  1.3402
 4520TIP3   OH237754   6.156   4.339  19.898  1.0415 -0.2602  0.8253
 4520TIP3    H137755   6.132   4.430  19.881  1.1661  0.1059  2.4316
 4520TIP3    H237756   6.088   4.308  19.959  0.3026 -1.6350 -0.6203
 4521TIP3   OH237757   5.330   0.437  20.297  0.1942  0.0049  0.0336
 4521TIP3    H137758   5.408   0.417  20.246 -0.8432  2.8933 -3.0289
 4521TIP3    H237759   5.363   0.470  20.381  2.2553  0.4121 -0.8934
 4522TIP3   OH237760   5.601   1.101  19.037 -0.6069 -0.2579 -0.6145
 4522TIP3    H137761   5.625   1.011  19.061 -1.5007 -0.3426 -0.0176
 4522TIP3    H237762   5.666   1.155  19.082 -1.8265 -0.4577  1.5049
 4523TIP3   OH237763   0.546   2.048  19.269  0.2616  0.0392  0.4727
 4523TIP3    H137764   0.478   2.088  19.324  3.1075  4.0691  1.5587
 4523TIP3    H237765   0.545   2.100  19.189  2.3328  0.5593  0.7408
 4524TIP3   OH237766   0.519   5.742  18.190  0.4734 -0.3150 -0.1534
 4524TIP3    H137767   0.486   5.749  18.280 -0.5743 -0.9823 -0.4777
 4524TIP3    H237768   0.610   5.714  18.201  0.6801  0.6187  0.7177
 4525TIP3   OH237769   4.138   5.364  20.706 -0.0775 -0.3293  0.4245
 4525TIP3    H137770   4.144   5.459  20.717  1.3693 -0.2157 -0.9825
 4525TIP3    H237771   4.155   5.328  20.793 -0.3088  0.6873  0.9045
 4526TIP3   OH237772   0.038   1.393  19.566 -0.2105 -0.3945  0.1336
 4526TIP3    H137773   0.058   1.360  19.478  0.9339  1.3097 -0.2818
 4526TIP3    H237774   0.113   1.365  19.619 -0.4080 -0.5347  0.3402
 4527TIP3   OH237775   0.642   0.061  19.176 -0.0091  0.9768  0.4830
 4527TIP3    H137776   0.561   0.111  19.189 -0.0702  0.8955  0.4185
 4527TIP3    H237777   0.667   0.034  19.264 -0.6158  0.1250  0.4033
 4528TIP3   OH237778   2.274   2.218  18.131  0.6324 -0.7384  0.4243
 4528TIP3    H137779   2.350   2.182  18.085 -0.5623 -0.7363 -1.6740
 4528TIP3    H237780   2.231   2.142  18.171  0.6587 -1.0125 -0.0631
 4529TIP3   OH237781   4.294   4.461  18.679 -0.5774 -0.4828 -0.0434
 4529TIP3    H137782   4.296   4.377  18.724 -1.4194 -0.2399  0.4761
 4529TIP3    H237783   4.223   4.509  18.722 -1.5183 -0.3027 -1.7445
 4530TIP3   OH237784   6.180   2.475  19.104  0.3418 -0.4825  0.2886
 4530TIP3    H137785   6.150   2.408  19.044  1.4825 -1.4222  0.7348
 4530TIP3    H237786   6.172   2.557  19.055 -0.1787 -1.0515 -0.5906
 4531TIP3   OH237787   3.572   5.489  20.207  0.0534  0.0013 -0.0904
 4531TIP3    H137788   3.601   5.400  20.188  1.4669  0.6712 -1.2248
 4531TIP3    H237789   3.526   5.516  20.128 -3.6706 -0.9281  1.5431
 4532TIP3   OH237790   2.133   2.999  18.517 -0.5292  0.1234 -0.0668
 4532TIP3    H137791   2.094   2.975  18.433 -2.3544  2.9481 -0.1474
 4532TIP3    H237792   2.192   3.072  18.496 -0.4030  0.3433  0.9996
 4533TIP3   OH237793   3.934   2.064  19.304 -0.5997  0.2207 -0.0831
 4533TIP3    H137794   3.931   2.160  19.299 -0.4540  0.2013 -0.5543
 4533TIP3    H237795   3.852   2.035  19.264 -0.9409  0.1637  0.6394
 4534TIP3   OH237796   6.571   3.594  18.310 -0.2295  0.0802 -0.3690
 4534TIP3    H137797   6.511   3.639  18.370  1.1302  1.2271  0.2266
 4534TIP3    H237798   6.567   3.645  18.229 -1.2750 -0.8322 -0.8988
 4535TIP3   OH237799   0.647   5.340  17.623  0.0290  0.1390  0.0393
 4535TIP3    H137800   0.583   5.411  17.632  0.8093  0.8038  0.4827
 4535TIP3    H237801   0.708   5.371  17.556  0.2943 -0.1704  0.1329
 4536TIP3   OH237802   0.083   1.096  18.033  0.0880 -0.4874 -0.2231
 4536TIP3    H137803   0.016   1.100  18.101 -0.6827  1.4873 -1.0343
 4536TIP3    H237804   0.084   1.004  18.006 -1.1922 -0.8588  0.8760
 4537TIP3   OH237805   2.909   0.615  18.532 -0.1296 -0.3704  0.4451
 4537TIP3    H137806   2.834   0.578  18.578  0.6629 -1.9838  0.5331
 4537TIP3    H237807   2.888   0.604  18.439 -1.1036  1.5773  0.3908
 4538TIP3   OH237808   0.349   3.433  18.366  0.0257 -0.5309  0.2756
 4538TIP3    H137809   0.274   3.425  18.425  0.0181 -0.5378  0.2650
 4538TIP3    H237810   0.325   3.503  18.305  0.9758  1.1434  1.7114
 4539TIP3   OH237811   1.315   2.142  20.370  0.3089  0.0883  0.1123
 4539TIP3    H137812   1.278   2.130  20.283 -0.6728  1.2515  0.3337
 4539TIP3    H237813   1.318   2.237  20.382 -0.7835 -0.0470  1.8254
 4540TIP3   OH237814   6.233   0.968  20.158 -0.0718 -0.7209 -0.0365
 4540TIP3    H137815   6.174   0.926  20.095 -0.1655 -2.3654  1.0619
 4540TIP3    H237816   6.291   1.022  20.105  0.4993 -2.7978 -1.6516
 4541TIP3   OH237817   6.018   6.068  18.677  0.3435 -0.6487 -0.3111
 4541TIP3    H137818   5.963   6.025  18.742  2.0123 -1.2644  0.7668
 4541TIP3    H237819   6.022   6.007  18.604 -2.6444  0.6225 -1.6908
 4542TIP3   OH237820   4.488   5.103  20.714 -0.6782 -0.2225  0.0936
 4542TIP3    H137821   4.508   5.190  20.748 -1.7991 -0.1618  0.6164
 4542TIP3    H237822   4.493   5.113  20.619  0.2816  0.1357  0.1684
 4543TIP3   OH237823   5.016   3.555  17.775  0.1318 -0.6413 -0.2885
 4543TIP3    H137824   5.090   3.494  17.766  1.1721  0.5536 -0.1280
 4543TIP3    H237825   5.033   3.600  17.857 -0.1504  0.4683 -0.8316
 4544TIP3   OH237826   6.500   4.835  20.398  0.1401  0.1154 -0.6263
 4544TIP3    H137827   6.428   4.893  20.424 -0.1069  0.5746 -2.2058
 4544TIP3    H237828   6.460   4.773  20.337  0.8927 -0.2264 -0.7815
 4545TIP3   OH237829   5.314   4.830  17.924 -0.1249  0.4033  0.0555
 4545TIP3    H137830   5.301   4.878  17.843  0.5226  1.8814  0.7879
 4545TIP3    H237831   5.383   4.767  17.904  1.5859  2.2166 -0.0022
 4546TIP3   OH237832   2.199   2.521  19.527 -0.0550 -0.2245  0.5197
 4546TIP3    H137833   2.281   2.494  19.568 -0.1377  0.5923  1.2577
 4546TIP3    H237834   2.132   2.499  19.592 -0.3855 -0.5798  0.0631
 4547TIP3   OH237835   4.823   0.522  20.206  0.7409 -0.3174  0.1050
 4547TIP3    H137836   4.900   0.469  20.181 -1.4743 -3.4097 -0.7650
 4547TIP3    H237837   4.814   0.586  20.135  0.7270 -2.0491 -1.5548
 4548TIP3   OH237838   6.439   4.445  18.391  0.2509  0.8474  0.5507
 4548TIP3    H137839   6.400   4.456  18.477 -0.9690  0.3501  0.0874
 4548TIP3    H237840   6.366   4.457  18.330  0.6247 -0.8974 -0.3180
 4549TIP3   OH237841   0.211   6.219  17.326  0.4504  0.2747 -0.0338
 4549TIP3    H137842   0.198   6.137  17.278  0.0574  1.2323 -1.6302
 4549TIP3    H237843   0.291   6.204  17.376 -0.1459 -1.4234  0.4974
 4550TIP3   OH237844   1.880   4.102  19.471  0.7060  0.3121 -0.6718
 4550TIP3    H137845   1.795   4.124  19.509  0.3875 -0.7120 -0.7564
 4550TIP3    H237846   1.921   4.187  19.452 -0.3941  0.8188 -0.8485
 4551TIP3   OH237847   4.297   3.907  18.913 -0.6005  0.2455  0.5390
 4551TIP3    H137848   4.325   3.816  18.910 -1.0212  0.0741  1.4082
 4551TIP3    H237849   4.290   3.926  19.007 -0.2502  1.2519  0.3714
 4552TIP3   OH237850   5.962   4.055  19.940 -0.2260 -0.3446 -0.1062
 4552TIP3    H137851   6.041   4.012  19.907  0.6067  0.5465  0.6694
 4552TIP3    H237852   5.988   4.091  20.025 -1.4496  0.0318  0.1225
 4553TIP3   OH237853   6.192   5.461  18.168 -0.4774  0.5189  0.1288
 4553TIP3    H137854   6.286   5.474  18.153 -0.5510  0.9655  0.0528
 4553TIP3    H237855   6.157   5.441  18.081 -0.5951  1.2282  0.0095
 4554TIP3   OH237856   5.199   5.890  19.949 -0.0676  0.0786  0.2178
 4554TIP3    H137857   5.122   5.905  20.003 -0.6119 -0.4975 -0.3822
 4554TIP3    H237858   5.268   5.942  19.990 -1.0982  1.6770  0.0135
 4555TIP3   OH237859   5.826   0.285  19.390 -0.3518 -0.1346  0.0576
 4555TIP3    H137860   5.773   0.341  19.447 -0.3049 -0.7939  0.7702
 4555TIP3    H237861   5.763   0.224  19.351 -0.1366 -0.9248  0.9135
 4556TIP3   OH237862   5.068   0.879  20.244  0.2367  0.3524  0.0423
 4556TIP3    H137863   5.006   0.820  20.288  0.5613 -0.7904 -0.9599
 4556TIP3    H237864   5.144   0.881  20.302  0.3554 -0.5060 -0.0683
 4557TIP3   OH237865   5.189   3.739  18.903 -0.0606  0.0924 -0.0243
 4557TIP3    H137866   5.193   3.777  18.815 -1.1560 -0.8077 -0.4836
 4557TIP3    H237867   5.269   3.770  18.946  0.0584  1.2586 -1.0362
 4558TIP3   OH237868   3.187   3.630  18.241  0.1585  0.2061 -0.7946
 4558TIP3    H137869   3.157   3.615  18.151  0.3500  0.9036 -0.9842
 4558TIP3    H237870   3.121   3.687  18.279 -0.7659 -1.3656  0.0369
 4559TIP3   OH237871   0.278   5.883  18.609  0.0196 -0.2956  0.4079
 4559TIP3    H137872   0.324   5.889  18.692 -1.0190  0.1141  0.9687
 4559TIP3    H237873   0.240   5.970  18.596 -2.4394 -1.2007  1.0699
 4560TIP3   OH237874   2.038   6.065  20.031 -0.0532  0.4276  0.2236
 4560TIP3    H137875   1.947   6.068  20.063  0.4891  1.2290  1.7988
 4560TIP3    H237876   2.033   6.011  19.952 -1.7229 -0.4900  0.8840
 4561TIP3   OH237877   4.783   4.299  18.500 -0.8930  0.0229 -0.1741
 4561TIP3    H137878   4.809   4.217  18.458 -0.4700  0.8297 -1.5744
 4561TIP3    H237879   4.717   4.274  18.564  0.3836 -1.5919  0.5828
 4562TIP3   OH237880   1.955   6.363  18.775 -0.4223  0.0095  0.5500
 4562TIP3    H137881   1.887   6.341  18.712 -1.1182 -1.4633  1.7615
 4562TIP3    H237882   2.012   6.286  18.778  0.1132  0.4116  1.0484
 4563TIP3   OH237883   2.722   3.265  16.935 -0.5506  0.4918  0.0876
 4563TIP3    H137884   2.783   3.195  16.961 -1.3870  0.6133  2.7138
 4563TIP3    H237885   2.764   3.346  16.964 -0.9414  0.7751 -0.1334
 4564TIP3   OH237886   2.609   5.350  20.580  0.4064  0.0921 -0.2638
 4564TIP3    H137887   2.552   5.334  20.655  0.7362 -0.5722 -0.1463
 4564TIP3    H237888   2.590   5.279  20.519 -0.6503  1.2365 -1.3138
 4565TIP3   OH237889   0.615   5.410  21.051 -0.2104  0.1740  0.5988
 4565TIP3    H137890   0.680   5.475  21.080  0.2780  0.0233 -0.1357
 4565TIP3    H237891   0.542   5.462  21.018  0.2789  0.3601 -0.2090
 4566TIP3   OH237892   5.466   6.216  19.766 -0.4303  0.7017 -0.5739
 4566TIP3    H137893   5.425   6.176  19.690 -1.2135 -3.5695  1.7441
 4566TIP3    H237894   5.552   6.174  19.772 -0.8536 -0.0219  1.4371
 4567TIP3   OH237895   1.677   4.922  18.878 -0.1814 -0.1432 -0.4017
 4567TIP3    H137896   1.686   4.855  18.945 -0.5830  0.8954  0.7307
 4567TIP3    H237897   1.716   4.883  18.800  0.8041 -1.1874  0.5664
 4568TIP3   OH237898   4.923   2.083  20.985 -0.4769  0.1617 -0.0200
 4568TIP3    H137899   5.008   2.044  20.966  0.1301  1.7181 -0.6477
 4568TIP3    H237900   4.860   2.016  20.959  0.5254 -1.5493  1.6700
 4569TIP3   OH237901   4.107   4.022  20.722  0.2121 -0.1009  0.3213
 4569TIP3    H137902   4.142   4.110  20.736  1.7926 -0.5553 -0.5978
 4569TIP3    H237903   4.012   4.033  20.726  0.3420  1.8486 -0.8315
 4570TIP3   OH237904   3.417   1.113  18.558 -0.3239 -0.1100 -0.0342
 4570TIP3    H137905   3.510   1.091  18.551  0.0498  1.3305  0.0680
 4570TIP3    H237906   3.387   1.121  18.468  0.3120  1.9302 -0.1053
 4571TIP3   OH237907   4.513   6.506  17.895  0.6397  0.6255  0.2532
 4571TIP3    H137908   4.484   6.565  17.825 -0.5145 -0.6663 -0.4071
 4571TIP3    H237909   4.525   6.563  17.971 -2.2460  1.5417  0.1602
 4572TIP3   OH237910   2.033   2.954  19.527  0.0315  0.1600  0.3058
 4572TIP3    H137911   2.120   2.918  19.542  0.5301  0.8676 -0.7657
 4572TIP3    H237912   2.047   3.049  19.526 -0.7948  0.2877  0.3458
 4573TIP3   OH237913   1.805   0.574  17.273  0.0009  0.2800  0.6049
 4573TIP3    H137914   1.854   0.555  17.194  0.6259  2.2354  0.4607
 4573TIP3    H237915   1.859   0.639  17.320 -1.0123  0.2103  1.9337
 4574TIP3   OH237916   3.476   2.139  20.623  0.3321 -0.0820 -0.2088
 4574TIP3    H137917   3.429   2.067  20.665  0.8532 -0.4491 -0.2425
 4574TIP3    H237918   3.556   2.099  20.590  2.4153  1.1536  2.9126
 4575TIP3   OH237919   4.657   6.217  18.202  0.6205  0.1560  0.5920
 4575TIP3    H137920   4.597   6.175  18.140  0.6905 -1.7291  1.6952
 4575TIP3    H237921   4.626   6.188  18.288  3.1720 -1.0547  1.1912
 4576TIP3   OH237922   0.085   2.731  18.758 -0.1335 -0.4802 -0.4373
 4576TIP3    H137923  -0.008   2.748  18.777  0.0733  2.1329 -1.3381
 4576TIP3    H237924   0.100   2.774  18.673  1.9064 -0.8669 -0.3174
 4577TIP3   OH237925   5.843   1.738  20.834  0.0636 -0.2488  0.0240
 4577TIP3    H137926   5.926   1.696  20.811  0.2590  1.1397 -2.0651
 4577TIP3    H237927   5.838   1.815  20.778 -2.6420 -0.2652  0.0791
 4578TIP3   OH237928   5.452   4.918  18.872 -0.2212 -0.3349  0.2780
 4578TIP3    H137929   5.470   4.985  18.939 -2.4805  0.0941  0.5530
 4578TIP3    H237930   5.392   4.857  18.916  1.0439 -2.0589 -0.2816
 4579TIP3   OH237931   2.634   5.972  17.923  0.2246  0.5968  0.1620
 4579TIP3    H137932   2.716   5.942  17.962 -0.0976  0.8174  1.0276
 4579TIP3    H237933   2.635   5.934  17.835  2.3364  2.4861 -0.7230
 4580TIP3   OH237934   1.521   0.732  19.489  0.2575 -0.3620 -0.2145
 4580TIP3    H137935   1.437   0.740  19.444  0.2004  2.6975  0.2115
 4580TIP3    H237936   1.586   0.754  19.422  0.5547 -0.5446  0.0133
 4581TIP3   OH237937   1.301   6.500  19.247  0.3538 -0.7167  0.5262
 4581TIP3    H137938   1.278   6.420  19.295 -0.6091 -0.6678  0.1615
 4581TIP3    H237939   1.217   6.542  19.229  0.8052 -0.0120  0.0323
 4582TIP3   OH237940   6.697   1.493  17.826 -0.1784  0.3739  0.8708
 4582TIP3    H137941   6.650   1.566  17.786  2.2143  0.8507 -1.3724
 4582TIP3    H237942   6.680   1.419  17.769 -1.2794 -0.5017  2.2467
 4583TIP3   OH237943   3.936   0.119  19.460 -0.4741 -0.2378  0.7684
 4583TIP3    H137944   3.940   0.025  19.442  0.1381 -0.1536  0.4450
 4583TIP3    H237945   3.855   0.148  19.418  0.8458 -0.0601 -1.8364
 4584TIP3   OH237946   4.881   4.000  19.307 -0.2761 -0.3551  0.5513
 4584TIP3    H137947   4.929   3.998  19.390 -0.1687 -0.9790  0.4739
 4584TIP3    H237948   4.904   3.919  19.263  1.3468  0.8766 -1.0481
 4585TIP3   OH237949   5.956   2.229  18.735  0.2199 -0.2004  0.0301
 4585TIP3    H137950   5.888   2.247  18.799 -0.3864 -1.2226 -0.3026
 4585TIP3    H237951   5.975   2.314  18.695 -1.2702  0.0063 -0.2791
 4586TIP3   OH237952   6.621   4.871  17.917  0.2797  1.0747 -0.5162
 4586TIP3    H137953   6.555   4.829  17.971  0.3544 -0.9589 -1.8907
 4586TIP3    H237954   6.697   4.883  17.975  0.6550 -1.7880 -0.2888
 4587TIP3   OH237955   6.465   3.967  19.083 -0.1728 -0.4574 -0.8128
 4587TIP3    H137956   6.544   3.915  19.099  0.7760  0.7472 -1.3595
 4587TIP3    H237957   6.413   3.914  19.023  1.1414 -0.4750 -2.0017
 4588TIP3   OH237958   5.888   0.932  20.142 -0.0053 -0.0646  0.0061
 4588TIP3    H137959   5.940   0.964  20.216  0.1468  2.7394 -1.1858
 4588TIP3    H237960   5.950   0.883  20.089  0.8588  1.1159 -0.1254
 4589TIP3   OH237961   2.482   6.033  20.541 -0.1037 -0.1562 -0.0216
 4589TIP3    H137962   2.575   6.035  20.517  0.4755 -2.1436  1.7552
 4589TIP3    H237963   2.447   5.958  20.493 -1.1226  1.2267 -1.5419
 4590TIP3   OH237964   3.855   5.450  20.622  0.5331  0.0070  0.4049
 4590TIP3    H137965   3.813   5.532  20.646  0.7198  0.3441 -0.4112
 4590TIP3    H237966   3.934   5.447  20.677  0.9701  0.7859 -0.1595
 4591TIP3   OH237967   1.218   2.631  20.536 -0.0310  0.2536  0.1470
 4591TIP3    H137968   1.127   2.603  20.547  0.4082 -2.2457 -1.8751
 4591TIP3    H237969   1.267   2.581  20.602 -0.0042  1.2316  0.9021
 4592TIP3   OH237970   4.577   6.611  19.707  0.4565  0.3338  0.6143
 4592TIP3    H137971   4.653   6.556  19.725 -0.7979 -2.2184 -1.2864
 4592TIP3    H237972   4.514   6.588  19.775  0.3729  0.3303  0.5350
 4593TIP3   OH237973   4.267   3.861  19.743 -0.8742  0.6766  0.1623
 4593TIP3    H137974   4.178   3.893  19.730 -0.4169  1.8210 -0.2463
 4593TIP3    H237975   4.317   3.937  19.774  0.3723  0.5851 -1.4306
 4594TIP3   OH237976   4.554   5.843  20.029 -0.6663  0.1623 -0.8194
 4594TIP3    H137977   4.518   5.783  19.963 -0.2330  0.3487 -1.2341
 4594TIP3    H237978   4.482   5.859  20.089 -0.4587 -1.7442 -0.0001
 4595TIP3   OH237979   2.816   5.212  19.034 -0.5946 -0.2647  0.5299
 4595TIP3    H137980   2.905   5.239  19.057  0.4784 -1.0599 -2.2715
 4595TIP3    H237981   2.825   5.121  19.004 -2.4534 -0.5288  0.6328
 4596TIP3   OH237982   6.686   5.681  19.902 -0.4870  0.7710 -0.5784
 4596TIP3    H137983   6.685   5.597  19.857  0.4847  0.7324 -0.5456
 4596TIP3    H237984   6.608   5.726  19.871 -0.4829  0.2532 -1.3522
 4597TIP3   OH237985   0.737   4.836  18.529 -0.3539  0.0821 -0.2497
 4597TIP3    H137986   0.755   4.825  18.622 -0.1628  0.2014 -0.2717
 4597TIP3    H237987   0.645   4.811  18.519 -0.3274 -0.0918 -0.0584
 4598TIP3   OH237988   1.981   6.309  20.402  0.2812 -0.1148  0.5692
 4598TIP3    H137989   2.039   6.315  20.327 -0.7709  1.7833 -0.1722
 4598TIP3    H237990   1.919   6.240  20.379  1.0068 -0.7574  0.4935
 4599TIP3   OH237991   6.243   0.082  19.138 -0.3149 -0.9625 -0.2553
 4599TIP3    H137992   6.164   0.080  19.192 -0.3677 -0.2298 -0.2990
 4599TIP3    H237993   6.314   0.103  19.200 -0.0244 -2.3851 -0.0730
 4600TIP3   OH237994   3.898   0.847  19.896 -0.1299  0.4276  0.5601
 4600TIP3    H137995   3.810   0.880  19.910 -0.1356  0.0672  1.4269
 4600TIP3    H237996   3.892   0.798  19.814 -0.9572 -0.3184  1.0423
 4601TIP3   OH237997   2.303   2.869  19.020  0.7276  0.7182 -0.1051
 4601TIP3    H137998   2.239   2.888  18.951  0.6370 -0.4012 -0.3595
 4601TIP3    H237999   2.252   2.867  19.101  0.1369 -1.4022 -0.4465
 4602TIP3   OH238000   4.515   6.287  18.865  0.3049  0.0536 -0.2392
 4602TIP3    H138001   4.464   6.366  18.849  1.2681  0.2211 -2.8202
 4602TIP3    H238002   4.455   6.230  18.915 -1.2779  1.4064 -0.4949
 4603TIP3   OH238003   0.378   6.495  20.495  0.0538  0.3316  0.4688
 4603TIP3    H138004   0.294   6.538  20.511  0.0478  0.1875  0.8538
 4603TIP3    H238005   0.355   6.403  20.481 -0.0186  0.5689 -1.2103
 4604TIP3   OH238006   2.091   3.131  20.598  0.3296  0.0034  0.0282
 4604TIP3    H138007   2.178   3.149  20.562  0.9041  0.7912  1.7049
 4604TIP3    H238008   2.104   3.052  20.652 -0.1083 -0.1386 -0.0696
 4605TIP3   OH238009   2.130   1.515  19.884  0.1727  0.8857 -0.2342
 4605TIP3    H138010   2.116   1.544  19.794  0.4196 -0.0416 -0.5864
 4605TIP3    H238011   2.050   1.538  19.930  0.2113  1.7454 -0.5835
 4606TIP3   OH238012   4.024   1.426  19.193  0.1462 -0.2538  0.0394
 4606TIP3    H138013   4.045   1.333  19.207  0.9278  0.0041  0.7374
 4606TIP3    H238014   3.954   1.444  19.256  0.5397 -0.1914  0.4697
 4607TIP3   OH238015   5.544   0.141  19.795 -0.1345 -0.3587  0.4500
 4607TIP3    H138016   5.482   0.162  19.864 -1.1059 -3.6334  0.7473
 4607TIP3    H238017   5.491   0.134  19.716  0.3031 -0.5860  0.1742
 4608TIP3   OH238018   5.182   3.326  17.725  0.9961 -0.0962 -0.0251
 4608TIP3    H138019   5.187   3.306  17.632  2.1016  0.2032 -0.0520
 4608TIP3    H238020   5.130   3.255  17.763  0.7200 -0.3328 -0.8325
 4609TIP3   OH238021   4.750   4.165  20.666 -0.1126  0.7541  0.1115
 4609TIP3    H138022   4.680   4.101  20.660  1.0071 -0.4807 -0.2856
 4609TIP3    H238023   4.827   4.114  20.693  0.1235  2.4414  3.1049
 4610TIP3   OH238024   2.591   0.381  19.685 -0.1982 -0.1784  0.1555
 4610TIP3    H138025   2.664   0.335  19.725 -0.1044 -1.1777 -1.1059
 4610TIP3    H238026   2.537   0.312  19.646 -2.8861  0.3103  2.6382
 4611TIP3   OH238027   3.409   0.313  20.627  0.0165  0.4590  0.1776
 4611TIP3    H138028   3.351   0.308  20.550  1.1885 -1.5828 -0.6517
 4611TIP3    H238029   3.398   0.402  20.659 -2.6696  0.5177 -0.6570
 4612TIP3   OH238030   0.652   1.695  18.586  0.2416 -0.0520  0.2112
 4612TIP3    H138031   0.733   1.684  18.636 -0.2091 -1.4842  0.6797
 4612TIP3    H238032   0.583   1.666  18.646 -0.7608  2.1470  0.1995
 4613TIP3   OH238033   4.646   3.425  18.349 -0.1111  0.4320  0.1760
 4613TIP3    H138034   4.656   3.509  18.393  0.4305  1.5144 -1.9051
 4613TIP3    H238035   4.604   3.445  18.266  2.0215 -0.9794 -1.3629
 4614TIP3   OH238036   2.012   0.805  19.206  0.4743  0.0108 -0.3451
 4614TIP3    H138037   1.952   0.860  19.156  0.1644  0.8059  0.8570
 4614TIP3    H238038   2.054   0.750  19.140  0.2147  1.1353 -1.4907
 4615TIP3   OH238039   2.284   4.639  18.994 -0.5352 -0.1865 -0.5770
 4615TIP3    H138040   2.218   4.664  18.930 -2.1002  0.8910  1.3568
 4615TIP3    H238041   2.248   4.562  19.038  0.6579 -1.1068 -1.1398
 4616TIP3   OH238042   4.106   5.733  18.289 -0.3009  0.2755  0.0401
 4616TIP3    H138043   4.170   5.662  18.294 -0.2258  0.2825 -0.7329
 4616TIP3    H238044   4.159   5.812  18.280 -0.4023  0.3716  0.2723
 4617TIP3   OH238045   1.582   2.827  19.078  0.5039 -0.5269 -0.4055
 4617TIP3    H138046   1.565   2.891  19.148  3.2740 -1.3171  1.1632
 4617TIP3    H238047   1.519   2.849  19.009 -1.2347  1.3926  1.6210
 4618TIP3   OH238048   2.637   3.922  18.223  0.0720  0.4545  0.4401
 4618TIP3    H138049   2.547   3.940  18.194 -0.5482 -2.1772  0.5017
 4618TIP3    H238050   2.675   3.870  18.152  1.1823  0.5438  0.9427
 4619TIP3   OH238051   5.846   2.694  18.742  0.2932 -0.0014  0.5807
 4619TIP3    H138052   5.778   2.688  18.809 -0.8867 -1.9025 -0.6819
 4619TIP3    H238053   5.891   2.610  18.746 -0.6588 -0.7115 -1.7825
 4620TIP3   OH238054   6.449   3.671  17.062  0.4769  0.2516  0.8575
 4620TIP3    H138055   6.523   3.610  17.057 -0.1120 -0.4070 -0.1142
 4620TIP3    H238056   6.446   3.714  16.977 -2.6848 -2.7083 -0.7721
 4621TIP3   OH238057   5.129   0.371  19.957 -0.2571 -0.2439 -0.5752
 4621TIP3    H138058   5.178   0.428  20.016 -0.9830 -1.3428  1.1718
 4621TIP3    H238059   5.044   0.359  20.000 -0.5955 -1.5948 -1.5415
 4622TIP3   OH238060   3.497   0.387  19.435 -0.0874 -0.0622  0.1597
 4622TIP3    H138061   3.490   0.328  19.359  0.6261 -0.0614  0.0847
 4622TIP3    H238062   3.439   0.460  19.413 -1.0862 -0.7970  0.3146
 4623TIP3   OH238063   1.110   6.702  20.396 -0.0462 -0.0074 -0.5851
 4623TIP3    H138064   1.054   6.625  20.390  0.3684 -0.3328 -0.2846
 4623TIP3    H238065   1.121   6.716  20.490  0.9173 -0.3366 -0.6393
 4624TIP3   OH238066   3.140   3.717  18.550  0.0953  0.0005  0.1000
 4624TIP3    H138067   3.232   3.704  18.527 -0.3207 -1.6508 -0.7107
 4624TIP3    H238068   3.107   3.779  18.485  0.8854  1.5577  1.1051
 4625TIP3   OH238069   0.771   6.593  20.883 -0.8847  0.1846 -0.0604
 4625TIP3    H138070   0.773   6.562  20.793  0.0382  0.6651 -0.2145
 4625TIP3    H238071   0.711   6.668  20.881  0.2833  1.1490 -0.6129
 4626TIP3   OH238072   2.774   1.933  19.874 -0.1002  0.0245 -0.1741
 4626TIP3    H138073   2.748   2.005  19.931 -1.3731  1.2092 -2.1227
 4626TIP3    H238074   2.869   1.930  19.880  0.0163  2.1573 -0.3228
 4627TIP3   OH238075   4.773   5.299  19.522  0.0075 -0.3650  0.1274
 4627TIP3    H138076   4.836   5.365  19.550 -0.3024  0.0321 -0.1121
 4627TIP3    H238077   4.827   5.225  19.492  0.4345  0.7293 -1.9866
 4628TIP3   OH238078   0.970   1.413  20.040 -0.2235  0.2244 -0.2216
 4628TIP3    H138079   1.027   1.439  20.112 -0.4979 -0.0183  0.0860
 4628TIP3    H238080   1.018   1.439  19.961  0.6149 -0.5696  0.0038
 4629TIP3   OH238081   0.702   4.933  20.343 -0.8254 -0.4003 -1.0027
 4629TIP3    H138082   0.626   4.920  20.286 -1.7005 -0.9800  0.2531
 4629TIP3    H238083   0.684   5.014  20.390 -0.8156 -0.6979 -0.4779
 4630TIP3   OH238084   2.016   2.859  17.600 -0.0646 -0.0483 -0.0219
 4630TIP3    H138085   2.020   2.910  17.519  0.2877 -0.1762 -0.0871
 4630TIP3    H238086   1.933   2.884  17.641  0.2931  0.8931  0.1516
 4631TIP3   OH238087   4.099   5.794  20.504  0.7236 -0.3721  0.0261
 4631TIP3    H138088   4.049   5.822  20.427 -1.9916  1.2283  2.1626
 4631TIP3    H238089   4.114   5.875  20.553  0.7358 -1.5322  2.0517
 4632TIP3   OH238090   0.640   5.738  20.804  0.0403  0.1512  0.0976
 4632TIP3    H138091   0.647   5.811  20.867  1.5600 -0.3528  0.5633
 4632TIP3    H238092   0.715   5.682  20.824 -0.8586 -1.3374 -0.5407
 4633TIP3   OH238093   4.461   6.690  19.465 -0.2237 -0.0060 -1.2310
 4633TIP3    H138094   4.474   6.668  19.557 -0.5175 -1.9006 -1.5907
 4633TIP3    H238095   4.433   6.782  19.466 -1.7953 -0.4235  0.6947
 4634TIP3   OH238096   5.851   3.392  18.671 -0.1032 -0.5692  0.1667
 4634TIP3    H138097   5.822   3.420  18.584 -2.3091 -1.6194  0.4960
 4634TIP3    H238098   5.855   3.473  18.722  1.8091  0.1424 -1.0159
 4635TIP3   OH238099   1.635   2.586  17.546  0.2944 -0.2784 -0.1638
 4635TIP3    H138100   1.624   2.505  17.495 -0.5836 -1.7116  2.1249
 4635TIP3    H238101   1.556   2.637  17.527  1.2348  0.4981 -2.2653
 4636TIP3   OH238102   4.509   2.807  19.877 -0.5237  0.2920 -0.3625
 4636TIP3    H138103   4.556   2.890  19.866  0.2460  0.0636  1.0067
 4636TIP3    H238104   4.528   2.780  19.966 -4.3248  0.8495  0.8193
 4637TIP3   OH238105   1.920   4.348  20.010 -0.3466 -0.2042 -0.1003
 4637TIP3    H138106   1.976   4.275  19.984  1.3188  0.0488  2.4999
 4637TIP3    H238107   1.917   4.405  19.932 -2.6355 -3.4072 -2.6434
 4638TIP3   OH238108   3.310   5.933  18.453  0.2617 -0.1701 -0.6543
 4638TIP3    H138109   3.398   5.929  18.490 -0.3360 -2.6493  0.7693
 4638TIP3    H238110   3.318   5.894  18.366  0.6871  0.3970 -0.8746
 4639TIP3   OH238111   1.979   4.561  18.883  0.0332 -0.2447 -0.0818
 4639TIP3    H138112   1.975   4.625  18.811 -0.9721 -0.2420 -0.0446
 4639TIP3    H238113   1.928   4.487  18.851 -0.3255 -0.2856  0.5850
 4640TIP3   OH238114   1.523   5.456  19.283 -0.1694  0.1521 -0.5631
 4640TIP3    H138115   1.450   5.505  19.246  1.7605  1.4870 -2.8351
 4640TIP3    H238116   1.539   5.386  19.219  1.1347  0.4672 -0.5954
 4641TIP3   OH238117   0.788   5.121  18.281  0.0982  0.5229 -0.3294
 4641TIP3    H138118   0.864   5.065  18.265 -0.2887 -0.2411  0.4494
 4641TIP3    H238119   0.825   5.207  18.303  0.7213  0.1926 -0.0807
 4642TIP3   OH238120   1.646   2.149  19.586  0.1096 -0.2460  0.1198
 4642TIP3    H138121   1.581   2.178  19.522  0.8839 -3.0936 -2.1328
 4642TIP3    H238122   1.633   2.208  19.660 -2.7439  1.4429 -1.5138
 4643TIP3   OH238123   5.221   5.205  18.049 -0.2484  0.4330  0.1298
 4643TIP3    H138124   5.211   5.156  17.967  0.1056 -1.3262  1.0847
 4643TIP3    H238125   5.310   5.239  18.046  0.1846 -0.6302  0.2642
 4644TIP3   OH238126   2.916   3.258  19.872 -0.5985 -0.1504  0.1023
 4644TIP3    H138127   3.010   3.272  19.882 -0.5341 -1.2006  1.1495
 4644TIP3    H238128   2.882   3.345  19.849  0.5636  0.3320  0.1134
 4645TIP3   OH238129   1.761   1.194  17.302 -0.3122  0.2761  0.2401
 4645TIP3    H138130   1.711   1.123  17.260 -1.4551  0.9375  0.4395
 4645TIP3    H238131   1.822   1.224  17.235 -2.1173  1.3279 -1.0107
 4646TIP3   OH238132   3.991   5.304  19.776 -0.0180 -0.0938 -0.2986
 4646TIP3    H138133   3.958   5.295  19.686 -1.2611  0.8530  0.0264
 4646TIP3    H238134   3.920   5.269  19.830  1.0309 -1.3531  0.3019
 4647TIP3   OH238135   3.484   1.517  20.159 -0.3484  0.0233  0.3478
 4647TIP3    H138136   3.538   1.439  20.160 -0.0528  0.0846 -2.4207
 4647TIP3    H238137   3.401   1.488  20.121 -0.5350  0.8600  0.0938
 4648TIP3   OH238138   0.743   5.691  18.439 -0.2442 -0.2172  0.1946
 4648TIP3    H138139   0.785   5.619  18.487  0.0052  0.4197  0.9489
 4648TIP3    H238140   0.708   5.748  18.507 -2.8195 -0.9584 -0.3935
 4649TIP3   OH238141   1.616   6.430  20.913  0.2514 -0.1189  0.0714
 4649TIP3    H138142   1.543   6.368  20.922  1.8322 -1.7702  2.4403
 4649TIP3    H238143   1.686   6.379  20.873  1.5891  0.0738  2.0647
 4650TIP3   OH238144   3.342   0.610  19.368  0.1216 -0.1236  0.8337
 4650TIP3    H138145   3.370   0.698  19.392  1.9196 -0.0675 -1.2206
 4650TIP3    H238146   3.329   0.613  19.274 -0.8447 -1.7970  0.8771
 4651TIP3   OH238147   3.063   5.682  18.746 -0.2467 -0.5464 -0.0377
 4651TIP3    H138148   3.111   5.621  18.802 -0.6666 -0.1654  0.7528
 4651TIP3    H238149   2.987   5.708  18.798 -0.5235 -0.0062 -0.6979
 4652TIP3   OH238150   4.404   0.230  19.603 -0.3113 -0.1462  0.0856
 4652TIP3    H138151   4.367   0.155  19.651 -3.5456 -0.7142 -2.8794
 4652TIP3    H238152   4.333   0.258  19.545  2.3888  2.2187 -2.3317
 4653TIP3   OH238153   0.316   5.948  19.081  0.4232 -0.1285  0.4176
 4653TIP3    H138154   0.351   5.992  19.159 -1.2578  0.3527  0.9617
 4653TIP3    H238155   0.270   6.017  19.034 -0.7790 -0.9294  0.3728
 4654TIP3   OH238156   3.704   3.651  19.595  0.4838 -0.1801  0.3195
 4654TIP3    H138157   3.769   3.582  19.582  0.6940 -0.5274  2.7946
 4654TIP3    H238158   3.624   3.606  19.621  0.3227  0.4401  0.9425
 4655TIP3   OH238159   4.066   2.886  20.543  0.4195  0.3344 -0.2420
 4655TIP3    H138160   4.081   2.841  20.626 -0.6032 -0.0427 -0.2400
 4655TIP3    H238161   4.104   2.973  20.555 -0.1012  0.4376  0.7834
 4656TIP3   OH238162   5.310   3.851  20.423 -0.5990 -0.5187  0.1431
 4656TIP3    H138163   5.216   3.851  20.441 -0.6694  0.5006 -0.1837
 4656TIP3    H238164   5.351   3.851  20.509 -0.8977 -0.8637  0.2877
 4657TIP3   OH238165   4.721   5.953  20.574 -0.6048 -0.2768  0.3335
 4657TIP3    H138166   4.672   5.876  20.546 -1.7116  0.5976 -0.2231
 4657TIP3    H238167   4.785   5.967  20.504 -1.5305  0.2756 -0.4358
 4658TIP3   OH238168   2.761   3.957  19.133  0.2534 -0.2490  0.2380
 4658TIP3    H138169   2.788   3.866  19.123 -2.1143 -0.8955 -1.0547
 4658TIP3    H238170   2.843   4.004  19.149  1.9414 -2.2118 -1.8736
 4659TIP3   OH238171   0.906   4.320  18.954  0.1705  0.0341 -0.3148
 4659TIP3    H138172   0.861   4.272  18.885  0.1051  0.5928 -0.6662
 4659TIP3    H238173   0.838   4.375  18.994  0.0559 -0.7865  0.6538
 4660TIP3   OH238174   5.994   3.505  20.287 -0.4130  0.1557  0.5653
 4660TIP3    H138175   5.976   3.554  20.207 -0.0430  0.3516  0.5996
 4660TIP3    H238176   5.941   3.548  20.354 -1.3195 -0.4839  0.2746
 4661TIP3   OH238177   3.207   1.896  19.491  0.0192  0.4226  0.3066
 4661TIP3    H138178   3.162   1.812  19.497 -0.1518  0.5437  0.7947
 4661TIP3    H238179   3.163   1.951  19.556  1.4625  0.2565  1.5010
 4662TIP3   OH238180   2.011   2.968  17.343 -0.6339  0.1137 -0.1630
 4662TIP3    H138181   1.932   2.971  17.289 -0.9443  2.2871  0.2866
 4662TIP3    H238182   2.075   3.019  17.293  0.0279 -0.4350  0.1240
 4663TIP3   OH238183   5.521   3.192  20.074  0.1091  0.1392 -0.6453
 4663TIP3    H138184   5.547   3.218  19.985  0.6480  0.5015 -0.3851
 4663TIP3    H238185   5.428   3.173  20.067 -0.0164  0.8885 -1.1258
 4664TIP3   OH238186   4.624   1.749  18.670  0.6539  0.6698  0.0478
 4664TIP3    H138187   4.636   1.680  18.735  0.4369 -0.3783 -0.9724
 4664TIP3    H238188   4.713   1.781  18.652  0.5747  2.2631  2.1356
 4665TIP3   OH238189   4.802   0.794  19.768  0.3533  0.1363  0.0731
 4665TIP3    H138190   4.739   0.864  19.753  1.5377  1.1673 -0.3173
 4665TIP3    H238191   4.881   0.822  19.722  0.3678 -2.2852 -1.5888
 4666TIP3   OH238192   6.339   0.275  18.815 -0.5523  0.7992 -0.7415
 4666TIP3    H138193   6.378   0.362  18.821  1.3117 -0.0525  1.2293
 4666TIP3    H238194   6.287   0.266  18.895 -2.0134  0.6292 -1.6754
 4667TIP3   OH238195   6.692   1.583  20.658 -0.2825 -0.4538 -0.2830
 4667TIP3    H138196   6.772   1.597  20.607  0.0190 -0.8709  0.0711
 4667TIP3    H238197   6.694   1.653  20.723 -0.1223 -0.5614 -0.1715
 4668TIP3   OH238198   5.427   2.167  20.308  0.5341  0.0017  0.1884
 4668TIP3    H138199   5.413   2.079  20.272 -0.7803  0.2431  0.0766
 4668TIP3    H238200   5.348   2.215  20.286  0.9489  1.0239  0.8527
 4669TIP3   OH238201   3.644   6.319  19.645  0.1377  1.2277  0.1508
 4669TIP3    H138202   3.556   6.356  19.655 -0.0928  1.2856 -1.7767
 4669TIP3    H238203   3.630   6.227  19.623  0.5579  1.1662  0.1319
 4670TIP3   OH238204   6.371   3.613  17.316 -0.4130 -0.3958 -0.0215
 4670TIP3    H138205   6.401   3.634  17.228  0.8166  0.5659  0.6022
 4670TIP3    H238206   6.300   3.549  17.303  0.9272 -1.6383 -1.6223
 4671TIP3   OH238207   6.285   5.151  20.614 -0.3712  0.1108  0.2643
 4671TIP3    H138208   6.239   5.227  20.577  0.5257  0.0430 -1.0554
 4671TIP3    H238209   6.279   5.084  20.547  2.2006  0.3238 -0.2900
 4672TIP3   OH238210   5.023   5.879  20.765  0.1427  0.1808 -0.2418
 4672TIP3    H138211   4.930   5.901  20.772  0.2877  0.4823  0.7735
 4672TIP3    H238212   5.066   5.932  20.831  0.9273 -0.6382 -0.0718
 4673TIP3   OH238213   4.688   3.319  18.023 -0.2830  0.4143 -0.5760
 4673TIP3    H138214   4.618   3.382  18.042  1.1473  2.0339 -0.4449
 4673TIP3    H238215   4.769   3.367  18.039  0.8940 -1.1378 -1.5548
 4674TIP3   OH238216   6.355   6.358  18.764 -0.0097  0.8655  0.2997
 4674TIP3    H138217   6.289   6.291  18.784  0.1681  0.6535  0.1904
 4674TIP3    H238218   6.349   6.421  18.835 -0.7187  1.1481 -0.0051
 4675TIP3   OH238219   3.727   1.933  20.165 -0.3475 -0.2108  0.3544
 4675TIP3    H138220   3.738   1.987  20.243  0.3975 -1.1518  0.9137
 4675TIP3    H238221   3.661   1.869  20.189 -1.1020  0.3217 -0.2527
 4676TIP3   OH238222   4.427   3.107  17.565 -0.1489 -0.1510  0.4722
 4676TIP3    H138223   4.508   3.056  17.561  0.3245  0.6163 -0.3490
 4676TIP3    H238224   4.363   3.048  17.604  0.1007 -1.7414 -1.3634
 4677TIP3   OH238225   1.808   6.190  19.331  0.1919  0.0533 -0.5444
 4677TIP3    H138226   1.782   6.282  19.342  1.0917  0.5010 -1.9568
 4677TIP3    H238227   1.843   6.165  19.416  2.1893  1.7944 -0.7758
 4678TIP3   OH238228   4.605   6.361  19.469  0.2252 -0.6322  0.1916
 4678TIP3    H138229   4.615   6.341  19.562 -0.0143  1.2798  0.6841
 4678TIP3    H238230   4.511   6.352  19.452 -0.2671  2.0127  0.9917
 4679TIP3   OH238231   6.628   5.876  17.887 -0.2243  0.0644  0.0766
 4679TIP3    H138232   6.648   5.783  17.886  3.2960  0.6440  1.6070
 4679TIP3    H238233   6.669   5.911  17.807  1.6419  0.6911  1.2238
 4680TIP3   OH238234   2.576   3.277  18.579  0.0471  0.4319  0.6670
 4680TIP3    H138235   2.522   3.262  18.658  0.2034 -1.8500  0.4052
 4680TIP3    H238236   2.657   3.229  18.596  0.8573  1.4616 -0.1537
 4681TIP3   OH238237   1.822   4.689  19.985  0.2402 -0.5770 -0.1190
 4681TIP3    H138238   1.897   4.660  19.933 -0.4983 -1.8468 -0.5328
 4681TIP3    H238239   1.766   4.735  19.923 -0.5460 -1.9184 -0.4462
 4682TIP3   OH238240   3.538   5.462  18.953  0.0940  0.3832 -0.4793
 4682TIP3    H138241   3.596   5.455  18.876 -0.9558  0.6037 -1.3121
 4682TIP3    H238242   3.456   5.421  18.925 -0.0427 -0.2752  0.8188
 4683TIP3   OH238243   6.286   3.023  19.221  0.4179 -0.3181 -0.6252
 4683TIP3    H138244   6.296   2.933  19.189 -1.4328 -0.6734 -0.3012
 4683TIP3    H238245   6.196   3.047  19.199  1.6315  2.5591 -3.3432
 4684TIP3   OH238246   0.657   1.482  19.794 -0.1784 -0.1207 -0.4465
 4684TIP3    H138247   0.702   1.553  19.747  0.1445 -0.7817 -1.1628
 4684TIP3    H238248   0.579   1.465  19.742 -0.2180 -0.3379 -0.3151
 4685TIP3   OH238249   6.516   2.179  17.180  0.0671 -0.2075  0.1482
 4685TIP3    H138250   6.434   2.137  17.207  0.3157 -1.6472 -1.1986
 4685TIP3    H238251   6.493   2.229  17.102  0.2531  0.2632  0.3925
 4686TIP3   OH238252   4.620   1.577  18.022  0.0104 -0.3344 -0.2841
 4686TIP3    H138253   4.659   1.616  18.101  1.4193 -2.7380  0.3076
 4686TIP3    H238254   4.532   1.551  18.049  0.1947 -0.4202  0.2527
 4687TIP3   OH238255   1.093   0.123  18.248 -0.7011 -0.1464 -0.3110
 4687TIP3    H138256   1.020   0.099  18.192 -0.8719 -0.1476 -0.0859
 4687TIP3    H238257   1.151   0.046  18.246 -1.1793 -0.5341  0.2939
 4688TIP3   OH238258   3.176   0.623  18.725 -0.0128 -0.1927  0.3487
 4688TIP3    H138259   3.216   0.696  18.677 -1.0460  0.0199 -0.2324
 4688TIP3    H238260   3.093   0.607  18.679 -1.0348 -0.0137  2.0451
 4689TIP3   OH238261   5.360   0.582  19.308  0.1226  0.2978 -0.2486
 4689TIP3    H138262   5.280   0.610  19.352 -0.8133 -1.7080 -0.5691
 4689TIP3    H238263   5.364   0.488  19.323  2.6173  0.3774  0.0116
 4690TIP3   OH238264   1.031   5.584  19.360 -0.5923 -0.1180  0.4053
 4690TIP3    H138265   1.059   5.607  19.271  1.3229 -0.9642  0.7500
 4690TIP3    H238266   1.103   5.612  19.416 -0.8265 -1.5112  1.4616
 4691TIP3   OH238267   3.025   4.295  19.874 -0.2774 -0.3080 -0.1012
 4691TIP3    H138268   3.026   4.212  19.922 -2.0292 -1.7159 -2.2841
 4691TIP3    H238269   3.024   4.362  19.942  0.3563 -2.0551  1.7549
 4692TIP3   OH238270   0.871   1.149  20.300  0.2762 -0.1730  0.3113
 4692TIP3    H138271   0.924   1.113  20.229  1.1259  2.2732 -0.3905
 4692TIP3    H238272   0.898   1.099  20.377  1.5438 -0.8651 -0.5353
 4693TIP3   OH238273   6.045   3.133  19.238  0.2119  0.1781  0.2490
 4693TIP3    H138274   6.010   3.206  19.186 -2.0313 -0.5179  0.6743
 4693TIP3    H238275   6.041   3.164  19.328 -4.2201 -1.5285  0.8944
 4694TIP3   OH238276   4.880   3.472  20.391  0.4295  0.0829  0.4545
 4694TIP3    H138277   4.929   3.529  20.451 -0.9890  1.4591  0.3877
 4694TIP3    H238278   4.812   3.529  20.355  0.3195 -1.1101 -1.3424
 4695TIP3   OH238279   1.686   0.994  18.253  0.4778  0.5042  0.4174
 4695TIP3    H138280   1.612   1.014  18.311 -0.4061 -0.8713 -0.1918
 4695TIP3    H238281   1.761   0.983  18.312 -0.2510 -0.1921  1.2356
 4696TIP3   OH238282   5.884   3.520  17.347 -0.3674  0.4705 -0.2756
 4696TIP3    H138283   5.807   3.496  17.398 -1.0182  1.5460 -0.7338
 4696TIP3    H238284   5.850   3.566  17.270  0.7383  1.4863 -0.1938
 4697TIP3   OH238285   1.846   0.214  20.865  0.5200  0.4209  0.5596
 4697TIP3    H138286   1.850   0.239  20.958 -1.2124 -0.5031  0.9314
 4697TIP3    H238287   1.790   0.281  20.825 -1.1319 -0.7339  0.8205
 4698TIP3   OH238288   5.475   0.038  17.346  0.3409 -0.2853 -0.1167
 4698TIP3    H138289   5.548   0.096  17.327 -0.8062  1.2240 -0.0486
 4698TIP3    H238290   5.450   0.058  17.436 -0.1144 -0.8498 -0.1080
 4699TIP3   OH238291   6.535   5.911  20.215  0.0262  0.1132 -0.2720
 4699TIP3    H138292   6.517   5.990  20.266 -0.8540 -1.3302  1.8370
 4699TIP3    H238293   6.625   5.888  20.238  0.4163  0.6911 -1.1900
 4700TIP3   OH238294   4.520   5.527  18.866 -0.2530 -0.2836  0.2957
 4700TIP3    H138295   4.459   5.601  18.869 -0.0865 -0.1662  2.6271
 4700TIP3    H238296   4.498   5.481  18.785  0.8689  3.2928 -2.3148
 4701TIP3   OH238297   3.088   3.046  19.640  0.3371 -0.0563  0.3477
 4701TIP3    H138298   3.015   3.102  19.668 -1.2376 -0.6604 -2.2159
 4701TIP3    H238299   3.080   2.968  19.695 -1.1834 -0.2246 -0.0585
 4702TIP3   OH238300   0.218   1.582  20.489  0.3082 -0.2751 -0.3339
 4702TIP3    H138301   0.234   1.490  20.469  0.7348 -0.2687 -0.0257
 4702TIP3    H238302   0.221   1.626  20.404  0.5322 -0.4823 -0.4329
 4703TIP3   OH238303   6.612   0.883  20.472 -0.0802  0.4540  0.1351
 4703TIP3    H138304   6.594   0.888  20.566 -2.4834  0.1166 -0.2465
 4703TIP3    H238305   6.616   0.974  20.443  1.7907  0.6005  0.6823
 4704TIP3   OH238306   0.162   2.144  20.582 -0.1778 -0.8094 -0.4730
 4704TIP3    H138307   0.209   2.065  20.556  2.6021 -0.1761  2.0910
 4704TIP3    H238308   0.200   2.213  20.527 -0.8463 -0.8318 -0.9833
 4705TIP3   OH238309   2.909   2.418  19.097 -0.2475  0.0900  0.1012
 4705TIP3    H138310   2.911   2.494  19.156  0.5089 -0.0123  0.2228
 4705TIP3    H238311   2.922   2.455  19.010  0.0767  0.1065  0.1562
 4706TIP3   OH238312   3.090   2.462  17.206 -0.1682  0.4681 -0.1317
 4706TIP3    H138313   3.181   2.455  17.177 -0.4590  1.2617 -1.3260
 4706TIP3    H238314   3.084   2.550  17.244 -0.3884  0.3460  0.1175
 4707TIP3   OH238315   5.740   5.827  17.879  0.3127  0.6858  0.5373
 4707TIP3    H138316   5.653   5.810  17.914 -0.0988  0.9061 -0.3729
 4707TIP3    H238317   5.728   5.836  17.785  1.6429 -1.7309  0.0255
 4708TIP3   OH238318   6.661   5.589  17.916 -0.0999 -0.0906  0.2562
 4708TIP3    H138319   6.578   5.570  17.961 -0.7629  0.2620 -0.7817
 4708TIP3    H238320   6.708   5.506  17.917  0.2138  0.0618  2.1832
 4709TIP3   OH238321   4.081   1.111  19.457  0.9629 -0.0383 -0.2955
 4709TIP3    H138322   4.023   1.056  19.509 -0.5841  0.3242 -1.5570
 4709TIP3    H238323   4.117   1.174  19.519 -1.3299  0.7958  0.2705
 4710TIP3   OH238324   5.495   2.655  19.284  0.1023  0.0652 -0.5149
 4710TIP3    H138325   5.403   2.676  19.268  0.2120  2.0912  1.0900
 4710TIP3    H238326   5.505   2.664  19.379  1.9630 -0.0734 -0.6693
 4711TIP3   OH238327   4.141   2.485  19.163  0.0686  0.1869 -0.0354
 4711TIP3    H138328   4.200   2.492  19.238 -0.0213 -1.9682  0.3115
 4711TIP3    H238329   4.181   2.417  19.107 -1.8201 -1.0652  0.0264
 4712TIP3   OH238330   3.824   1.466  17.860 -0.2547  0.4516 -0.1243
 4712TIP3    H138331   3.854   1.526  17.929 -0.3833  0.1816  0.1670
 4712TIP3    H238332   3.736   1.496  17.839 -1.2146 -1.0084  1.6185
 4713TIP3   OH238333   4.176   2.285  18.769 -0.1438 -0.1837  0.4619
 4713TIP3    H138334   4.254   2.231  18.774  0.1092  0.2219  1.0193
 4713TIP3    H238335   4.209   2.373  18.749 -0.6711 -0.5251 -2.3968
 4714TIP3   OH238336   1.438   5.299  20.752 -0.2258 -0.0572  0.0438
 4714TIP3    H138337   1.483   5.383  20.761 -0.6651  0.0019  2.3207
 4714TIP3    H238338   1.346   5.323  20.742 -0.4564 -0.2338  1.5206
 4715TIP3   OH238339   0.203   3.889  19.489  0.0161 -0.0086  0.3579
 4715TIP3    H138340   0.225   3.886  19.582 -1.0931  2.2315  0.7775
 4715TIP3    H238341   0.261   3.956  19.452  1.4045 -1.8207 -0.9140
 4716TIP3   OH238342   1.482   5.715  19.462 -0.3316  0.9151 -0.2234
 4716TIP3    H138343   1.512   5.749  19.546 -0.8025 -0.2080  0.4253
 4716TIP3    H238344   1.561   5.679  19.421 -0.5990 -1.6576  1.2954
 4717TIP3   OH238345   2.888   3.312  18.808  0.1614  1.0952 -0.1762
 4717TIP3    H138346   2.872   3.358  18.726 -1.1439 -0.7986 -1.0664
 4717TIP3    H238347   2.983   3.317  18.821  0.2356  2.5351 -1.0762
 4718TIP3   OH238348   3.208   4.318  19.026 -0.4764 -0.4755  0.5509
 4718TIP3    H138349   3.212   4.225  19.004  0.0395 -0.6954  1.5175
 4718TIP3    H238350   3.292   4.353  18.996 -0.2968 -0.5176  0.9903
 4719TIP3   OH238351   6.239   6.698  19.454 -0.1861 -0.4744  0.0664
 4719TIP3    H138352   6.306   6.743  19.403 -0.6580  0.3143  0.1096
 4719TIP3    H238353   6.211   6.764  19.518 -2.2258 -0.1519 -1.0666
 4720TIP3   OH238354   0.087   0.571  20.350  0.1309 -0.9076  0.2017
 4720TIP3    H138355   0.161   0.515  20.374  0.2101 -0.0901  2.0757
 4720TIP3    H238356   0.045   0.526  20.277  2.9412 -0.9790 -1.5237
 4721TIP3   OH238357   4.932   5.870  17.673  0.3819 -0.0414 -0.2544
 4721TIP3    H138358   5.026   5.874  17.656  0.1103  0.3305 -1.8695
 4721TIP3    H238359   4.904   5.962  17.670  0.3846  0.1841  3.1767
 4722TIP3   OH238360   0.674   3.404  20.086  0.5372 -0.9556  0.5857
 4722TIP3    H138361   0.671   3.361  20.171 -0.3008  0.6436  1.4091
 4722TIP3    H238362   0.597   3.460  20.084  1.0602 -0.2287 -0.8399
 4723TIP3   OH238363   2.866   4.551  20.505  0.2486 -0.0250 -0.1958
 4723TIP3    H138364   2.938   4.583  20.559  1.4161 -0.8629 -1.2263
 4723TIP3    H238365   2.846   4.624  20.446 -1.3855  1.0962  1.6250
 4724TIP3   OH238366   5.856   4.310  19.970  0.8459 -0.7806  0.5325
 4724TIP3    H138367   5.855   4.216  19.952  0.1515 -0.4945 -1.1666
 4724TIP3    H238368   5.778   4.344  19.926  0.8773  0.5472  1.4448
 4725TIP3   OH238369   4.347   2.038  17.401  0.0639  0.3677 -0.3213
 4725TIP3    H138370   4.269   1.995  17.368 -1.4265  0.5878  2.5684
 4725TIP3    H238371   4.384   1.976  17.464 -0.4173  1.9632  1.6680
 4726TIP3   OH238372   6.006   0.113  18.310 -0.3368 -0.4732 -0.1705
 4726TIP3    H138373   6.053   0.030  18.304  0.3254 -0.2466  1.3957
 4726TIP3    H238374   5.916   0.089  18.331 -0.3834 -0.8162 -0.7395
 4727TIP3   OH238375   2.238   5.442  20.753 -0.2484 -0.4620  0.4140
 4727TIP3    H138376   2.163   5.432  20.813  0.0883 -0.2995  0.8681
 4727TIP3    H238377   2.286   5.360  20.761 -0.0275 -0.3150  0.6143
 4728TIP3   OH238378   5.336   1.371  17.948 -0.0281 -0.5180 -0.3318
 4728TIP3    H138379   5.348   1.321  17.867  1.3055 -1.6684  0.5259
 4728TIP3    H238380   5.424   1.378  17.985 -0.6609 -0.3386  1.2089
 4729TIP3   OH238381   5.305   3.967  19.347 -0.3777  0.1462 -0.3172
 4729TIP3    H138382   5.303   4.006  19.260  0.3524  0.4033 -0.2262
 4729TIP3    H238383   5.398   3.959  19.368 -0.5479  0.2944  0.5298
 4730TIP3   OH238384   4.199   5.788  19.726 -0.3971 -0.0665  0.1356
 4730TIP3    H138385   4.229   5.698  19.739  0.7635  0.2501 -0.2386
 4730TIP3    H238386   4.154   5.787  19.641  1.5272  0.1280 -0.9474
 4731TIP3   OH238387   3.527   4.544  18.255 -0.1507  0.2114 -0.1019
 4731TIP3    H138388   3.470   4.580  18.187 -1.6077 -0.6536  0.6116
 4731TIP3    H238389   3.571   4.621  18.292 -0.3219  0.8275 -1.1220
 4732TIP3   OH238390   2.379   2.361  20.787 -0.2533  0.2552  0.6135
 4732TIP3    H138391   2.378   2.267  20.805  1.2824  0.2512  0.8369
 4732TIP3    H238392   2.358   2.402  20.870  1.6712  0.1229  1.2306
 4733TIP3   OH238393   4.028   2.697  18.251 -0.0712 -0.4502  0.2418
 4733TIP3    H138394   3.999   2.703  18.342  1.1452  1.6188  0.5479
 4733TIP3    H238395   4.006   2.781  18.213  0.3834 -0.9077 -1.0929
 4734TIP3   OH238396   0.199   2.082  18.409  0.0343 -0.3334  0.0873
 4734TIP3    H138397   0.153   2.130  18.341 -0.0892 -0.5058  0.0464
 4734TIP3    H238398   0.258   2.023  18.361 -0.0535 -0.4558  0.1299
 4735TIP3   OH238399   0.200   3.319  17.662 -0.5832 -0.2730  0.5010
 4735TIP3    H138400   0.211   3.274  17.746  0.3958 -3.2577 -1.0870
 4735TIP3    H238401   0.105   3.320  17.648 -0.7178 -0.2774  1.3469
 4736TIP3   OH238402   5.567   0.800  19.393 -0.1810  0.2776 -0.2365
 4736TIP3    H138403   5.509   0.790  19.317  0.8776 -2.3626 -0.7889
 4736TIP3    H238404   5.617   0.879  19.374 -0.1177 -0.1755 -2.1918
 4737TIP3   OH238405   1.816   6.456  19.932 -0.1012 -0.0171 -0.1691
 4737TIP3    H138406   1.911   6.443  19.937  0.5428  3.8583  0.4205
 4737TIP3    H238407   1.790   6.477  20.022 -1.7832 -1.8175 -0.1386
 4738TIP3   OH238408   6.357   5.459  18.952  0.7323  0.1205  0.0300
 4738TIP3    H138409   6.317   5.488  18.870  0.6006 -0.4397 -0.1078
 4738TIP3    H238410   6.438   5.510  18.958 -0.2264  1.6409  0.5787
 4739TIP3   OH238411   0.836   6.053  18.482 -0.2737 -0.1593 -0.5467
 4739TIP3    H138412   0.766   6.025  18.542 -0.6412  0.8908 -0.4659
 4739TIP3    H238413   0.821   6.001  18.403  0.9492 -2.4667  0.6420
 4740TIP3   OH238414   6.356   3.379  19.935 -0.3484  0.2361 -0.2892
 4740TIP3    H138415   6.395   3.373  20.022 -0.7159  0.3344 -0.1144
 4740TIP3    H238416   6.282   3.439  19.945  0.3996  1.3042 -0.9705
 4741TIP3   OH238417   5.998   0.914  17.232 -0.0897  0.4117 -0.0658
 4741TIP3    H138418   5.986   0.950  17.144  0.0493 -1.1855 -0.7709
 4741TIP3    H238419   6.055   0.978  17.276  2.3731 -0.1995 -2.1478
 4742TIP3   OH238420   0.559   6.406  20.258 -0.2155 -0.5681  0.1009
 4742TIP3    H138421   0.629   6.423  20.320  1.8039  1.3893 -2.4639
 4742TIP3    H238422   0.585   6.326  20.213 -0.2706 -0.5171 -0.0232
 4743TIP3   OH238423   0.175   5.701  20.835 -1.0064 -0.3795 -0.3495
 4743TIP3    H138424   0.085   5.696  20.867 -0.8596  0.5981  0.2795
 4743TIP3    H238425   0.194   5.795  20.834  0.1217 -0.5945 -0.1104
 4744TIP3   OH238426   5.459   5.694  19.601 -0.7950 -0.6717 -0.3818
 4744TIP3    H138427   5.379   5.673  19.554 -2.3468  1.6566  1.0546
 4744TIP3    H238428   5.526   5.700  19.533 -2.0486 -1.5232 -1.7564
 4745TIP3   OH238429   5.817   1.730  20.135  0.9204 -0.0741 -0.2319
 4745TIP3    H138430   5.872   1.750  20.059  0.3764 -0.4142 -0.7190
 4745TIP3    H238431   5.803   1.636  20.132 -0.8323  0.1723 -0.9168
 4746TIP3   OH238432   5.520   2.860  18.217  0.0696  0.5041  0.0701
 4746TIP3    H138433   5.563   2.789  18.266 -3.2207 -1.6494  0.1863
 4746TIP3    H238434   5.511   2.825  18.128  2.3896  2.7533 -1.1623
 4747TIP3   OH238435   0.129   0.598  17.644 -0.2422 -0.1439 -0.6184
 4747TIP3    H138436   0.113   0.663  17.576 -0.8997  1.1790  0.7414
 4747TIP3    H238437   0.070   0.525  17.623 -0.5166  0.2858 -1.3786
 4748TIP3   OH238438   4.656   0.681  18.306 -0.2136 -0.1723 -0.0963
 4748TIP3    H138439   4.585   0.682  18.242 -1.2071  1.1023  0.9880
 4748TIP3    H238440   4.722   0.739  18.269 -0.7879  0.5720  0.0368
 4749TIP3   OH238441   4.822   1.051  18.596  0.1530  0.1241  0.4140
 4749TIP3    H138442   4.737   1.030  18.635 -0.6582 -1.9229 -2.1442
 4749TIP3    H238443   4.886   1.009  18.652 -0.8863 -1.9113  0.1662
 4750TIP3   OH238444   3.193   0.056  17.320  0.7908 -0.0352 -0.0252
 4750TIP3    H138445   3.247   0.050  17.398  0.2534 -0.9219  0.2895
 4750TIP3    H238446   3.175  -0.035  17.296 -1.4257  0.2313  0.4868
 4751TIP3   OH238447   2.530   0.123  17.372  0.0169  0.2089  0.2263
 4751TIP3    H138448   2.516   0.029  17.366 -0.5501  0.1517  1.8332
 4751TIP3    H238449   2.452   0.162  17.333 -0.9964 -0.0488  1.8802
 4752TIP3   OH238450   6.543   5.588  20.167  0.2080 -0.4997 -0.3084
 4752TIP3    H138451   6.576   5.667  20.209 -1.9821  0.5203 -0.3455
 4752TIP3    H238452   6.613   5.561  20.107  0.5400  2.1482 -1.2512
 4753TIP3   OH238453   3.644   4.667  20.209 -0.2129  0.2613  0.4977
 4753TIP3    H138454   3.568   4.675  20.266  0.2949 -1.2045  1.4347
 4753TIP3    H238455   3.608   4.666  20.120 -1.2416  0.0053  0.9052
 4754TIP3   OH238456   4.497   5.057  18.157  0.6985  0.7017 -0.3714
 4754TIP3    H138457   4.404   5.044  18.139  0.9012 -1.4053 -0.2187
 4754TIP3    H238458   4.507   5.151  18.169 -1.3628  0.9958 -0.6408
 4755TIP3   OH238459   3.785   3.329  19.593 -0.7576  0.2218 -0.3517
 4755TIP3    H138460   3.768   3.364  19.505 -0.0811  0.6176 -0.3289
 4755TIP3    H238461   3.697   3.313  19.630 -1.1234  2.4949 -0.1240
 4756TIP3   OH238462   1.577   6.383  17.421  0.7817  0.3567 -0.1922
 4756TIP3    H138463   1.486   6.382  17.392  0.4197 -0.7235  0.9007
 4756TIP3    H238464   1.590   6.471  17.455  0.0881  0.4641 -0.1926
 4757TIP3   OH238465   0.899   3.281  18.151  0.3478  0.1112 -0.1884
 4757TIP3    H138466   0.986   3.319  18.142  0.3173  0.9142  2.1302
 4757TIP3    H238467   0.914   3.192  18.182  0.3403 -0.5044 -1.8593
 4758TIP3   OH238468   5.833   1.425  20.839 -0.0835  0.1738 -0.0642
 4758TIP3    H138469   5.920   1.463  20.833  0.3570 -0.6586  0.9444
 4758TIP3    H238470   5.841   1.340  20.797  0.4541 -1.3070  2.8285
 4759TIP3   OH238471   1.071   6.620  19.143 -0.0351  0.3885 -0.0877
 4759TIP3    H138472   1.051   6.659  19.058  0.0766 -0.0830 -0.3352
 4759TIP3    H238473   1.003   6.553  19.155 -0.5425  0.9969  0.5719
 4760TIP3   OH238474   5.214   0.606  20.078  0.4507 -0.0630  0.1299
 4760TIP3    H138475   5.211   0.635  20.170  2.2796 -1.9946  0.8950
 4760TIP3    H238476   5.306   0.613  20.054  0.1509 -0.5495 -1.2246
 4761TIP3   OH238477   0.799   1.304  18.182  0.1171  0.0450  0.4327
 4761TIP3    H138478   0.712   1.326  18.150  0.1874  0.5751  0.5983
 4761TIP3    H238479   0.807   1.210  18.168 -0.1963  0.1210 -0.2687
 4762TIP3   OH238480   3.166   3.499  20.751 -0.1743  0.6990  0.3122
 4762TIP3    H138481   3.167   3.425  20.812  1.6540  0.1666 -0.2817
 4762TIP3    H238482   3.257   3.530  20.750  0.1962 -0.0935 -3.0131
 4763TIP3   OH238483   5.780   3.452  18.405 -0.3724  0.9232 -0.6061
 4763TIP3    H138484   5.822   3.415  18.327  0.7864  1.1907 -0.1248
 4763TIP3    H238485   5.687   3.431  18.394  0.0725 -1.0734 -0.9488
 4764TIP3   OH238486   3.841   6.064  20.345 -0.7471 -0.2605 -0.4070
 4764TIP3    H138487   3.935   6.062  20.329 -0.6932 -0.9288 -0.0268
 4764TIP3    H238488   3.823   6.155  20.370 -0.0348 -0.3378  0.4597
 4765TIP3   OH238489   5.337   3.999  17.917  0.0834 -0.6071  0.3814
 4765TIP3    H138490   5.343   3.989  17.822  0.7139 -0.4379  0.3931
 4765TIP3    H238491   5.376   4.086  17.934 -1.6858  0.1739  0.6280
 4766TIP3   OH238492   0.335   6.210  19.254 -0.0643 -0.0802 -0.4836
 4766TIP3    H138493   0.351   6.281  19.191 -0.5874  1.7064  1.2725
 4766TIP3    H238494   0.241   6.198  19.253 -0.2098  0.7405  0.6720
 4767TIP3   OH238495   3.158   5.600  19.674  0.3850  0.0872 -0.1754
 4767TIP3    H138496   3.117   5.514  19.663  1.1501 -0.4281  0.8037
 4767TIP3    H238497   3.201   5.616  19.590 -1.0140  0.2198 -0.8902
 4768TIP3   OH238498   0.211   0.429  19.899 -0.0402 -0.3131 -0.7444
 4768TIP3    H138499   0.150   0.357  19.914 -0.0314 -0.5073 -1.6022
 4768TIP3    H238500   0.187   0.465  19.814  0.3622  0.2970 -0.6111
 4769TIP3   OH238501   5.864   4.997  17.023  0.0626 -0.1844  0.7512
 4769TIP3    H138502   5.818   4.932  16.972 -0.8341  0.3368  0.8804
 4769TIP3    H238503   5.956   4.985  17.000 -0.1690 -1.0034  0.2297
 4770TIP3   OH238504   5.944   0.529  19.654 -0.6303 -0.2183 -0.3775
 4770TIP3    H138505   5.849   0.533  19.642 -0.6431 -2.0464 -1.3231
 4770TIP3    H238506   5.979   0.541  19.566 -0.1253 -1.7657 -0.4270
 4771TIP3   OH238507   2.208   4.740  18.352 -0.4199 -0.3812  0.5850
 4771TIP3    H138508   2.296   4.769  18.378 -1.1599  0.9531  1.7061
 4771TIP3    H238509   2.187   4.795  18.276 -0.8147  0.2694  1.1559
 4772TIP3   OH238510   0.451   4.101  18.723 -0.1966  0.2402  0.1637
 4772TIP3    H138511   0.393   4.174  18.746 -0.2986  0.3202 -0.3342
 4772TIP3    H238512   0.398   4.023  18.739  0.2931  0.2092  1.7972
 4773TIP3   OH238513   0.582   2.061  20.027 -0.5208  0.3465  0.2300
 4773TIP3    H138514   0.615   2.044  19.939  1.9301 -0.1719  1.1579
 4773TIP3    H238515   0.651   2.114  20.068 -0.1658 -1.8357  2.7144
 4774TIP3   OH238516   1.400   5.529  20.158 -0.0486 -0.3545  0.1784
 4774TIP3    H138517   1.335   5.461  20.141  3.4061 -3.6456 -1.5179
 4774TIP3    H238518   1.423   5.518  20.250 -0.7265 -0.2543  0.3657
 4775TIP3   OH238519   2.431   3.890  20.259 -0.1416 -0.5332 -0.0938
 4775TIP3    H138520   2.521   3.900  20.228 -0.4408 -0.8412 -1.0961
 4775TIP3    H238521   2.385   3.848  20.186 -0.8400 -1.4350  0.8455
 4776TIP3   OH238522   0.263   4.038  18.432 -0.0417  0.0428 -0.0893
 4776TIP3    H138523   0.258   4.030  18.528  0.4840 -1.2048 -0.1405
 4776TIP3    H238524   0.237   3.952  18.400  2.3852 -0.4511 -0.9583
 4777TIP3   OH238525   4.211   0.009  19.234  0.1969 -0.2421  0.4240
 4777TIP3    H138526   4.130  -0.028  19.269  0.6018 -0.3696  1.2442
 4777TIP3    H238527   4.183   0.087  19.186 -0.6216 -1.3306 -0.9288
 4778TIP3   OH238528   4.696   1.182  20.677 -0.3644  0.4518 -0.2990
 4778TIP3    H138529   4.668   1.135  20.756 -0.4579 -0.0578 -0.6332
 4778TIP3    H238530   4.758   1.122  20.635  1.0307  1.4366  0.2781
 4779TIP3   OH238531   2.524   4.567  18.406  0.8555 -0.0986  0.4089
 4779TIP3    H138532   2.524   4.509  18.482  1.6877 -0.8624 -0.1537
 4779TIP3    H238533   2.453   4.536  18.351  1.5422 -0.8515 -0.0729
 4780TIP3   OH238534   4.474   5.591  19.774 -0.2572  0.2347 -0.5066
 4780TIP3    H138535   4.502   5.655  19.709 -2.4270  0.6515 -1.0761
 4780TIP3    H238536   4.546   5.528  19.777  1.8253  2.4721 -0.1325
 4781TIP3   OH238537   3.759   5.672  20.292 -0.1006 -0.0737  0.8214
 4781TIP3    H138538   3.678   5.625  20.272 -0.5453  0.6344  0.9154
 4781TIP3    H238539   3.734   5.732  20.362 -0.3921  2.6280 -1.4517
 4782TIP3   OH238540   6.668   3.163  20.111  0.1476 -0.1467 -0.5638
 4782TIP3    H138541   6.711   3.081  20.134  3.0558  1.6525  1.0283
 4782TIP3    H238542   6.631   3.195  20.193  0.6222  0.9526 -0.7604
 4783TIP3   OH238543   1.398   2.082  19.768  0.0284  0.8454 -0.1998
 4783TIP3    H138544   1.476   2.135  19.780 -0.5381  1.6674 -0.0567
 4783TIP3    H238545   1.408   2.010  19.831  0.5153  1.1185  0.0439
 4784TIP3   OH238546   3.264   1.836  20.384  0.5714  0.9511 -0.3484
 4784TIP3    H138547   3.328   1.799  20.446  0.3378  1.2560  0.0791
 4784TIP3    H238548   3.240   1.763  20.328  1.1148  0.7732 -0.3534
 4785TIP3   OH238549   6.563   4.036  18.144  0.1202 -0.0356 -0.2172
 4785TIP3    H138550   6.504   4.042  18.219  1.3131 -0.2901  0.7758
 4785TIP3    H238551   6.650   4.026  18.182  0.8792  0.7648 -1.6280
 4786TIP3   OH238552   0.401   0.735  17.353  0.0985 -0.4900 -0.0366
 4786TIP3    H138553   0.459   0.791  17.302  0.6887 -1.0341  0.0329
 4786TIP3    H238554   0.337   0.796  17.392  0.3350  0.0533 -0.4873
 4787TIP3   OH238555   0.771   5.895  18.974 -0.2249 -0.2641  0.0268
 4787TIP3    H138556   0.782   5.976  18.924  0.5748  0.5314  1.4241
 4787TIP3    H238557   0.859   5.875  19.006 -0.0262 -2.7570 -1.8088
 4788TIP3   OH238558   3.851   3.798  19.951  0.4288  0.6063 -0.0259
 4788TIP3    H138559   3.771   3.802  20.003 -0.5742 -1.0624 -1.3444
 4788TIP3    H238560   3.891   3.714  19.974  0.6113  0.4054 -1.0328
 4789TIP3   OH238561   3.075   0.208  19.902 -0.6669 -0.3611 -0.2445
 4789TIP3    H138562   3.032   0.157  19.970 -0.8915  0.8341  0.5471
 4789TIP3    H238563   3.136   0.265  19.949  1.8344 -1.9980 -1.3394
 4790TIP3   OH238564   5.071   2.504  18.718 -0.7726  1.0596  0.4803
 4790TIP3    H138565   5.085   2.550  18.801  0.5395  1.4320  0.0955
 4790TIP3    H238566   5.150   2.524  18.667 -2.0231  1.7613 -1.2851
 4791TIP3   OH238567   1.795   3.289  19.148 -0.7174  0.1167  0.1807
 4791TIP3    H138568   1.723   3.253  19.201 -0.5302  0.7225  0.8588
 4791TIP3    H238569   1.871   3.236  19.173 -0.7130  0.1400  0.2163
 4792TIP3   OH238570   2.409   1.427  19.594  0.6927 -0.6681 -0.0762
 4792TIP3    H138571   2.473   1.391  19.532 -0.0626 -0.5200 -0.9619
 4792TIP3    H238572   2.447   1.510  19.621  1.2747 -0.9699  0.0753
 4793TIP3   OH238573   4.127   1.894  18.841  0.2952 -0.5271  0.5265
 4793TIP3    H138574   4.144   1.938  18.924  0.3805  0.7068 -0.1270
 4793TIP3    H238575   4.212   1.887  18.799  0.0406  0.2547 -0.1331
 4794TIP3   OH238576   4.082   4.605  18.765 -0.1828  0.5234  0.4218
 4794TIP3    H138577   4.122   4.685  18.729  1.1123  0.4108  1.5207
 4794TIP3    H238578   4.032   4.635  18.840 -0.2779  0.3765  0.4179
 4795TIP3   OH238579   1.991   1.184  18.845  0.2372  0.1575  0.1048
 4795TIP3    H138580   1.982   1.252  18.911  2.1503  1.5502 -0.9407
 4795TIP3    H238581   2.039   1.227  18.774 -2.1755 -1.0708 -2.4702
 4796TIP3   OH238582   0.196   2.067  19.150  0.5612 -0.1264  0.1421
 4796TIP3    H138583   0.263   2.123  19.112 -0.1217  0.6708  0.0904
 4796TIP3    H238584   0.176   2.004  19.081  0.3202  0.4542 -0.3279
 4797TIP3   OH238585   5.431   5.272  20.726  0.1822 -0.1425  0.5494
 4797TIP3    H138586   5.467   5.317  20.650 -0.4546  2.5495  1.7520
 4797TIP3    H238587   5.503   5.271  20.789  1.2815 -3.8630 -0.4795
 4798TIP3   OH238588   4.435   4.229  18.359  0.0817 -0.3747  0.1256
 4798TIP3    H138589   4.344   4.255  18.373  0.1042 -0.2011 -0.0445
 4798TIP3    H238590   4.481   4.311  18.345  0.1628 -0.5042 -0.3665
 4799TIP3   OH238591   1.924   4.244  19.141 -0.0263 -0.0054  0.8001
 4799TIP3    H138592   1.832   4.263  19.159  0.3112  0.7663  1.8134
 4799TIP3    H238593   1.931   4.149  19.147 -1.2755 -0.3559 -1.9665
 4800TIP3   OH238594   5.418   2.642  19.781 -0.3032  0.0810 -0.0415
 4800TIP3    H138595   5.351   2.575  19.794 -0.4077 -0.0956 -1.3576
 4800TIP3    H238596   5.381   2.700  19.715  0.4873  0.4814 -0.1413
 4801TIP3   OH238597   3.763   3.696  18.124  0.1952 -0.1613 -0.1142
 4801TIP3    H138598   3.796   3.651  18.047  1.8538 -1.2935  1.1899
 4801TIP3    H238599   3.836   3.749  18.154 -0.3324  0.0603  0.8226
 4802TIP3   OH238600   5.457   5.816  17.977  0.1585  0.0511  0.1377
 4802TIP3    H138601   5.449   5.869  18.057 -0.5181 -0.1515  0.2131
 4802TIP3    H238602   5.368   5.816  17.940  0.4894  0.2536 -0.6878
 4803TIP3   OH238603   3.627   6.512  20.571 -0.4578 -0.4521  0.6387
 4803TIP3    H138604   3.583   6.590  20.603  1.5512  0.8931  0.3502
 4803TIP3    H238605   3.604   6.508  20.478  0.6498  0.7616  0.2759
 4804TIP3   OH238606   3.028   4.381  19.489  0.1081 -0.1743 -0.2545
 4804TIP3    H138607   3.116   4.347  19.505 -0.4200 -0.9406  1.2025
 4804TIP3    H238608   3.038   4.436  19.411  1.9076 -0.0697 -0.0063
 4805TIP3   OH238609   5.824   4.792  19.542 -0.5109  0.0451 -0.5381
 4805TIP3    H138610   5.817   4.881  19.578 -0.2035  0.8121 -2.2602
 4805TIP3    H238611   5.886   4.801  19.469 -0.0823 -1.6977 -0.4223
 4806TIP3   OH238612   5.659   5.773  19.421 -0.1366  0.0237 -0.0522
 4806TIP3    H138613   5.609   5.855  19.423  0.7062  0.5389  0.6780
 4806TIP3    H238614   5.672   5.756  19.328 -1.0869  0.2279 -0.2376
 4807TIP3   OH238615   5.328   3.744  18.038  0.5504 -0.0509 -0.1965
 4807TIP3    H138616   5.297   3.823  17.993  4.2551  0.0158 -3.2063
 4807TIP3    H238617   5.388   3.777  18.104  1.0208 -0.2610 -0.5092
 4808TIP3   OH238618   2.502   0.560  18.933  0.5697  0.3405  0.6920
 4808TIP3    H138619   2.447   0.561  19.010 -0.9181  1.2421 -0.3279
 4808TIP3    H238620   2.549   0.477  18.937 -1.2825 -0.7222  1.3246
 4809TIP3   OH238621   1.239   6.499  19.611  0.4554  0.0282  0.2048
 4809TIP3    H138622   1.160   6.492  19.663 -0.9658  2.6152 -1.3855
 4809TIP3    H238623   1.305   6.533  19.672 -0.5110  0.7585  0.8744
 4810TIP3   OH238624   1.797   3.449  19.903 -0.0331  0.5017 -0.2692
 4810TIP3    H138625   1.877   3.498  19.920  0.7113 -1.0026  0.7997
 4810TIP3    H238626   1.824   3.357  19.906 -1.7239 -0.0337 -0.3142
 4811TIP3   OH238627   0.638   0.903  19.836  0.4240  0.4292 -0.2153
 4811TIP3    H138628   0.618   0.994  19.855 -0.2196  0.4905 -1.1203
 4811TIP3    H238629   0.552   0.861  19.828  0.7057 -0.0410 -0.7914
 4812TIP3   OH238630   1.734   3.139  19.785 -0.2834 -0.0610  0.1358
 4812TIP3    H138631   1.801   3.166  19.723 -1.3531 -0.6243 -1.3385
 4812TIP3    H238632   1.727   3.044  19.774 -0.7167 -0.1219  0.8759
 4813TIP3   OH238633   4.096   4.200  19.891 -0.0909  0.2471  0.1827
 4813TIP3    H138634   4.070   4.123  19.942 -0.0624 -0.0208 -0.2099
 4813TIP3    H238635   4.065   4.274  19.943 -1.9736 -0.0618 -0.4387
 4814TIP3   OH238636   2.186   5.400  18.245  0.2623 -0.2486 -0.4687
 4814TIP3    H138637   2.185   5.486  18.203  3.4490  0.3725  0.4456
 4814TIP3    H238638   2.247   5.410  18.318  0.4732 -3.2126 -0.1362
 4815TIP3   OH238639   5.418   0.354  18.175  0.0850  0.1401  0.0632
 4815TIP3    H138640   5.454   0.433  18.216  0.5294 -0.3768  0.7070
 4815TIP3    H238641   5.326   0.354  18.199  0.1250  0.3742  0.2198
 4816TIP3   OH238642   3.898   3.247  17.835 -0.0099 -0.0031  0.3554
 4816TIP3    H138643   3.989   3.221  17.823 -0.1784  0.2398 -1.8615
 4816TIP3    H238644   3.848   3.185  17.782 -1.0329  0.6013  0.5799
 4817TIP3   OH238645   3.710   5.674  20.684 -0.4187 -0.1856  0.2817
 4817TIP3    H138646   3.717   5.744  20.619  1.9229 -1.3335 -0.8575
 4817TIP3    H238647   3.620   5.642  20.675 -1.1248  1.7542 -0.0945
 4818TIP3   OH238648   0.523   6.057  19.838 -0.1397  0.3662 -0.4316
 4818TIP3    H138649   0.516   6.024  19.928  0.5149  2.1576  0.3256
 4818TIP3    H238650   0.542   6.150  19.848  2.0916  0.2331 -2.4004
 4819TIP3   OH238651   5.324   0.753  19.593 -0.5171 -0.3918 -0.1818
 4819TIP3    H138652   5.335   0.753  19.688 -3.0965 -0.3482  0.2061
 4819TIP3    H238653   5.409   0.728  19.558  0.4168 -0.6824  2.1467
 4820TIP3   OH238654   6.466   1.290  21.020  0.1887 -0.0495  0.1834
 4820TIP3    H138655   6.519   1.298  21.100  1.4325 -1.4302 -0.4521
 4820TIP3    H238656   6.526   1.315  20.950 -0.8092  0.8668 -0.3699
 4821TIP3   OH238657   6.061   4.788  20.649 -0.0834 -0.5671  0.4182
 4821TIP3    H138658   6.031   4.787  20.558 -0.3279  1.9133  0.4000
 4821TIP3    H238659   6.154   4.766  20.644 -0.1190 -0.5627 -0.4393
 4822TIP3   OH238660   1.879   5.461  19.808 -0.1636 -0.3917 -0.1327
 4822TIP3    H138661   1.842   5.531  19.862  0.5848  0.1025 -0.2508
 4822TIP3    H238662   1.813   5.391  19.811 -1.6055  0.8631 -1.2341
 4823TIP3   OH238663   4.507   3.643  19.240  0.2724  0.0608  0.1990
 4823TIP3    H138664   4.578   3.646  19.303  1.2787 -0.0957 -0.9014
 4823TIP3    H238665   4.429   3.621  19.292  1.5166 -2.8238  1.0251
 4824TIP3   OH238666   6.038   5.675  18.256  1.4278  0.0274  0.3632
 4824TIP3    H138667   6.098   5.601  18.249  0.3335 -0.9107  0.5251
 4824TIP3    H238668   6.037   5.714  18.169  0.3209 -1.5477 -0.3683
 4825TIP3   OH238669   6.410   5.601  18.523 -0.9316 -0.1280  0.7472
 4825TIP3    H138670   6.388   5.642  18.439 -0.6084  0.9962  1.1930
 4825TIP3    H238671   6.432   5.511  18.500 -2.9041 -0.4495 -0.1003
 4826TIP3   OH238672   4.647   5.508  19.997 -0.1472  0.2618  0.1893
 4826TIP3    H138673   4.626   5.418  19.974 -1.1731  0.3535  0.7056
 4826TIP3    H238674   4.740   5.517  19.977 -0.5016 -0.2452 -1.9683
 4827TIP3   OH238675   1.184   1.734  20.168  0.2952  0.0653 -0.5358
 4827TIP3    H138676   1.246   1.661  20.163 -0.9118 -1.0467  0.0549
 4827TIP3    H238677   1.220   1.800  20.109  1.2878 -1.1281 -1.3302
 4828TIP3   OH238678   0.455   1.083  18.496 -0.3492  0.1912  0.0837
 4828TIP3    H138679   0.550   1.093  18.497 -0.3202 -0.0580 -0.0855
 4828TIP3    H238680   0.435   1.038  18.578 -0.2595 -0.2846 -0.1523
 4829TIP3   OH238681   3.890   3.277  18.109 -0.4787 -0.0074 -0.4235
 4829TIP3    H138682   3.880   3.250  18.017  0.3072 -2.3473  0.1125
 4829TIP3    H238683   3.963   3.223  18.141  0.2140  1.8171  1.2056
 4830TIP3   OH238684   2.473   1.277  18.196  0.5974 -0.1555  0.1511
 4830TIP3    H138685   2.416   1.273  18.120  1.2799 -0.5299 -0.3599
 4830TIP3    H238686   2.465   1.366  18.229 -0.6312 -0.3339  0.3765
 4831TIP3   OH238687   3.520   1.117  17.308 -0.5378  0.0976 -0.0337
 4831TIP3    H138688   3.564   1.137  17.391 -0.3776  0.9683 -0.3222
 4831TIP3    H238689   3.445   1.177  17.306 -0.0358  0.7074 -0.9288
 4832TIP3   OH238690   4.894   6.078  18.212 -0.1181  0.1589  0.4407
 4832TIP3    H138691   4.801   6.091  18.197  0.4372  3.1509 -1.1561
 4832TIP3    H238692   4.899   6.024  18.291 -3.1525 -1.5124 -0.3640
 4833TIP3   OH238693   3.614   3.514  18.578  0.3603 -0.3829  0.7775
 4833TIP3    H138694   3.630   3.488  18.488  1.1832 -0.0578  0.8253
 4833TIP3    H238695   3.694   3.559  18.605 -0.3545  0.6246  1.2662
 4834TIP3   OH238696   2.655   0.594  18.642  0.0412  0.1920 -0.1626
 4834TIP3    H138697   2.596   0.559  18.574  0.4020  1.9453 -1.4498
 4834TIP3    H238698   2.596   0.624  18.711 -0.5343  0.7559 -0.8723
 4835TIP3   OH238699   4.928   5.846  19.220  0.5929  0.5108 -0.2933
 4835TIP3    H138700   4.884   5.834  19.304  1.6047  0.3909  0.2426
 4835TIP3    H238701   4.974   5.763  19.205 -1.4922 -0.4088 -2.1775
 4836TIP3   OH238702   6.585   2.735  19.791  0.0863  0.3073 -0.2474
 4836TIP3    H138703   6.555   2.666  19.850  1.0156 -0.5144 -0.7019
 4836TIP3    H238704   6.505   2.777  19.760 -0.4687 -0.2044  0.4521
 4837TIP3   OH238705   5.129   0.078  20.090  0.2813 -0.5259  0.2885
 4837TIP3    H138706   5.074   0.153  20.070  0.9109 -0.4212 -1.1959
 4837TIP3    H238707   5.070   0.013  20.128 -0.7380 -0.1916 -0.7017
 4838TIP3   OH238708   5.446   0.001  17.683 -0.2877  0.0006 -0.1668
 4838TIP3    H138709   5.482  -0.019  17.770  0.4938 -1.1848 -0.7418
 4838TIP3    H238710   5.498   0.076  17.653 -0.9136  0.7671  0.5701
 4839TIP3   OH238711   2.212   4.091  18.986 -0.0554 -0.3131 -0.1145
 4839TIP3    H138712   2.126   4.107  18.947 -0.5035  0.0273  0.9803
 4839TIP3    H238713   2.193   4.043  19.067  0.7317  0.2724  0.4280
 4840TIP3   OH238714   4.724   0.289  19.011 -0.0851  0.5648 -0.1745
 4840TIP3    H138715   4.656   0.227  18.984  0.7606  0.1709 -1.4698
 4840TIP3    H238716   4.697   0.316  19.099 -1.2412 -0.5309 -0.1546
 4841TIP3   OH238717   2.250   4.039  19.440  0.3355  0.6757 -0.4753
 4841TIP3    H138718   2.230   4.043  19.533  1.1743  0.6190 -0.2814
 4841TIP3    H238719   2.313   3.967  19.433 -0.5825 -0.0783 -1.2485
 4842TIP3   OH238720   3.184   1.602  19.478 -0.8015 -0.4050 -0.0812
 4842TIP3    H138721   3.118   1.572  19.540 -0.3197 -2.4443 -0.5049
 4842TIP3    H238722   3.261   1.549  19.497  0.9983  2.2573  0.7709
 4843TIP3   OH238723   1.542   1.493  19.116 -0.2095 -0.5289  0.4102
 4843TIP3    H138724   1.517   1.506  19.208 -0.8923 -0.5572  0.2394
 4843TIP3    H238725   1.623   1.541  19.106 -1.2308  1.3028  0.5079
 4844TIP3   OH238726   1.366   5.261  19.600  0.2180 -0.4534  0.2539
 4844TIP3    H138727   1.367   5.266  19.696  2.7998  1.1805  0.2286
 4844TIP3    H238728   1.456   5.280  19.574 -0.6515  0.2655 -2.5729
 4845TIP3   OH238729   5.695   5.067  18.283  0.4548  0.9216 -0.1476
 4845TIP3    H138730   5.648   5.032  18.208  0.4032 -1.9484  1.0947
 4845TIP3    H238731   5.638   5.136  18.318  0.6403  2.5906 -2.8090
 4846TIP3   OH238732   1.628   6.178  18.150  0.2513 -0.2548 -0.1566
 4846TIP3    H138733   1.567   6.143  18.085 -1.5314 -1.0441  1.8330
 4846TIP3    H238734   1.595   6.265  18.169  0.3185 -0.3192  0.2504
 4847TIP3   OH238735   0.522   1.317  18.761  0.3150  0.3592  0.0784
 4847TIP3    H138736   0.516   1.408  18.732 -1.0452  0.5847  1.0029
 4847TIP3    H238737   0.434   1.295  18.791  0.4359 -1.4927 -0.7542
 4848TIP3   OH238738   2.632   5.283  19.209 -0.7385 -0.0219  0.2691
 4848TIP3    H138739   2.566   5.216  19.192 -0.9961  0.5264 -1.0705
 4848TIP3    H238740   2.699   5.268  19.142  0.4602 -0.4825  1.5246
 4849TIP3   OH238741   2.347   0.168  18.048 -0.0486 -0.0247  0.4090
 4849TIP3    H138742   2.275   0.205  18.099 -0.1226  0.6624 -0.1844
 4849TIP3    H238743   2.310   0.153  17.961  1.1092  2.5669 -0.6295
 4850TIP3   OH238744   0.709   0.845  18.269  0.0404 -0.4296  0.6203
 4850TIP3    H138745   0.726   0.792  18.191 -1.2079 -0.1380  0.1263
 4850TIP3    H238746   0.649   0.913  18.239  0.3114  0.2766  1.6241
 4851TIP3   OH238747   2.584   3.397  18.851  0.1545  0.1032 -0.4890
 4851TIP3    H138748   2.658   3.336  18.850 -0.1537 -0.2703 -1.8426
 4851TIP3    H238749   2.507   3.342  18.865 -0.0395  0.2889 -0.8179
 4852TIP3   OH238750   4.772   4.097  18.096  0.0311  0.0547  0.1709
 4852TIP3    H138751   4.858   4.082  18.057 -0.3700  0.5241 -0.9156
 4852TIP3    H238752   4.717   4.123  18.023 -0.8921  0.3521  0.9615
 4853TIP3   OH238753   5.721   1.815  20.467 -0.4107  0.7827 -0.5804
 4853TIP3    H138754   5.629   1.793  20.478 -0.2442 -0.2100 -1.0124
 4853TIP3    H238755   5.720   1.901  20.424 -1.1120  1.1963  0.2354
 4854TIP3   OH238756   2.613   2.541  19.160 -0.4157 -0.1136  0.0143
 4854TIP3    H138757   2.693   2.590  19.140  0.2008 -1.0739  0.0680
 4854TIP3    H238758   2.547   2.577  19.100 -0.3333  1.6732  0.9425
 4855TIP3   OH238759   5.954   1.566  19.014 -0.0076 -0.2335  0.7328
 4855TIP3    H138760   6.007   1.600  18.943 -0.6218  1.4371  1.0023
 4855TIP3    H238761   6.008   1.500  19.056 -0.1288 -2.2658 -2.0389
 4856TIP3   OH238762   0.890   3.460  16.930 -0.1515 -0.1877 -0.3285
 4856TIP3    H138763   0.828   3.405  16.882 -0.8892 -1.0865  1.5453
 4856TIP3    H238764   0.974   3.416  16.919 -0.4699 -0.8748 -0.1228
 4857TIP3   OH238765   1.978   3.330  18.746 -0.8220  0.0364  0.1713
 4857TIP3    H138766   1.906   3.271  18.723 -0.2850 -0.0676 -1.3462
 4857TIP3    H238767   1.943   3.418  18.728 -0.5670 -0.0187 -0.6492
 4858TIP3   OH238768   5.337   3.135  20.360  0.2853  0.1167 -0.1974
 4858TIP3    H138769   5.278   3.171  20.294 -0.7672  0.7136  1.0373
 4858TIP3    H238770   5.418   3.185  20.348 -0.2665  1.0155 -0.3153
 4859TIP3   OH238771   5.971   5.736  17.992  0.4370  0.7751  0.4342
 4859TIP3    H138772   6.012   5.702  17.912 -0.8873  0.3065 -0.0753
 4859TIP3    H238773   5.889   5.775  17.962 -0.4404 -0.0642  1.6506
 4860TIP3   OH238774   5.303   1.797  17.690 -0.5652  0.1577 -0.2170
 4860TIP3    H138775   5.234   1.733  17.671 -1.8950  1.2014  0.8174
 4860TIP3    H238776   5.321   1.839  17.606 -1.7002  0.3202 -0.4000
 4861TIP3   OH238777   4.750   6.013  19.477 -0.2933 -0.1410 -0.3901
 4861TIP3    H138778   4.662   6.018  19.513 -0.4076 -1.2026 -0.4895
 4861TIP3    H238779   4.747   6.068  19.399 -1.0675 -0.6914 -0.7660
 4862TIP3   OH238780   3.343   0.995  17.991 -0.0300  0.1754 -1.1113
 4862TIP3    H138781   3.372   0.908  18.021  0.1126  0.2663 -0.9843
 4862TIP3    H238782   3.330   1.045  18.071 -1.4175 -0.1371 -1.1220
 4863TIP3   OH238783   5.755   4.171  20.676  0.1365  0.2497  0.2505
 4863TIP3    H138784   5.773   4.258  20.713  0.7609  0.6141 -0.8552
 4863TIP3    H238785   5.795   4.173  20.589 -0.7223 -0.8008 -0.1990
 4864TIP3   OH238786   0.575   5.214  19.450  0.0232 -0.4582 -0.6975
 4864TIP3    H138787   0.670   5.222  19.439 -0.0328 -0.6622 -1.3542
 4864TIP3    H238788   0.563   5.203  19.545  0.6171  0.0221 -0.5548
 4865TIP3   OH238789   5.119   3.132  17.507 -0.4201 -0.1734  0.1278
 4865TIP3    H138790   5.145   3.215  17.468  1.6025  0.1822  1.9737
 4865TIP3    H238791   5.166   3.066  17.456 -1.7059 -0.1852 -1.0822
 4866TIP3   OH238792   3.150   3.200  20.379  0.8769 -0.2819 -0.3512
 4866TIP3    H138793   3.223   3.239  20.428  2.0680 -0.6550 -1.7639
 4866TIP3    H238794   3.140   3.112  20.418  1.7907 -0.5648 -0.7346
 4867TIP3   OH238795   4.962   2.024  18.766  0.0982  0.0002  0.2451
 4867TIP3    H138796   5.018   1.946  18.765  0.0341 -0.1821  3.0021
 4867TIP3    H238797   5.019   2.095  18.739  0.8056 -0.6582 -0.0245
 4868TIP3   OH238798   4.381   4.431  18.030  0.2727  0.2849 -0.3500
 4868TIP3    H138799   4.448   4.365  18.013  0.9143  0.5839  0.9156
 4868TIP3    H238800   4.302   4.394  17.991  0.8139 -0.8407 -0.4401
 4869TIP3   OH238801   3.015   1.979  20.482 -0.3548  0.3481 -0.5936
 4869TIP3    H138802   3.108   1.960  20.472 -0.0789  0.4964  1.3994
 4869TIP3    H238803   2.980   1.904  20.529 -1.3162  0.1866 -1.5314
 4870TIP3   OH238804   4.741   1.814  20.339  0.0329  0.3152 -0.4988
 4870TIP3    H138805   4.741   1.737  20.396  1.5760 -0.9614 -2.1165
 4870TIP3    H238806   4.649   1.827  20.317 -0.5473  0.5605  1.8296
 4871TIP3   OH238807   0.259   3.357  19.303 -0.2490  0.2772  0.1347
 4871TIP3    H138808   0.291   3.434  19.350  0.1154 -0.0527  0.4373
 4871TIP3    H238809   0.169   3.379  19.279 -0.2256  0.7030  0.4277
 4872TIP3   OH238810   0.265   2.777  18.174  0.3830 -0.4361 -0.1806
 4872TIP3    H138811   0.197   2.773  18.107 -0.7302 -0.5496  0.9248
 4872TIP3    H238812   0.233   2.842  18.237  1.3452 -0.4305  0.3261
 4873TIP3   OH238813   4.032   4.196  18.695  0.0589  0.0806  0.7007
 4873TIP3    H138814   3.992   4.272  18.655 -0.2675 -0.7061 -0.5268
 4873TIP3    H238815   4.117   4.227  18.727  0.2549  0.8024 -0.4541
 4874TIP3   OH238816   1.799   3.256  17.880  0.2757  0.1351  0.8142
 4874TIP3    H138817   1.732   3.232  17.816 -0.1527  3.0754  0.0386
 4874TIP3    H238818   1.775   3.208  17.959 -1.7843 -0.1588  0.0644
 4875TIP3   OH238819   4.288   2.161  20.532 -0.6960  0.2985  0.2055
 4875TIP3    H138820   4.230   2.237  20.542  0.1188  1.0036 -0.3459
 4875TIP3    H238821   4.300   2.152  20.438 -0.2276 -0.1017  0.3015
 4876TIP3   OH238822   1.943   1.392  19.584  0.3587 -0.3875  0.4287
 4876TIP3    H138823   1.950   1.331  19.657  0.8089 -0.9753 -0.0902
 4876TIP3    H238824   1.958   1.338  19.506  3.7593  0.8399  0.0586
 4877TIP3   OH238825   2.170   5.603  19.023  0.2940  0.0776  0.1819
 4877TIP3    H138826   2.251   5.572  19.063 -0.0572 -0.1154  0.7595
 4877TIP3    H238827   2.117   5.525  19.011 -0.0119  0.2675  0.2842
 4878TIP3   OH238828   0.642   0.263  17.976 -0.4453 -0.0761  0.5106
 4878TIP3    H138829   0.681   0.325  18.037 -0.6568 -0.9438  1.5655
 4878TIP3    H238830   0.552   0.253  18.007 -0.9194  0.3461 -0.6579
 4879TIP3   OH238831   0.122   5.193  19.466 -0.2912  0.1637 -0.5030
 4879TIP3    H138832   0.114   5.269  19.409  0.0047 -0.2262 -1.0796
 4879TIP3    H238833   0.174   5.130  19.414 -1.1533 -0.7071 -0.3311
 4880TIP3   OH238834   4.871   2.868  19.879 -0.1715 -0.3141 -0.3567
 4880TIP3    H138835   4.904   2.894  19.965  4.3268 -1.7145 -1.4071
 4880TIP3    H238836   4.831   2.782  19.895 -1.9200  0.6282  0.6788
 4881TIP3   OH238837   2.710   2.173  18.052  0.4293  0.3389  0.4307
 4881TIP3    H138838   2.692   2.207  18.140 -1.4629 -0.0598  0.2354
 4881TIP3    H238839   2.627   2.136  18.023  1.4160 -0.9491 -0.9244
 4882TIP3   OH238840   3.530   4.217  19.290 -0.4014  0.5670 -0.3568
 4882TIP3    H138841   3.545   4.147  19.353  1.7033  1.3222  0.0839
 4882TIP3    H238842   3.597   4.204  19.223  0.0664  2.1368 -0.2455
 4883TIP3   OH238843   0.969   3.312  19.660 -0.0834  0.1016  0.1336
 4883TIP3    H138844   0.909   3.386  19.666 -0.8181 -0.2820 -1.8738
 4883TIP3    H238845   0.943   3.254  19.731 -1.1292  0.6203  0.1887
 4884TIP3   OH238846   3.357   4.227  18.010 -0.2895 -0.2885 -0.8716
 4884TIP3    H138847   3.350   4.143  17.965 -1.1853 -0.9310  0.3909
 4884TIP3    H238848   3.308   4.214  18.092  1.4046  0.7589  0.3738
 4885TIP3   OH238849   3.357   1.907  19.113  1.0218 -0.1717  0.3588
 4885TIP3    H138850   3.443   1.865  19.124  0.4406 -0.8612  3.1330
 4885TIP3    H238851   3.295   1.843  19.147 -0.4297  0.9810 -0.0345
 4886TIP3   OH238852   2.492   0.486  17.188 -0.6211 -0.5408 -0.0899
 4886TIP3    H138853   2.488   0.451  17.099 -0.7671  1.2115 -0.8117
 4886TIP3    H238854   2.566   0.442  17.228  0.1913 -0.4917 -1.4814
 4887TIP3   OH238855   5.056   6.256  11.190  0.6828 -0.3926  0.5741
 4887TIP3    H138856   5.018   6.172  11.214  0.7459 -0.9553 -1.1225
 4887TIP3    H238857   4.982   6.316  11.183  0.6317 -0.3008  1.7281
 4888TIP3   OH238858   5.315   4.396  18.958 -0.4377 -0.6175 -0.1150
 4888TIP3    H138859   5.240   4.422  18.905 -0.4077  0.2139  0.2222
 4888TIP3    H238860   5.289   4.418  19.048  0.3195 -0.0253 -0.0273
 4889TIP3   OH238861   2.933   2.129  19.166  0.5057  0.3562  0.0419
 4889TIP3    H138862   2.888   2.126  19.251 -0.0708  1.2934 -0.2123
 4889TIP3    H238863   2.941   2.223  19.147 -0.2608  0.1569 -1.3977
 4890TIP3   OH238864   2.222   1.020  17.599  0.3408  0.1943  0.1554
 4890TIP3    H138865   2.149   1.062  17.644 -0.1670 -1.2091  0.6900
 4890TIP3    H238866   2.186   0.992  17.514 -1.5260 -5.1969  2.2879
 4891TIP3   OH238867   5.544   3.378  19.417 -0.1904  0.0537 -0.3442
 4891TIP3    H138868   5.516   3.469  19.419 -0.4151 -0.0224  0.4273
 4891TIP3    H238869   5.464   3.329  19.397  0.1249  0.0870 -1.7709
 4892TIP3   OH238870   5.923   1.704  19.843  0.1726 -0.1873 -0.1044
 4892TIP3    H138871   5.883   1.781  19.801  2.9283  1.7473  0.5928
 4892TIP3    H238872   5.935   1.642  19.771  2.1452  1.9173 -1.7341
 4893TIP3   OH238873   4.903   5.044  19.651 -0.0919 -0.4091  0.0488
 4893TIP3    H138874   4.843   4.972  19.665  0.5268 -0.8933  0.2840
 4893TIP3    H238875   4.945   5.025  19.567  0.1464 -0.3771  0.1596
 4894TIP3   OH238876   1.064   2.643  17.800 -0.0981 -0.5969 -0.3405
 4894TIP3    H138877   0.983   2.673  17.842 -0.4920  0.3731 -1.7273
 4894TIP3    H238878   1.081   2.558  17.841 -1.3078 -0.4112  0.6413
 4895TIP3   OH238879   6.678   3.346  20.371 -0.3621  0.2160  0.2583
 4895TIP3    H138880   6.772   3.362  20.378 -0.2710  0.5579 -1.3264
 4895TIP3    H238881   6.665   3.261  20.413  1.2049 -1.3551 -2.1888
 4896TIP3   OH238882   0.580   4.688  19.145 -0.5165  0.0811 -0.0695
 4896TIP3    H138883   0.599   4.696  19.239 -0.0498 -0.1141 -0.1445
 4896TIP3    H238884   0.535   4.770  19.123 -0.7299  0.0801  0.3475
 4897TIP3   OH238885   4.233   0.782  20.454 -0.1799  0.3081  0.0112
 4897TIP3    H138886   4.290   0.801  20.379  0.0115  3.1897  0.7658
 4897TIP3    H238887   4.276   0.709  20.499  0.9831  0.0935 -1.3650
 4898TIP3   OH238888   5.242   1.641  19.687  0.7461  0.2775  0.3004
 4898TIP3    H138889   5.292   1.677  19.613  1.5525 -1.0771  0.1601
 4898TIP3    H238890   5.167   1.599  19.646  1.4621 -0.9210  0.1881
 4899TIP3   OH238891   6.154   3.708  20.167 -0.1826 -0.3097  0.7404
 4899TIP3    H138892   6.194   3.795  20.173 -0.4224 -0.2362  1.3021
 4899TIP3    H238893   6.163   3.684  20.075 -3.3749  1.8888 -0.3204
 4900TIP3   OH238894   0.453   2.509  19.136 -0.1468 -0.3240 -0.4246
 4900TIP3    H138895   0.521   2.572  19.114 -0.1347  0.2544  1.1028
 4900TIP3    H238896   0.371   2.554  19.115 -0.1110 -0.1261 -0.1502
 4901TIP3   OH238897   3.311   0.892  19.418  0.1104  0.7122  0.1704
 4901TIP3    H138898   3.276   0.934  19.496 -1.7826 -1.2149  0.4495
 4901TIP3    H238899   3.317   0.963  19.353 -0.5666  1.8732  1.3323
 4902TIP3   OH238900   5.541   6.660  17.942  0.3802 -0.2237 -0.3865
 4902TIP3    H138901   5.537   6.577  17.990  1.2087 -0.3622 -0.5566
 4902TIP3    H238902   5.599   6.716  17.994 -1.8407  1.0590  0.9105
 4903TIP3   OH238903   5.204   0.046  19.318 -0.0939  0.3798 -0.2091
 4903TIP3    H138904   5.238  -0.040  19.341 -0.5745  0.5117  1.0578
 4903TIP3    H238905   5.197   0.045  19.222  1.4612 -0.3809 -0.3273
 4904TIP3   OH238906   2.818   2.618  20.276 -0.2704  0.5345  0.3166
 4904TIP3    H138907   2.782   2.633  20.364 -0.0937 -1.3643  0.7651
 4904TIP3    H238908   2.758   2.663  20.217  0.4514  3.1645  1.4736
 4905TIP3   OH238909   0.355   1.477  19.088  0.5210  0.5459 -0.0566
 4905TIP3    H138910   0.374   1.383  19.096  0.0592  0.4121 -0.4639
 4905TIP3    H238911   0.441   1.519  19.089  0.8192  0.0141 -1.2532
 4906TIP3   OH238912   3.740   0.083  20.799 -0.2485  0.1382  0.1052
 4906TIP3    H138913   3.819   0.032  20.784 -0.9251 -0.4216 -1.9042
 4906TIP3    H238914   3.714   0.063  20.889  0.1465 -2.1887 -0.2504
 4907TIP3   OH238915   6.537   0.813  20.025 -0.3960  0.2497 -0.2133
 4907TIP3    H138916   6.533   0.907  20.041 -0.9438  0.1719  0.1030
 4907TIP3    H238917   6.518   0.773  20.110 -0.1521 -0.1464 -0.3439
 4908TIP3   OH238918   6.031   2.884  19.926 -0.2570 -0.3217 -0.0931
 4908TIP3    H138919   6.037   2.903  20.020  1.9723 -1.2664  0.0198
 4908TIP3    H238920   6.011   2.790  19.922 -0.3285 -0.2871 -0.5457
 4909TIP3   OH238921   3.929   3.041  18.685  0.6990 -0.6256 -0.4784
 4909TIP3    H138922   3.993   2.986  18.731  0.0111 -0.8981  0.1525
 4909TIP3    H238923   3.855   2.983  18.668  0.6862 -0.3614 -1.3833
 4910TIP3   OH238924   5.409   4.054  18.685  0.0814 -0.4775 -0.2813
 4910TIP3    H138925   5.363   4.137  18.674 -2.6961 -1.4674  2.4580
 4910TIP3    H238926   5.467   4.049  18.609 -0.8788  3.1195 -1.4599
 4911TIP3   OH238927   2.814   6.364  20.456 -0.2685 -0.3487  0.0320
 4911TIP3    H138928   2.901   6.366  20.417 -0.9411 -1.6120 -1.6757
 4911TIP3    H238929   2.801   6.273  20.482 -1.0143 -0.1272  0.4714
 4912TIP3   OH238930   0.185   3.943  19.111  0.3115 -0.2390 -0.3200
 4912TIP3    H138931   0.154   4.017  19.163  1.7016  0.7943 -0.9068
 4912TIP3    H238932   0.278   3.959  19.099  0.7282 -2.3065 -0.1551
 4913TIP3   OH238933   6.467   1.928  18.865 -0.7580  0.1310  0.5673
 4913TIP3    H138934   6.444   1.947  18.956 -1.2703  1.4029  0.1868
 4913TIP3    H238935   6.500   2.011  18.830  0.6847 -0.6646 -0.0448
 4914TIP3   OH238936   5.691   6.634  19.795 -0.1250 -0.0013  0.3679
 4914TIP3    H138937   5.628   6.705  19.804  0.6327  0.6513  0.6316
 4914TIP3    H238938   5.666   6.571  19.862 -1.2506 -0.3458 -0.3464
 4915TIP3   OH238939   0.218   3.721  17.725 -0.3762 -0.2352 -0.1483
 4915TIP3    H138940   0.150   3.717  17.792  1.1820  0.5735  1.5383
 4915TIP3    H238941   0.295   3.753  17.770  0.7701  0.2784 -2.3287
 4916TIP3   OH238942   6.241   3.783  20.818  0.7968  0.6696 -0.0201
 4916TIP3    H138943   6.267   3.863  20.863  1.2906  0.5244 -0.0320
 4916TIP3    H238944   6.314   3.766  20.758  0.4525  0.4983 -0.3918
 4917TIP3   OH238945   6.433   5.958  20.478 -0.7013  0.2921  0.2377
 4917TIP3    H138946   6.341   5.977  20.459 -0.5141 -0.1997 -1.3623
 4917TIP3    H238947   6.438   5.863  20.480 -0.2250  0.3171  0.2987
 4918TIP3   OH238948   3.245   5.648  17.539  0.2358  0.0885 -0.4518
 4918TIP3    H138949   3.334   5.679  17.554  0.2912  0.1740 -0.9381
 4918TIP3    H238950   3.202   5.720  17.493  0.1578 -0.2691 -0.9511
 4919TIP3   OH238951   5.053   4.986  19.086  0.4111 -0.0861  0.1750
 4919TIP3    H138952   5.106   5.025  19.016 -0.6676  3.3905  1.1382
 4919TIP3    H238953   4.963   4.993  19.054  0.0205  0.2038  1.3218
 4920TIP3   OH238954   2.124   5.721  18.469 -0.3165 -0.2940  0.6330
 4920TIP3    H138955   2.050   5.779  18.452 -1.5428 -2.0050 -0.0769
 4920TIP3    H238956   2.088   5.633  18.462  1.3140 -1.1769  2.4272
 4921TIP3   OH238957   1.022   4.541  20.278  0.2871  0.0801 -0.2828
 4921TIP3    H138958   0.983   4.580  20.200  0.8367 -0.3776 -0.8001
 4921TIP3    H238959   1.015   4.447  20.263 -1.6385 -0.0904  1.2533
 4922TIP3   OH238960   5.603   4.781  17.400  0.5670 -0.0054  0.3108
 4922TIP3    H138961   5.617   4.860  17.347  0.0687  0.0943  0.3232
 4922TIP3    H238962   5.580   4.714  17.336  0.4461 -0.0058  0.3560
 4923TIP3   OH238963   2.981   1.126  18.266 -0.0570  0.3854 -0.4422
 4923TIP3    H138964   3.075   1.107  18.273  0.2696  1.6260 -1.1423
 4923TIP3    H238965   2.973   1.179  18.187 -1.7341 -1.8982 -1.9122
 4924TIP3   OH238966   0.000   6.539  19.659  0.3511  0.6097 -1.0237
 4924TIP3    H138967   0.061   6.558  19.587  1.0613  0.6803 -0.4074
 4924TIP3    H238968   0.050   6.485  19.719  0.7749  2.9259  0.8786
 4925TIP3   OH238969   1.636   4.985  19.454  0.0395 -0.1568 -0.8157
 4925TIP3    H138970   1.640   5.056  19.519 -1.3949  0.7632 -1.6741
 4925TIP3    H238971   1.683   5.019  19.378 -1.1878  0.1681 -1.4580
 4926TIP3   OH238972   4.723   5.916  17.980  0.0786  0.2393 -0.6364
 4926TIP3    H138973   4.688   5.851  17.919 -0.7200  0.6921 -0.6852
 4926TIP3    H238974   4.669   5.994  17.965 -1.2926 -0.1495  1.8196
 4927TIP3   OH238975   4.297   1.032  20.040  0.0238  0.4154 -0.4368
 4927TIP3    H138976   4.373   1.090  20.029  0.8959 -0.7615 -0.8202
 4927TIP3    H238977   4.240   1.053  19.967 -0.4146  1.8400  0.2589
 4928TIP3   OH238978   4.955   4.140  20.334 -0.2248  0.5380  0.4463
 4928TIP3    H138979   4.944   4.224  20.379  1.5113  1.9616 -1.5673
 4928TIP3    H238980   4.865   4.107  20.324 -1.0431  2.5134  0.7234
 4929TIP3   OH238981   4.651   0.411  18.213 -0.2395 -0.2923  0.3544
 4929TIP3    H138982   4.642   0.498  18.252  1.6284  0.6268 -1.1131
 4929TIP3    H238983   4.732   0.377  18.252  0.0812 -0.5524 -0.5275
 4930TIP3   OH238984   5.637   3.245  18.134 -0.5377  0.0295  0.2488
 4930TIP3    H138985   5.648   3.151  18.119  0.2023  0.2824 -1.0022
 4930TIP3    H238986   5.587   3.276  18.058 -0.9135  0.6151  0.7257
 4931TIP3   OH238987   4.588   3.405  20.894  0.0131 -0.0847 -0.1538
 4931TIP3    H138988   4.648   3.468  20.936 -0.2711 -0.1130  0.2950
 4931TIP3    H238989   4.646   3.350  20.840  0.6700 -1.3277  1.7191
 4932TIP3   OH238990   0.664   4.945  19.587  0.3465  0.0119  0.1861
 4932TIP3    H138991   0.645   5.036  19.608  1.6166  0.9080 -2.1176
 4932TIP3    H238992   0.713   4.912  19.662  0.3374  1.3949  0.8221
 4933TIP3   OH238993   5.274   3.567  18.629  0.2072 -0.0983 -0.3212
 4933TIP3    H138994   5.283   3.542  18.721 -2.1700 -0.1686 -0.0416
 4933TIP3    H238995   5.242   3.489  18.586  0.8708  0.0691 -1.1397
 4934TIP3   OH238996   3.392   1.556  18.139 -0.0832 -0.7036 -0.3741
 4934TIP3    H138997   3.484   1.575  18.159  0.5137 -3.3327 -0.2269
 4934TIP3    H238998   3.389   1.548  18.044 -0.3371  0.0549 -0.4385
 4935TIP3   OH238999   3.203   5.551  20.545 -0.7278 -0.0310 -0.5339
 4935TIP3    H139000   3.125   5.580  20.498  0.9089  0.6648 -3.0043
 4935TIP3    H239001   3.251   5.498  20.482  0.7674 -0.5535  0.9570
 4936TIP3   OH239002   6.233   0.224  19.607 -0.2844  0.0970 -0.7196
 4936TIP3    H139003   6.139   0.219  19.628 -0.5801  0.1349 -1.9501
 4936TIP3    H239004   6.275   0.245  19.691 -1.4702  0.9928 -0.3149
 4937TIP3   OH239005   3.262   1.519  19.988  0.6723  0.8747  0.0350
 4937TIP3    H139006   3.225   1.591  19.938 -3.0471 -0.9085 -0.1014
 4937TIP3    H239007   3.264   1.445  19.927  1.8272  0.1402  0.9026
 4938TIP3   OH239008   0.832   5.429  19.257 -0.6369  0.6370  0.2728
 4938TIP3    H139009   0.899   5.483  19.299  0.1628 -0.6084  0.6658
 4938TIP3    H239010   0.750   5.455  19.299 -0.2809  1.5505  0.4266
 4939TIP3   OH239011   4.273   5.540  18.428  0.0879  0.1576  0.0412
 4939TIP3    H139012   4.357   5.507  18.458  0.0775  1.0466  1.1238
 4939TIP3    H239013   4.259   5.620  18.479 -1.6060 -0.2052  0.2293
 4940TIP3   OH239014   6.238   1.103  19.710  0.2810  0.2459  0.2154
 4940TIP3    H139015   6.289   1.116  19.790 -0.7431  0.1907  0.8971
 4940TIP3    H239016   6.156   1.150  19.725 -0.0625 -0.0308 -0.6709
 4941TIP3   OH239017   2.055   2.076  20.049 -0.3985  0.3572 -0.1375
 4941TIP3    H139018   2.018   1.993  20.019  0.6548  0.2947 -1.3374
 4941TIP3    H239019   2.026   2.141  19.985 -0.0336  0.6472 -0.0178
 4942TIP3   OH239020   5.601   3.887  20.264  0.1083 -0.7628  0.2334
 4942TIP3    H139021   5.694   3.893  20.241  0.2601 -0.5529  0.8932
 4942TIP3    H239022   5.581   3.794  20.261  0.1957 -0.7703 -0.4388
 4943TIP3   OH239023   1.099   4.365  19.629 -0.6715  0.1787  0.4441
 4943TIP3    H139024   1.034   4.434  19.619 -2.0500 -1.0626  0.5907
 4943TIP3    H239025   1.073   4.297  19.566  0.4200 -0.3887  0.5764
 4944TIP3   OH239026   4.444   6.540  20.635 -0.3103 -0.2788  0.1895
 4944TIP3    H139027   4.406   6.620  20.598  1.1321  0.7595  0.8283
 4944TIP3    H239028   4.423   6.544  20.728  0.8710  0.0736  0.4661
 4945TIP3   OH239029   1.388   4.186  19.168 -0.4490  0.2289 -0.0377
 4945TIP3    H139030   1.347   4.111  19.124  0.3521 -0.4657  0.3575
 4945TIP3    H239031   1.337   4.197  19.248 -1.2216  0.7862 -0.5987
 4946TIP3   OH239032   4.465   3.372  19.138 -0.5171 -0.4592 -0.3520
 4946TIP3    H139033   4.549   3.331  19.158  0.7996  1.3903 -1.8610
 4946TIP3    H239034   4.460   3.447  19.197 -3.0902 -2.6631  2.6597
 4947TIP3   OH239035   6.314   5.436  20.253 -0.8032 -0.3958  0.1349
 4947TIP3    H139036   6.407   5.456  20.244 -0.3765 -2.1445  0.2599
 4947TIP3    H239037   6.269   5.511  20.214  0.6384  0.6038  0.3210
 4948TIP3   OH239038   2.752   6.642  17.806 -0.4367  0.4633 -0.2764
 4948TIP3    H139039   2.660   6.617  17.812 -0.6052  0.9297 -0.7561
 4948TIP3    H239040   2.766   6.659  17.712 -0.0842  1.1682 -0.1061
 4949TIP3   OH239041   3.004   0.265  17.264  0.3197 -0.0918 -0.8920
 4949TIP3    H139042   3.046   0.350  17.271 -2.5605  1.3474  0.5578
 4949TIP3    H239043   3.070   0.203  17.299  1.4133  1.9208  0.8612
 4950TIP3   OH239044   5.062   0.757  18.027 -0.3156 -0.3302 -0.2202
 4950TIP3    H139045   5.090   0.757  17.936  1.0677 -2.2661  0.1456
 4950TIP3    H239046   5.132   0.712  18.074 -0.1825  2.0429  2.1110
 4951TIP3   OH239047   4.894   1.724  19.586 -0.2389  0.8816 -0.2204
 4951TIP3    H139048   4.924   1.639  19.553 -1.0145  0.8186 -0.7993
 4951TIP3    H239049   4.804   1.731  19.554 -0.9656  0.9358  1.7197
 4952TIP3   OH239050   1.392   2.814  18.128 -0.0268 -0.4164 -0.4491
 4952TIP3    H139051   1.301   2.808  18.099 -0.5474 -0.8743  1.1841
 4952TIP3    H239052   1.433   2.734  18.096 -0.1384 -0.1523 -1.2949
 4953TIP3   OH239053   2.546   4.038  19.493 -0.5995  0.1386  0.6302
 4953TIP3    H139054   2.599   3.962  19.516  1.3937 -0.3120 -4.2175
 4953TIP3    H239055   2.596   4.114  19.523  0.7602 -0.3948 -0.2292
 4954TIP3   OH239056   6.216   3.611  19.900  0.0914  0.0594 -0.3193
 4954TIP3    H139057   6.185   3.654  19.820  1.0080 -0.0484 -0.7345
 4954TIP3    H239058   6.311   3.622  19.899  0.2031 -0.7341  0.2930
 4955TIP3   OH239059   2.879   0.730  18.818  0.3617 -0.3616  0.0982
 4955TIP3    H139060   2.867   0.638  18.795 -3.1301  0.1301 -0.6139
 4955TIP3    H239061   2.877   0.731  18.914  1.5449 -1.0784  0.1561
 4956TIP3   OH239062   5.242   5.123  18.916 -0.9118  1.0207 -0.1968
 4956TIP3    H139063   5.324   5.131  18.867 -0.5920  0.3527  0.2063
 4956TIP3    H239064   5.194   5.203  18.897 -0.2053  1.3725 -0.5198
 4957TIP3   OH239065   3.973   0.893  20.356  0.8340 -0.3643  0.2195
 4957TIP3    H139066   4.068   0.902  20.367  0.8819 -0.0828 -0.3813
 4957TIP3    H239067   3.962   0.816  20.302  0.7984  0.3760 -0.8553
 4958TIP3   OH239068   4.064   2.807  20.055  0.6577 -0.3680  0.0647
 4958TIP3    H139069   4.084   2.860  19.978 -0.7918  0.5686  0.2887
 4958TIP3    H239070   3.968   2.806  20.059  0.6804  0.4964  2.4035
 4959TIP3   OH239071   1.434   1.243  19.019 -0.1180  0.1739  0.1102
 4959TIP3    H139072   1.421   1.192  19.098  2.3618 -0.7097  0.0469
 4959TIP3    H239073   1.465   1.328  19.051  2.0362 -0.5641  0.1581
 4960TIP3   OH239074   2.151   1.266  20.030 -0.2646 -0.6019 -0.5580
 4960TIP3    H139075   2.151   1.327  19.956 -1.0460  0.4527  0.2819
 4960TIP3    H239076   2.062   1.270  20.064  0.2070 -0.7051  0.7248
 4961TIP3   OH239077   0.102   3.512  19.793 -0.4574  0.6743  0.2033
 4961TIP3    H139078   0.073   3.489  19.880 -0.3277 -4.6271 -0.8492
 4961TIP3    H239079   0.193   3.541  19.805 -1.0227  1.9111  1.8987
 4962TIP3   OH239080   6.108   1.900  19.626 -0.1714 -0.1848 -0.0181
 4962TIP3    H139081   6.112   1.853  19.543  0.7272 -0.0776 -0.0416
 4962TIP3    H239082   6.096   1.992  19.601 -3.1967 -0.4475  0.0426
 4963TIP3   OH239083   1.258   3.781  17.774  0.0434  0.4187  0.1817
 4963TIP3    H139084   1.352   3.793  17.789  0.0934 -1.0845  1.3408
 4963TIP3    H239085   1.219   3.787  17.861 -0.6877 -0.8144 -0.0333
 4964TIP3   OH239086   5.554   0.297  18.767 -0.1412  0.1229  0.0391
 4964TIP3    H139087   5.581   0.302  18.859 -2.7264  1.4609  0.8374
 4964TIP3    H239088   5.576   0.208  18.740  1.0448 -0.1759  1.8336
 4965TIP3   OH239089   0.618   5.317  18.470  0.2253 -0.0815  0.6942
 4965TIP3    H139090   0.549   5.366  18.514  1.0114  1.0468  0.7283
 4965TIP3    H239091   0.600   5.327  18.377  0.0674 -0.2108  0.7098
 4966TIP3   OH239092   0.158   6.110  20.245 -0.3508  0.1124 -0.2782
 4966TIP3    H139093   0.100   6.055  20.298  0.4561 -0.3374  0.1715
 4966TIP3    H239094   0.130   6.095  20.155 -0.3306 -0.8363 -0.1388
 4967TIP3   OH239095   6.281   0.573  19.259 -0.4638 -0.2473  0.0573
 4967TIP3    H139096   6.341   0.514  19.304  1.3430 -0.1502 -2.1116
 4967TIP3    H239097   6.307   0.660  19.287  1.0748 -0.1457 -1.5262
 4968TIP3   OH239098   5.628   4.560  19.886  0.0346 -0.3946  0.0540
 4968TIP3    H139099   5.625   4.590  19.977  0.0882  0.0103 -0.0749
 4968TIP3    H239100   5.615   4.465  19.891  1.6307 -0.6151  0.6132
 4969TIP3   OH239101   5.052   1.220  20.886 -0.2381 -0.2056  0.0138
 4969TIP3    H139102   5.057   1.134  20.927 -1.6155 -1.1244 -1.5978
 4969TIP3    H239103   5.133   1.229  20.836  0.2226 -0.2430  0.7464
 4970TIP3   OH239104   1.162   1.141  19.876 -0.3879 -0.3008  0.0844
 4970TIP3    H139105   1.227   1.202  19.911 -1.2847 -0.3950  2.0662
 4970TIP3    H239106   1.114   1.192  19.810  0.2879  0.4446  0.1567
 4971TIP3   OH239107   0.701   5.934  21.006 -0.4635 -0.1443 -0.0401
 4971TIP3    H139108   0.618   5.948  21.051  0.4937 -0.0335  1.7821
 4971TIP3    H239109   0.746   6.019  21.012  0.7055 -0.7959  1.0581
 4972TIP3   OH239110   1.520   6.313  18.529 -0.2173  0.0221 -0.6769
 4972TIP3    H139111   1.507   6.389  18.586 -1.0454 -0.4290 -0.2450
 4972TIP3    H239112   1.448   6.254  18.551  1.0936 -1.4245 -0.1475
 4973TIP3   OH239113   4.365   4.930  19.653 -0.2925  0.1176  0.4310
 4973TIP3    H139114   4.342   4.996  19.588  0.3858 -0.5675 -0.5354
 4973TIP3    H239115   4.435   4.970  19.704  1.1679 -0.3609 -1.1101
 4974TIP3   OH239116   4.837   0.452  20.462 -0.2177 -0.0836 -0.3164
 4974TIP3    H139117   4.837   0.503  20.381 -0.0673  1.0921  0.3909
 4974TIP3    H239118   4.929   0.434  20.479 -0.2337 -0.1636 -0.3153
 4975TIP3   OH239119   1.198   0.401  18.896  0.6758  0.8467  0.1253
 4975TIP3    H139120   1.171   0.312  18.875  0.8749  0.7847  0.1303
 4975TIP3    H239121   1.284   0.410  18.854  0.8813  0.8693  0.5506
 4976TIP3   OH239122   3.266   3.608  17.275 -0.4001  0.4250  0.2778
 4976TIP3    H139123   3.178   3.637  17.297 -1.4019 -0.5162 -2.1997
 4976TIP3    H239124   3.265   3.513  17.289  1.2028  0.7219  3.1048
 4977TIP3   OH239125   3.006   2.073  18.784  0.2528 -0.2110  0.0809
 4977TIP3    H139126   2.952   1.995  18.771  1.2015 -0.7048 -1.1316
 4977TIP3    H239127   2.959   2.143  18.739  0.3134 -0.5138 -0.4696
 4978TIP3   OH239128   3.661   4.886  20.898  0.0114 -0.4221  0.4623
 4978TIP3    H139129   3.742   4.837  20.884  0.4374  0.1656  0.8136
 4978TIP3    H239130   3.688   4.977  20.898 -0.8218 -0.1614 -0.4980
 4979TIP3   OH239131   4.357   4.541  20.202 -0.3980  0.6007  0.0605
 4979TIP3    H139132   4.310   4.492  20.270  0.8228 -1.5279 -0.5487
 4979TIP3    H239133   4.409   4.605  20.251 -2.4923  1.7845  0.8427
 4980TIP3   OH239134   1.605   2.820  18.498  0.8560  0.0152  0.1588
 4980TIP3    H139135   1.551   2.871  18.438 -0.3487 -0.7651  0.5379
 4980TIP3    H239136   1.604   2.870  18.580 -0.0582 -0.4167  0.4322
 4981TIP3   OH239137   4.678   3.218  19.265  0.6480 -0.2176 -0.3078
 4981TIP3    H139138   4.751   3.247  19.211  1.5543 -3.0911 -0.8420
 4981TIP3    H239139   4.690   3.264  19.348  2.4690  0.1895 -0.7456
 4982TIP3   OH239140   2.680   0.905  19.564 -0.2166 -0.2477  0.1288
 4982TIP3    H139141   2.746   0.881  19.500 -0.9296  0.4160 -0.8819
 4982TIP3    H239142   2.677   0.831  19.625  0.7790 -0.6897 -0.3397
 4983TIP3   OH239143   0.542   3.586  18.064  0.1406 -0.0724  0.8739
 4983TIP3    H139144   0.546   3.500  18.107 -1.8874  0.1646  1.6657
 4983TIP3    H239145   0.598   3.642  18.117  0.8937 -0.7275  0.7857
 4984TIP3   OH239146   2.567   4.731  20.150 -0.2070 -0.1306 -0.0116
 4984TIP3    H139147   2.570   4.737  20.054 -0.4987 -0.1192 -0.0235
 4984TIP3    H239148   2.594   4.641  20.169  1.2978  0.2927 -0.0135
 4985TIP3   OH239149   2.504   2.959  18.195  0.4016  0.3822 -0.1228
 4985TIP3    H139150   2.513   2.920  18.109  0.0967  3.3677 -1.6682
 4985TIP3    H239151   2.437   2.907  18.239  0.4855 -1.1441 -1.7324
 4986TIP3   OH239152   1.147   3.589  19.888  0.3248  0.0789 -0.5041
 4986TIP3    H139153   1.138   3.664  19.828  0.8891  1.1917  0.7601
 4986TIP3    H239154   1.211   3.618  19.953  2.0606 -2.2430 -1.0681
 4987TIP3   OH239155   1.252   4.987  18.438  0.1443 -0.3187  0.1079
 4987TIP3    H139156   1.258   5.015  18.529 -1.2959 -0.3552  0.2392
 4987TIP3    H239157   1.158   4.979  18.422  0.3575  0.0030 -1.4761
 4988TIP3   OH239158   3.203   6.238  19.412  0.4276 -0.0835  0.2707
 4988TIP3    H139159   3.107   6.239  19.414  0.3840  0.2991 -1.0984
 4988TIP3    H239160   3.227   6.160  19.462 -0.5685  0.1681  1.1697
 4989TIP3   OH239161   6.010   6.390  20.290 -0.1570 -0.2596 -0.1411
 4989TIP3    H139162   5.970   6.405  20.204 -2.5073 -0.9914  0.7311
 4989TIP3    H239163   6.038   6.477  20.319 -0.5273  0.1937 -1.0915
 4990TIP3   OH239164   1.813   6.258  17.372  0.1368 -0.6086 -0.2142
 4990TIP3    H139165   1.816   6.189  17.306  0.4282 -2.3699  1.5431
 4990TIP3    H239166   1.721   6.281  17.379  0.0102 -0.9706 -0.6822
 4991TIP3   OH239167   4.056   3.696  17.923  0.3073  0.1982 -0.0879
 4991TIP3    H139168   3.985   3.632  17.927  0.8600 -0.4463 -0.3199
 4991TIP3    H239169   4.012   3.781  17.923 -0.4327 -0.1711  0.4417
 4992TIP3   OH239170   6.194   0.740  17.384  0.5506  0.2726  0.5426
 4992TIP3    H139171   6.287   0.763  17.391  0.2684  1.2356  1.3206
 4992TIP3    H239172   6.162   0.792  17.310  0.9264 -1.1152 -0.6271
 4993TIP3   OH239173   4.095   3.725  20.414 -0.3037 -0.2782  0.6633
 4993TIP3    H139174   4.100   3.631  20.434  0.5575  0.1064  2.4924
 4993TIP3    H239175   4.003   3.747  20.429 -0.5855 -0.8713 -0.0945
 4994TIP3   OH239176   4.127   2.397  19.708 -0.7518 -0.5405 -0.2439
 4994TIP3    H139177   4.135   2.472  19.767 -0.8652  1.1173 -2.2121
 4994TIP3    H239178   4.208   2.348  19.720  0.3193  1.0937 -0.4285
 4995TIP3   OH239179   0.647   3.272  16.949 -0.3659 -0.7350  0.1217
 4995TIP3    H139180   0.720   3.217  16.976 -0.9033 -1.4957  0.0691
 4995TIP3    H239181   0.570   3.229  16.986 -0.6278  1.1564  1.9494
 4996TIP3   OH239182   1.371   5.901  19.264 -0.5847  0.5922  0.3553
 4996TIP3    H139183   1.391   5.866  19.351  1.6141 -1.1470 -0.7646
 4996TIP3    H239184   1.457   5.921  19.226 -1.3068 -0.8913 -2.2699
 4997TIP3   OH239185   5.000   1.526  19.131 -0.7348  0.3746 -0.0752
 4997TIP3    H139186   5.082   1.552  19.174 -0.3678  0.0490 -0.5772
 4997TIP3    H239187   5.014   1.544  19.038  0.1764 -3.1225 -0.7408
 4998TIP3   OH239188   2.063   6.528  19.540  0.1241 -0.0219 -0.7246
 4998TIP3    H139189   1.981   6.480  19.524 -0.6589  1.2926 -0.8121
 4998TIP3    H239190   2.131   6.461  19.535 -1.0523 -1.4254  0.8414
 4999TIP3   OH239191   1.946   5.529  19.564 -0.2051 -0.7906  0.3690
 4999TIP3    H139192   1.910   5.511  19.651  0.5997  1.5872  1.2667
 4999TIP3    H239193   1.869   5.544  19.509 -0.7847  2.1045  1.7636
 5000TIP3   OH239194   3.012   2.391  18.329  0.4702 -0.5594 -0.5523
 5000TIP3    H139195   2.992   2.364  18.240  0.2150  0.7238 -0.9105
 5000TIP3    H239196   3.104   2.416  18.327  0.2387  0.3155 -0.6928
 5001TIP3   OH239197   2.869   0.090  18.205  0.0092 -0.0259 -0.2714
 5001TIP3    H139198   2.944   0.048  18.247  0.2423  0.0772 -0.5816
 5001TIP3    H239199   2.840   0.156  18.268  0.5396  0.3302 -0.3881
 5002TIP3   OH239200   1.111   4.952  19.251  0.3033  0.1821 -0.3370
 5002TIP3    H139201   1.027   4.908  19.264  0.0554  0.9873  0.9964
 5002TIP3    H239202   1.132   4.989  19.337  1.9535  0.1262 -0.6834
 5003TIP3   OH239203   4.717   4.823  19.662 -0.3492  0.5187 -0.0426
 5003TIP3    H139204   4.701   4.757  19.595 -0.2598 -0.3569  0.7731
 5003TIP3    H239205   4.630   4.844  19.696 -0.3149  0.2613  0.2098
 5004TIP3   OH239206   5.237   1.072  17.991 -0.0985  0.2454  0.4265
 5004TIP3    H139207   5.266   1.029  17.911  1.1603 -0.9126  1.4702
 5004TIP3    H239208   5.245   1.166  17.972 -2.6889  0.1419 -1.8139
 5005TIP3   OH239209   0.936   1.485  19.099 -0.0970 -0.2692 -0.4037
 5005TIP3    H139210   0.992   1.407  19.102  0.9790  0.4928  0.3531
 5005TIP3    H239211   0.972   1.542  19.168 -0.6604  1.0216 -1.1448
 5006TIP3   OH239212   6.664   3.110  19.859  0.3720 -0.2798  0.2079
 5006TIP3    H139213   6.749   3.153  19.845 -1.0877  2.8426  0.0585
 5006TIP3    H239214   6.643   3.129  19.951 -0.2191 -0.9399  0.2171
 5007TIP3   OH239215   5.881   5.176  19.963 -0.1387 -0.0615  0.3171
 5007TIP3    H139216   5.838   5.101  20.004 -0.6780  0.4801  0.7498
 5007TIP3    H239217   5.878   5.245  20.029  1.0109  0.1254  0.1931
 5008TIP3   OH239218   1.081   0.972  19.602  0.3251  0.0498 -1.0356
 5008TIP3    H139219   1.024   0.955  19.527 -1.2099  0.6436 -0.0392
 5008TIP3    H239220   1.065   0.899  19.662  1.2241 -0.1921 -1.0632
 5009TIP3   OH239221   5.422   5.185  18.717  0.1937  0.4062 -0.2883
 5009TIP3    H139222   5.384   5.179  18.629 -0.1812  3.4127 -0.4318
 5009TIP3    H239223   5.477   5.107  18.725 -0.8676 -0.6657 -2.6228
 5010TIP3   OH239224   4.717   2.051  20.660 -0.2301  0.2094  0.6528
 5010TIP3    H139225   4.725   1.975  20.602 -2.1375  1.3651 -1.2820
 5010TIP3    H239226   4.655   2.022  20.728 -1.8628  0.3042 -0.7212
 5011TIP3   OH239227   1.490   3.596  17.555 -0.2034  0.4816 -0.1567
 5011TIP3    H139228   1.394   3.594  17.561 -0.2632  2.0335 -0.2158
 5011TIP3    H239229   1.508   3.590  17.461 -0.0692 -2.9594 -0.0297
 5012TIP3   OH239230   1.574   6.647  20.013  0.0371 -0.2211 -0.0466
 5012TIP3    H139231   1.563   6.621  20.105 -2.2175  1.2127  0.1754
 5012TIP3    H239232   1.622   6.730  20.018 -0.9816  0.3818 -0.0635
 5013TIP3   OH239233   4.965   6.524  18.310 -0.1085 -0.6377 -0.2472
 5013TIP3    H139234   4.971   6.619  18.304 -0.0850 -0.6572 -0.5848
 5013TIP3    H239235   4.979   6.493  18.220 -1.2574 -0.8997 -0.3552
 5014TIP3   OH239236   5.547   2.973  17.903  1.0235 -1.1101  0.3441
 5014TIP3    H139237   5.516   3.034  17.836  0.0332 -1.4594  0.4662
 5014TIP3    H239238   5.519   2.887  17.871  0.2484 -1.2443  1.3521
 5015TIP3   OH239239   5.134   5.582  18.389 -0.0791  0.6281 -0.9811
 5015TIP3    H139240   5.051   5.568  18.345 -0.4128  0.8587 -0.4309
 5015TIP3    H239241   5.170   5.661  18.348 -0.3602  0.8073 -0.8831
 5016TIP3   OH239242   6.321   3.440  18.102 -0.3750  0.4070 -0.7606
 5016TIP3    H139243   6.338   3.505  18.170 -3.8430 -0.8707  1.5453
 5016TIP3    H239244   6.252   3.479  18.048  0.4545  0.2803 -1.9560
 5017TIP3   OH239245   5.578   0.474  17.855  0.0806  0.1155  0.2042
 5017TIP3    H139246   5.507   0.539  17.851 -1.3873 -1.3730  0.6792
 5017TIP3    H239247   5.602   0.459  17.764 -1.3825 -0.5159 -0.1122
 5018TIP3   OH239248   2.848   6.465  17.976  0.2381 -0.6863  0.1888
 5018TIP3    H139249   2.817   6.540  17.924  1.7907 -0.4539 -0.4577
 5018TIP3    H239250   2.943   6.467  17.966  0.3739 -2.2070  0.9309
 5019TIP3   OH239251   4.950   1.060  17.966 -0.0844  0.1188  0.3529
 5019TIP3    H139252   4.908   1.108  18.038 -0.4899 -0.0596  0.2361
 5019TIP3    H239253   5.040   1.046  17.996 -0.1438  0.3803  0.6631
 5020TIP3   OH239254   5.827   6.706  17.565 -0.1084 -0.1172 -0.5120
 5020TIP3    H139255   5.920   6.688  17.575 -0.3807 -1.1662  0.2995
 5020TIP3    H239256   5.815   6.792  17.606  0.3476 -0.4043  0.2367
 5021TIP3   OH239257   4.414   2.959  20.166  0.3695 -0.3019  0.7894
 5021TIP3    H139258   4.405   2.995  20.255 -3.8197  0.9915  0.0557
 5021TIP3    H239259   4.324   2.944  20.138  1.6367 -5.1152 -1.6155
 5022TIP3   OH239260   1.299   4.189  19.472  0.1635 -0.5022 -0.3207
 5022TIP3    H139261   1.331   4.184  19.562 -1.1797  0.1627  0.2258
 5022TIP3    H239262   1.240   4.114  19.463 -0.5869  0.0685 -0.2607
 5023TIP3   OH239263   0.148   1.831  19.354  0.0299 -0.3788  0.3678
 5023TIP3    H139264   0.149   1.918  19.314  0.6339 -1.6487 -2.6504
 5023TIP3    H239265   0.056   1.804  19.351 -0.4563  0.7415  2.9207
 5024TIP3   OH239266   0.371   2.327  18.577 -0.3945  0.2520  0.1813
 5024TIP3    H139267   0.385   2.381  18.500 -0.5708  0.2389  0.1388
 5024TIP3    H239268   0.337   2.388  18.643  2.5873  0.9336  1.2505
 5025TIP3   OH239269   1.167   0.989  18.804 -0.0033  0.0973  0.4160
 5025TIP3    H139270   1.145   0.932  18.877 -1.9261 -0.0957 -0.2743
 5025TIP3    H239271   1.191   1.072  18.845 -0.2121 -0.2636  1.2868
 5026TIP3   OH239272   1.223   5.203  18.078 -0.3905  0.1005 -0.2012
 5026TIP3    H139273   1.223   5.108  18.086  1.0925 -0.0309 -1.3897
 5026TIP3    H239274   1.238   5.235  18.166 -0.5749 -0.7717  0.1574
 5027TIP3   OH239275   1.849   2.181  19.036 -0.1265  0.3752  0.0634
 5027TIP3    H139276   1.805   2.253  18.991 -1.1146  0.7910  1.6305
 5027TIP3    H239277   1.832   2.196  19.129  1.2196 -0.8688  0.5568
 5028TIP3   OH239278   3.062   6.510  17.311 -0.3601  0.2031  0.4716
 5028TIP3    H139279   3.053   6.458  17.232  0.1549 -1.4720  1.4682
 5028TIP3    H239280   3.097   6.449  17.376 -1.6504  1.2720  2.2469
 5029TIP3   OH239281   3.347   0.758  17.811 -0.1684 -0.8046  0.0219
 5029TIP3    H139282   3.421   0.815  17.790 -1.6018  0.7922 -0.9642
 5029TIP3    H239283   3.368   0.721  17.896  2.2201 -1.2184 -0.6925
 5030TIP3   OH239284   5.728   1.098  17.362 -0.4228 -0.5415  0.2027
 5030TIP3    H139285   5.706   1.138  17.278  0.0387 -0.3946  0.1481
 5030TIP3    H239286   5.734   1.004  17.343 -0.4757 -0.5243  0.1013
 5031TIP3   OH239287   2.036   1.442  17.761  0.2259  0.5633  0.0150
 5031TIP3    H139288   1.959   1.470  17.711 -0.4719 -1.5974 -0.2230
 5031TIP3    H239289   2.019   1.472  17.850 -1.6262 -1.1025  0.2765
 5032TIP3   OH239290   3.053   3.209  17.353  0.0296 -0.7202  0.3156
 5032TIP3    H139291   3.056   3.114  17.358 -0.8934 -0.7962 -0.3648
 5032TIP3    H239292   2.984   3.228  17.289  1.9002  0.3555 -1.5116
 5033TIP3   OH239293   1.633   6.574  18.090  0.4998 -0.6541  0.3965
 5033TIP3    H139294   1.586   6.538  18.015 -0.3043  0.7332  0.1977
 5033TIP3    H239295   1.572   6.566  18.163  1.0097 -1.3441  0.7587
 5034TIP3   OH239296   3.363   1.576  17.854  0.8152 -0.3307 -0.2681
 5034TIP3    H139297   3.434   1.525  17.817  0.4991 -1.4673  0.6316
 5034TIP3    H239298   3.284   1.525  17.834  0.1996  1.0540 -1.5138
 5035TIP3   OH239299   1.422   3.353  20.275  0.3175 -0.0224 -0.0571
 5035TIP3    H139300   1.506   3.335  20.317 -0.2437 -0.8100  0.7866
 5035TIP3    H239301   1.375   3.408  20.338 -0.9881 -2.1655  0.9881
 5036TIP3   OH239302   0.664   5.617  19.862 -0.3473 -0.0115  0.0039
 5036TIP3    H139303   0.711   5.535  19.879  0.2508  0.1271 -0.8779
 5036TIP3    H239304   0.714   5.683  19.909 -0.5007 -0.0637  0.2445
 5037TIP3   OH239305   0.851   5.535  18.992 -0.0660 -0.1454 -0.4573
 5037TIP3    H139306   0.822   5.514  19.081  0.0264  0.0261 -0.3859
 5037TIP3    H239307   0.778   5.585  18.955  0.9932  2.2285  0.4786
 5038TIP3   OH239308   4.504   1.331  19.558 -0.0351 -0.0568 -0.0723
 5038TIP3    H139309   4.487   1.366  19.645 -0.8164 -1.0532  0.1911
 5038TIP3    H239310   4.491   1.237  19.566 -1.3410 -0.0439 -1.5246
 5039TIP3   OH239311   1.889   1.203  20.429  0.3556  0.0407 -0.1501
 5039TIP3    H139312   1.794   1.191  20.430  0.1000  1.7623  2.1734
 5039TIP3    H239313   1.924   1.119  20.461 -0.5396  0.1502  1.1876
 5040TIP3   OH239314   3.909   1.683  17.574 -0.0803  0.7912 -0.2648
 5040TIP3    H139315   3.899   1.723  17.661  1.2313  0.2079  0.1781
 5040TIP3    H239316   3.972   1.740  17.529  0.3295  0.3146 -0.3098
 5041TIP3   OH239317   5.405   0.135  19.566  0.0514 -0.0371  0.2044
 5041TIP3    H139318   5.330   0.193  19.557  1.1581  1.2116 -1.8157
 5041TIP3    H239319   5.373   0.048  19.540 -0.4553  0.7201 -1.8548
 5042TIP3   OH239320   6.577   4.295  19.895  0.8545  0.4866  0.8325
 5042TIP3    H139321   6.612   4.383  19.911 -0.2263  1.4714 -1.6223
 5042TIP3    H239322   6.649   4.247  19.855  0.8210  0.9684  0.1809
 5043TIP3   OH239323   5.621   5.869  17.648 -0.1344  0.0290 -0.0719
 5043TIP3    H139324   5.625   5.792  17.591  1.0416  0.2358 -0.3073
 5043TIP3    H239325   5.556   5.926  17.606 -1.4961 -1.0800  0.4581
 5044TIP3   OH239326   4.866   2.624  20.682 -0.7382 -0.3133 -0.0651
 5044TIP3    H139327   4.955   2.595  20.703 -0.7960 -1.3810 -1.1997
 5044TIP3    H239328   4.818   2.615  20.764  0.1276  0.0229  0.4961
 5045TIP3   OH239329   4.087   5.496  18.991 -0.9056 -0.2054  0.1233
 5045TIP3    H139330   4.067   5.422  18.933  1.6130 -0.0401 -1.0997
 5045TIP3    H239331   4.159   5.463  19.046 -0.6777  0.8958  0.4994
 5046TIP3   OH239332   3.221   3.943  19.277 -0.2444 -0.1441  0.0739
 5046TIP3    H139333   3.284   3.898  19.334 -0.3964 -0.1221  0.2603
 5046TIP3    H239334   3.196   4.021  19.326  0.3548  0.3743 -0.4478
 5047TIP3   OH239335   1.498   3.906  19.513 -0.0895  0.6866  0.2093
 5047TIP3    H139336   1.541   3.823  19.534  0.3814  0.6906 -0.6840
 5047TIP3    H239337   1.489   3.950  19.598  1.5518  0.6270  0.4489
 5048TIP3   OH239338   5.385   1.719  19.477  0.0671  0.1522 -0.2761
 5048TIP3    H139339   5.460   1.685  19.428 -0.9058 -0.4851 -1.3955
 5048TIP3    H239340   5.408   1.809  19.497  1.5777 -0.3429  0.3624
 5049TIP3   OH239341   2.380   2.171  20.254 -0.3079  0.4265  0.4715
 5049TIP3    H139342   2.461   2.219  20.236  0.1025 -0.5202 -0.2765
 5049TIP3    H239343   2.383   2.153  20.348  1.0020 -0.7241  0.2426
 5050TIP3   OH239344   6.549   4.305  19.526 -0.3991  0.5692 -0.4140
 5050TIP3    H139345   6.593   4.222  19.508 -0.5519 -0.1310  2.0869
 5050TIP3    H239346   6.460   4.292  19.493 -0.1459  0.1085 -0.9287
 5051TIP3   OH239347   4.317   5.865  20.164  0.5114 -0.1523 -0.0924
 5051TIP3    H139348   4.319   5.830  20.253 -2.0650  0.1488  0.1504
 5051TIP3    H239349   4.293   5.791  20.109  1.3183 -0.1565 -0.4537
 5052TIP3   OH239350   4.870   0.644  18.923 -0.1112 -0.0486  0.1330
 5052TIP3    H139351   4.962   0.662  18.943  0.0580  1.4404 -1.7475
 5052TIP3    H239352   4.828   0.730  18.923 -0.9231 -0.3963 -1.6340
 5053TIP3   OH239353   1.484   0.680  18.204  0.5787 -0.2505  0.5930
 5053TIP3    H139354   1.454   0.625  18.131  0.0667 -0.4506  0.9514
 5053TIP3    H239355   1.438   0.763  18.191  1.2927  0.0783  0.0963
 5054TIP3   OH239356   2.957   4.928  19.860 -0.3456  0.3001  0.5642
 5054TIP3    H139357   2.903   5.003  19.886 -0.8716  0.2928 -0.4564
 5054TIP3    H239358   3.037   4.967  19.825 -0.1620  0.3480  1.0352
 5055TIP3   OH239359   1.810   5.764  20.209 -0.3713  0.1657  0.0626
 5055TIP3    H139360   1.730   5.773  20.262 -1.9401 -3.0276 -1.5131
 5055TIP3    H239361   1.859   5.694  20.251 -0.0841 -0.2296 -0.9130
 5056TIP3   OH239362   1.722   5.478  18.270  0.1231  0.2343 -0.1347
 5056TIP3    H139363   1.802   5.472  18.322  0.1488 -0.6284 -0.2531
 5056TIP3    H239364   1.654   5.441  18.327 -0.2521  1.2195  0.0735
 5057TIP3   OH239365   1.574   0.972  19.127  0.1779  0.1684 -0.0653
 5057TIP3    H139366   1.627   1.046  19.098  1.3389 -1.1389 -1.4136
 5057TIP3    H239367   1.502   1.012  19.177  1.3036  2.1124  0.0840
 5058TIP3   OH239368   4.048   5.523  19.575 -0.1788  0.3851  0.0725
 5058TIP3    H139369   3.996   5.597  19.545  0.3427  0.3028 -1.0628
 5058TIP3    H239370   4.021   5.511  19.666 -0.3288  1.9094  0.2531
 5059TIP3   OH239371   2.692   5.015  18.000 -0.2615  0.3341  0.3594
 5059TIP3    H139372   2.767   4.956  17.998 -1.1850 -0.8708 -0.3994
 5059TIP3    H239373   2.672   5.031  17.907 -2.2238 -1.1232  0.4668
 5060TIP3   OH239374   4.616   4.836  19.151 -0.2066  0.3618 -0.2578
 5060TIP3    H139375   4.528   4.800  19.141  0.1992 -0.1789 -2.3651
 5060TIP3    H239376   4.611   4.921  19.107  0.1543  0.6354  0.2293
 5061TIP3   OH239377   2.925   1.581  18.755  0.1719 -0.2385 -0.0174
 5061TIP3    H139378   2.840   1.545  18.731 -0.2526  0.1981  0.7761
 5061TIP3    H239379   2.978   1.504  18.779 -0.3915 -0.4335  0.6468
 5062TIP3   OH239380   6.221   0.873  19.526 -0.0908 -0.3864  0.6788
 5062TIP3    H139381   6.295   0.813  19.532  0.5554  0.4465  1.3571
 5062TIP3    H239382   6.245   0.946  19.584 -0.8690  0.5019 -0.0893
 5063TIP3   OH239383   4.366   6.519  18.909 -0.1555  0.6971 -0.0409
 5063TIP3    H139384   4.281   6.557  18.930 -0.8097 -1.1424  0.8617
 5063TIP3    H239385   4.422   6.542  18.983 -1.0328 -1.4490  1.3705
 5064TIP3   OH239386   0.819   2.643  18.742 -0.4015 -0.4753  0.3707
 5064TIP3    H139387   0.776   2.580  18.685 -1.3972  0.4191  0.0895
 5064TIP3    H239388   0.823   2.599  18.827 -2.5542 -0.3721  0.5984
 5065TIP3   OH239389   3.637   4.854  18.094  0.8905  0.0711  0.3887
 5065TIP3    H139390   3.698   4.780  18.095  1.6019  0.6099 -0.7282
 5065TIP3    H239391   3.591   4.849  18.178  3.5509  0.5181  1.9841
 5066TIP3   OH239392   2.126   3.286  18.386  0.6610 -0.1599 -0.2640
 5066TIP3    H139393   2.152   3.368  18.344 -0.1279 -0.5769 -1.6655
 5066TIP3    H239394   2.202   3.229  18.376  1.1769  0.3538  0.6320
 5067TIP3   OH239395   6.575   0.819  18.145  0.1164  0.0108 -0.2321
 5067TIP3    H139396   6.595   0.779  18.230 -0.9661 -0.9927 -0.4289
 5067TIP3    H239397   6.532   0.750  18.095  0.7718  0.5830 -1.6249
 5068TIP3   OH239398   3.916   1.711  19.144  0.5752  0.5979 -0.2580
 5068TIP3    H139399   3.965   1.741  19.221  0.0655  0.9705 -0.0769
 5068TIP3    H239400   3.981   1.667  19.090  0.5608 -1.6391  1.3977
 5069TIP3   OH239401   3.323   5.368  18.792  0.4338 -0.0396 -0.3113
 5069TIP3    H139402   3.309   5.273  18.791 -1.1210  0.0332  3.0731
 5069TIP3    H239403   3.275   5.400  18.716 -1.0837 -1.7477 -0.1291
 5070TIP3   OH239404   1.376   5.568  18.198 -0.0395 -0.3075 -0.3984
 5070TIP3    H139405   1.345   5.596  18.112  0.0931  0.3760 -0.2264
 5070TIP3    H239406   1.465   5.604  18.204 -0.0707 -0.3028  0.0500
 5071TIP3   OH239407   1.806   3.831  19.982 -0.1820 -0.0734 -0.3446
 5071TIP3    H139408   1.880   3.861  20.035 -0.7862 -0.2190  0.6111
 5071TIP3    H239409   1.760   3.769  20.039 -0.3113 -0.9838 -1.3995
 5072TIP3   OH239410   6.579   4.341  20.676  0.3698  0.1784 -0.2662
 5072TIP3    H139411   6.672   4.319  20.675  0.5073  0.3541 -3.6818
 5072TIP3    H239412   6.575   4.427  20.634 -1.2366  0.8707  1.2292
 5073TIP3   OH239413   4.390   6.398  20.319 -0.3369 -0.6454 -0.1983
 5073TIP3    H139414   4.315   6.435  20.272  0.0118 -0.9657 -1.0352
 5073TIP3    H239415   4.448   6.367  20.250  0.5886 -0.3607  0.4377
 5074TIP3   OH239416   2.236   5.047  18.677  0.5239 -0.0813 -0.0441
 5074TIP3    H139417   2.185   5.042  18.597  0.8894 -1.2241 -0.2194
 5074TIP3    H239418   2.246   5.141  18.693  0.4763  0.1680 -1.3507
 5075TIP3   OH239419   3.045   5.542  17.701  0.3753 -0.6882  0.4125
 5075TIP3    H139420   2.981   5.613  17.707 -1.8007 -2.0720 -3.1022
 5075TIP3    H239421   3.113   5.576  17.643 -0.7677 -1.3867 -1.4346
 5076TIP3   OH239422   4.927   6.136  20.858 -0.5157  0.0618  0.1381
 5076TIP3    H139423   4.855   6.160  20.915  0.0051 -1.2525  1.4273
 5076TIP3    H239424   4.991   6.206  20.868 -0.9573  0.4549  0.2003
 5077TIP3   OH239425   6.526   1.007  19.686  0.0279 -0.0539  0.2917
 5077TIP3    H139426   6.518   1.061  19.765 -0.6142  0.4072 -0.0829
 5077TIP3    H239427   6.483   1.058  19.617 -0.1365 -0.8163 -0.1836
 5078TIP3   OH239428   6.086   3.954  20.554  0.2164  0.4036  0.6636
 5078TIP3    H139429   6.015   3.898  20.522  0.3991  0.6881 -0.2672
 5078TIP3    H239430   6.138   3.897  20.610  0.3194 -0.3385 -0.1639
 5079TIP3   OH239431   6.459   0.117  19.301 -0.4652 -0.0959 -0.2143
 5079TIP3    H139432   6.523   0.185  19.285 -1.4440  1.2606  1.3055
 5079TIP3    H239433   6.510   0.044  19.336  0.3024  0.9513  0.9459
 5080TIP3   OH239434   3.477   5.525  19.936 -0.6711  0.4387 -0.8124
 5080TIP3    H139435   3.505   5.552  19.849 -1.4202 -1.5875 -1.7619
 5080TIP3    H239436   3.463   5.430  19.928 -1.2427  0.2776  1.3839
 5081TIP3   OH239437   0.193   1.616  18.175 -0.0951 -0.0265  0.7832
 5081TIP3    H139438   0.145   1.533  18.172 -0.6812  0.3310 -1.0027
 5081TIP3    H239439   0.279   1.592  18.212 -0.1907 -1.4649  0.1596
 5082TIP3   OH239440   1.921   6.480  20.595  0.2552 -0.4834  0.5780
 5082TIP3    H139441   1.925   6.422  20.520 -0.1708 -1.0338  0.9667
 5082TIP3    H239442   2.006   6.525  20.596 -0.4077  0.9447 -1.3172
 5083TIP3   OH239443   6.205   5.103  17.986  0.5807 -0.4846  0.1978
 5083TIP3    H139444   6.290   5.123  18.025 -0.5623  1.8166  1.7702
 5083TIP3    H239445   6.157   5.185  17.991 -1.2166 -1.3067 -2.1214
 5084TIP3   OH239446   1.260   2.562  17.228  0.5609  0.1231  0.5471
 5084TIP3    H139447   1.320   2.592  17.160 -0.3646 -0.3011 -0.5027
 5084TIP3    H239448   1.208   2.639  17.250  1.0005  0.3118  0.9240
 5085TIP3   OH239449   2.451   5.771  19.276  0.3918 -0.2284 -0.5642
 5085TIP3    H139450   2.368   5.819  19.276  0.6147  0.2822  1.8054
 5085TIP3    H239451   2.514   5.832  19.239 -0.0358 -0.1363 -1.1579
 5086TIP3   OH239452   0.151   0.854  17.107  0.3088  0.6297 -0.1405
 5086TIP3    H139453   0.066   0.822  17.138  0.5889  0.1864  0.1742
 5086TIP3    H239454   0.160   0.940  17.147  0.0882  0.6011 -0.0269
 5087TIP3   OH239455   6.333   4.510  18.637  0.1439  0.1198 -0.0716
 5087TIP3    H139456   6.264   4.495  18.701  0.9591 -0.6566  0.6580
 5087TIP3    H239457   6.357   4.602  18.648 -0.3204  0.2140  0.1374
 5088TIP3   OH239458   1.351   5.955  18.192 -0.1133  0.5200 -0.4987
 5088TIP3    H139459   1.349   5.935  18.099  1.5130  1.0761 -0.6844
 5088TIP3    H239460   1.436   5.922  18.222 -1.1578 -0.8976  1.1091
 5089TIP3   OH239461   0.886   3.734  19.492 -0.2301  0.5297 -0.0174
 5089TIP3    H139462   0.821   3.668  19.467 -0.5916  0.2359  1.6117
 5089TIP3    H239463   0.903   3.783  19.411 -1.0445 -0.6183 -0.9053
 5090TIP3   OH239464   6.505   3.616  17.808 -0.3161 -0.0173  0.0209
 5090TIP3    H139465   6.549   3.694  17.774  0.2812 -0.3826 -0.0670
 5090TIP3    H239466   6.423   3.611  17.758  0.6449 -0.6823 -1.5880
 5091TIP3   OH239467   0.199   2.596  19.384  0.4674 -0.3168 -0.6714
 5091TIP3    H139468   0.157   2.622  19.466  0.4234 -0.2171 -0.7266
 5091TIP3    H239469   0.209   2.501  19.392 -0.9777 -0.5400 -1.2126
 5092TIP3   OH239470   6.286   1.506  19.192  0.1185 -0.5917  0.4543
 5092TIP3    H139471   6.347   1.435  19.210  0.7424 -0.2640 -0.2663
 5092TIP3    H239472   6.199   1.467  19.200  0.4041 -0.9785  1.8828
 5093TIP3   OH239473   1.148   4.857  17.963 -0.1023  0.0371  0.2410
 5093TIP3    H139474   1.165   4.793  17.894 -0.4087  1.1337 -0.9013
 5093TIP3    H239475   1.198   4.935  17.937 -0.3252  0.5146  1.1872
 5094TIP3   OH239476   2.457   1.236  18.993  0.0849 -0.3624  0.4453
 5094TIP3    H139477   2.381   1.203  18.944 -0.0375 -0.1428  0.4872
 5094TIP3    H239478   2.532   1.209  18.941 -0.0847  0.8909 -0.4930
 5095TIP3   OH239479   1.108   6.201  19.848  0.0017  0.1754 -0.3777
 5095TIP3    H139480   1.023   6.183  19.807 -0.9264  0.6417  1.2421
 5095TIP3    H239481   1.086   6.257  19.923  1.8764  1.2649 -0.5933
 5096TIP3   OH239482   0.564   3.758  20.387 -0.1839  0.2253  0.0523
 5096TIP3    H139483   0.519   3.767  20.303 -1.4953  0.1261  0.7316
 5096TIP3    H239484   0.657   3.767  20.364 -0.3512 -1.6347 -1.6790
 5097TIP3   OH239485   4.741   4.155  17.565 -0.3360 -0.2861 -0.0576
 5097TIP3    H139486   4.807   4.183  17.502  0.4334 -2.2640 -0.1909
 5097TIP3    H239487   4.658   4.160  17.517  0.1804 -1.2721 -1.0996
 5098TIP3   OH239488   4.169   5.917  19.161  0.2597 -0.1255 -0.6241
 5098TIP3    H139489   4.128   5.966  19.232  0.8214 -1.1274  0.4125
 5098TIP3    H239490   4.096   5.893  19.104 -0.2396  0.4036 -0.2239
 5099TIP3   OH239491   3.780   3.360  20.532  0.2655 -0.2635  0.1037
 5099TIP3    H139492   3.768   3.403  20.447 -0.5844  0.2539  0.4808
 5099TIP3    H239493   3.725   3.283  20.528  0.3232 -0.3071  0.1451
 5100TIP3   OH239494   3.675   3.533  19.978  0.0636 -0.1960  0.2356
 5100TIP3    H139495   3.599   3.535  19.920  0.9680  0.6965 -1.0020
 5100TIP3    H239496   3.748   3.508  19.921  0.8696 -0.0410  1.1627
 5101TIP3   OH239497   3.303   3.115  18.691 -0.1527  0.5052 -0.2521
 5101TIP3    H139498   3.305   3.135  18.598 -1.4456  0.5302 -0.2984
 5101TIP3    H239499   3.227   3.058  18.702 -0.0446  0.5306  0.7900
 5102TIP3   OH239500   5.789   5.874  18.228  0.4919 -0.0644 -0.5960
 5102TIP3    H139501   5.714   5.819  18.209  0.7237 -0.8101  0.5090
 5102TIP3    H239502   5.860   5.812  18.246  0.7696  0.5678  0.6441
 5103TIP3   OH239503   2.793   2.844  18.554  0.3247  0.1919 -0.7842
 5103TIP3    H139504   2.819   2.766  18.503  1.0955  0.3692 -0.6833
 5103TIP3    H239505   2.764   2.907  18.488  2.5434  0.8973 -1.1836
 5104TIP3   OH239506   1.989   0.205  20.638  0.5233 -0.1323 -0.6466
 5104TIP3    H139507   2.018   0.116  20.659 -1.7368 -1.1567 -1.5793
 5104TIP3    H239508   1.911   0.218  20.692  0.3888  0.9916 -1.0875
 5105TIP3   OH239509   3.758   2.177  18.193 -0.1467  0.4316  0.2264
 5105TIP3    H139510   3.746   2.115  18.122  0.9919  1.5884 -1.0449
 5105TIP3    H239511   3.852   2.177  18.209 -0.1270  1.7715  0.2274
 5106TIP3   OH239512   6.390   5.740  19.123 -0.1138 -0.5176 -0.1833
 5106TIP3    H139513   6.366   5.662  19.173  0.9982  0.5790  2.1933
 5106TIP3    H239514   6.308   5.768  19.081 -1.2294 -1.2465  1.4158
 5107TIP3   OH239515   0.940   0.392  17.724 -0.0525  0.2221 -0.1468
 5107TIP3    H139516   0.902   0.338  17.655 -2.3943  0.1111  1.1367
 5107TIP3    H239517   0.989   0.330  17.778 -0.1871 -0.0914 -0.3785
 5108TIP3   OH239518   1.317   3.261  17.905  0.3046 -0.6392 -0.1706
 5108TIP3    H139519   1.367   3.341  17.922 -1.5756  0.5953 -0.2011
 5108TIP3    H239520   1.369   3.213  17.841  1.6323  0.3809  0.1004
 5109TIP3   OH239521   5.995   3.317  19.534  0.0380 -0.1014  0.3399
 5109TIP3    H139522   5.925   3.302  19.470  0.4426 -1.7981  0.2577
 5109TIP3    H239523   6.024   3.406  19.517  0.1072 -0.4894 -1.8382
 5110TIP3   OH239524   1.689   0.481  18.483 -0.4064 -0.4700 -0.3391
 5110TIP3    H139525   1.689   0.406  18.424  0.3939 -0.4443 -0.3746
 5110TIP3    H239526   1.778   0.485  18.517 -0.8949 -0.6254  1.0489
 5111TIP3   OH239527   5.223   1.553  19.289  0.0917  0.2763  0.1726
 5111TIP3    H139528   5.287   1.599  19.343  0.2055  0.0043  0.2674
 5111TIP3    H239529   5.152   1.529  19.349  1.2988 -2.1593  0.7341
 5112TIP3   OH239530   3.498   2.805  19.947 -0.7586 -0.3710 -0.2061
 5112TIP3    H139531   3.497   2.808  19.851  0.2580 -2.0865 -0.3152
 5112TIP3    H239532   3.514   2.713  19.968  1.1409  0.2904  1.5786
 5113TIP3   OH239533   0.791   5.178  19.178  0.4997 -0.0445 -0.6484
 5113TIP3    H139534   0.799   5.271  19.197 -0.3338 -0.1211  0.1571
 5113TIP3    H239535   0.830   5.168  19.092  1.0273  0.9679 -0.5439
 5114TIP3   OH239536   2.204   0.466  18.948 -0.3203  0.0209 -0.4264
 5114TIP3    H139537   2.231   0.389  18.999  0.1877  1.4328  1.5774
 5114TIP3    H239538   2.277   0.482  18.888  0.5998  0.2100  0.7020
 5115TIP3   OH239539   3.306   6.670  17.565 -0.3184 -0.6008 -0.0475
 5115TIP3    H139540   3.362   6.747  17.575 -0.8234 -0.1510 -0.6029
 5115TIP3    H239541   3.240   6.679  17.633 -0.4244 -0.4959 -0.1626
 5116TIP3   OH239542   1.362   4.980  17.809  0.8575  0.2036 -0.2880
 5116TIP3    H139543   1.394   4.893  17.832  0.1958  0.0901  0.2249
 5116TIP3    H239544   1.319   4.968  17.725  1.2419  0.1442 -0.4772
 5117TIP3   OH239545   0.019   3.633  20.108 -0.1966 -0.0170 -0.4645
 5117TIP3    H139546   0.084   3.678  20.161  1.4639  0.8492 -3.0325
 5117TIP3    H239547   0.005   3.550  20.152  1.5547  0.3859  0.9667
 5118TIP3   OH239548   3.654   5.742  19.908 -0.2817  0.1315 -0.2589
 5118TIP3    H139549   3.692   5.825  19.939  0.5603  0.6898 -2.4957
 5118TIP3    H239550   3.567   5.739  19.947  0.7103  0.6154  2.1750
 5119TIP3   OH239551   3.360   3.077  19.761  0.7427 -0.0565  0.6730
 5119TIP3    H139552   3.279   3.128  19.768 -0.7210 -1.8577 -1.3589
 5119TIP3    H239553   3.351   3.010  19.829  0.0239 -0.7918 -0.1109
 5120TIP3   OH239554   0.767   1.926  18.819 -0.2023 -0.5009  0.3904
 5120TIP3    H139555   0.711   2.000  18.843  0.1205 -0.2438  0.3663
 5120TIP3    H239556   0.794   1.944  18.729 -0.3249 -0.7751  0.2992
 5121TIP3   OH239557   6.178   4.834  18.415  0.1937 -0.4614  0.0671
 5121TIP3    H139558   6.126   4.909  18.388 -0.7103 -1.1399 -0.1461
 5121TIP3    H239559   6.146   4.812  18.502  1.1866  0.0311  0.5736
 5122TIP3   OH239560   6.247   2.873  18.801  0.4819 -0.2244  0.5308
 5122TIP3    H139561   6.158   2.897  18.777  0.7176  0.9373  0.7710
 5122TIP3    H239562   6.240   2.835  18.889  0.2153 -0.1735  0.5299
 5123TIP3   OH239563   3.063   1.754  18.558 -0.2761  0.0981 -0.0687
 5123TIP3    H139564   3.120   1.720  18.489 -1.1292  0.4401 -0.9762
 5123TIP3    H239565   3.030   1.676  18.602  2.4165 -0.0854  1.8190
 5124TIP3   OH239566   5.750   3.837  17.371  0.0998 -0.1320 -0.3761
 5124TIP3    H139567   5.744   3.773  17.300  1.2112 -1.7711  0.9514
 5124TIP3    H239568   5.844   3.852  17.381 -0.1073  0.9393  0.0264
 5125TIP3   OH239569   4.032   5.656  20.233  0.9473  0.1370  0.1830
 5125TIP3    H139570   4.025   5.658  20.138 -0.0634 -0.3262  0.2444
 5125TIP3    H239571   3.942   5.658  20.265  1.2642  2.5385  1.1876
 5126TIP3   OH239572   1.233   1.538  18.991  0.0326  0.1380  0.2299
 5126TIP3    H139573   1.222   1.579  18.905  0.1281  0.5086  0.3905
 5126TIP3    H239574   1.223   1.445  18.974 -2.3715  0.3453  0.2039
 5127TIP3   OH239575   1.778   6.279  20.753  0.4122  0.3511 -0.0161
 5127TIP3    H139576   1.847   6.225  20.793  0.7338  1.4117  0.9353
 5127TIP3    H239577   1.826   6.351  20.712 -0.0764  0.5000 -0.3306
 5128TIP3   OH239578   5.457   3.373  18.771 -0.0489 -0.0264  0.1143
 5128TIP3    H139579   5.388   3.400  18.832 -0.1927 -0.5959  0.2020
 5128TIP3    H239580   5.518   3.447  18.770  0.7193 -0.5693  2.0668
 5129TIP3   OH239581   6.129   3.629  19.615  0.1643 -0.9884  0.2488
 5129TIP3    H139582   6.217   3.598  19.595 -0.1170 -2.1334  0.6645
 5129TIP3    H239583   6.109   3.692  19.547  0.9500 -1.4195 -0.3983
 5130TIP3   OH239584   0.806   5.370  18.060  0.2356  0.4680  0.3491
 5130TIP3    H139585   0.823   5.378  18.153  0.4931 -0.2576  0.3732
 5130TIP3    H239586   0.711   5.366  18.052  0.2394 -0.3651  0.6645
 5131TIP3   OH239587   2.959   1.162  20.311  0.2535  0.5911 -0.2915
 5131TIP3    H139588   2.890   1.107  20.350  2.0687 -0.0718  2.2526
 5131TIP3    H239589   2.936   1.251  20.338 -0.4292  0.5793 -0.8081
 5132TIP3   OH239590   2.927   0.965  19.166  0.7150 -0.6680 -0.5801
 5132TIP3    H139591   2.842   0.937  19.134  0.5317 -1.0034  0.1836
 5132TIP3    H239592   2.951   0.900  19.232  0.2377  0.9729  1.2982
 5133TIP3   OH239593   0.298   2.519  19.686 -0.1238 -0.2233 -0.4664
 5133TIP3    H139594   0.203   2.524  19.680 -0.0662  0.8923 -0.5042
 5133TIP3    H239595   0.325   2.478  19.603 -0.5376 -0.1221 -0.6539
 5134TIP3   OH239596   5.672   0.602  19.567  0.0236 -0.3228  0.0681
 5134TIP3    H139597   5.602   0.537  19.572 -1.0550  0.8507  0.7391
 5134TIP3    H239598   5.653   0.652  19.487  1.2063 -1.1870 -0.7929
 5135TIP3   OH239599   0.320   5.856  20.215 -0.4163 -0.3280 -0.7116
 5135TIP3    H139600   0.298   5.949  20.213  0.6760  0.0924  2.1285
 5135TIP3    H239601   0.332   5.832  20.123  1.6236  2.9521 -1.4638
 5136TIP3   OH239602   6.420   6.690  20.350 -0.4019  1.0738  1.0872
 5136TIP3    H139603   6.481   6.629  20.390  1.0943  1.8951  0.1237
 5136TIP3    H239604   6.475   6.754  20.305 -1.9718  1.4038 -0.4813
 5137TIP3   OH239605   1.976   0.365  19.264 -0.1478 -0.2036  0.0802
 5137TIP3    H139606   2.042   0.429  19.236  0.3984 -0.1455  1.4308
 5137TIP3    H239607   2.002   0.342  19.353  0.9528 -3.9630 -1.0303
 5138TIP3   OH239608   4.901   2.379  19.753  0.1556 -0.5490  0.1662
 5138TIP3    H139609   4.879   2.341  19.838  0.4771 -1.5061 -0.1552
 5138TIP3    H239610   4.902   2.304  19.694  1.0273 -0.0619 -0.4590
 5139TIP3   OH239611   0.543   1.341  18.123  0.1098  0.3373 -0.5431
 5139TIP3    H139612   0.531   1.394  18.202 -1.7138 -0.0274 -0.5326
 5139TIP3    H239613   0.469   1.363  18.067  1.8977  1.3706 -2.6754
 5140TIP3   OH239614   3.804   4.518  20.528  0.0253  0.2242  0.3886
 5140TIP3    H139615   3.781   4.438  20.481  0.8279  0.1581  0.1052
 5140TIP3    H239616   3.736   4.580  20.504  0.0852  0.0040 -0.3732
 5141TIP3   OH239617   1.481   1.756  18.673 -0.0455  0.4323  0.5081
 5141TIP3    H139618   1.495   1.850  18.661  0.5508  0.1580 -1.2443
 5141TIP3    H239619   1.509   1.740  18.763 -0.6623  2.0030  1.0266
 5142TIP3   OH239620   3.936   2.500  18.092 -0.7551 -0.3139  0.3911
 5142TIP3    H139621   3.986   2.423  18.119 -1.6267 -1.5348 -1.2919
 5142TIP3    H239622   3.967   2.570  18.149  0.4493 -1.7834  1.6195
 5143TIP3   OH239623   3.173   5.082  18.219 -0.1707  0.1011  0.3934
 5143TIP3    H139624   3.196   5.038  18.137 -0.4143 -1.0095  0.8910
 5143TIP3    H239625   3.100   5.030  18.254 -1.6743  1.9667  0.1615
 5144TIP3   OH239626   6.066   4.850  20.075  0.0845  0.2897  0.4790
 5144TIP3    H139627   5.976   4.817  20.066  0.0111  0.3377  0.9950
 5144TIP3    H239628   6.068   4.888  20.162  0.5870  0.3656  0.4342
 5145TIP3   OH239629   3.745   0.019  19.804 -0.1701  0.0124 -0.0327
 5145TIP3    H139630   3.757   0.114  19.816 -0.1324  0.1166 -0.8195
 5145TIP3    H239631   3.672   0.013  19.741  0.2834 -0.4608 -0.5179
 5146TIP3   OH239632   2.139   2.948  18.791 -0.1043  0.2561 -0.1622
 5146TIP3    H139633   2.143   3.030  18.840 -0.0451  0.4916 -0.5599
 5146TIP3    H239634   2.115   2.974  18.702 -1.1509 -0.2514 -0.0467
 5147TIP3   OH239635   5.585   6.275  18.305  0.0456  0.9197 -0.4015
 5147TIP3    H139636   5.647   6.215  18.262  0.5188  0.1615  1.2582
 5147TIP3    H239637   5.640   6.338  18.350 -0.4255  1.3085 -0.3656
 5148TIP3   OH239638   2.810   5.126  20.045 -0.1819  0.8467 -0.1704
 5148TIP3    H139639   2.794   5.219  20.062 -0.7010  0.3405  2.5439
 5148TIP3    H239640   2.731   5.096  20.000 -0.5597  1.4767  0.0563
 5149TIP3   OH239641   3.494   6.028  18.188  0.7475  0.0682  0.5550
 5149TIP3    H139642   3.486   6.061  18.099 -1.1781  1.9450  1.3558
 5149TIP3    H239643   3.536   6.098  18.237 -1.9278  0.8501  1.9383
 5150TIP3   OH239644   3.673   5.207  17.872  0.1923 -0.8639 -0.0756
 5150TIP3    H139645   3.703   5.253  17.793  0.3018 -0.5997  0.1157
 5150TIP3    H239646   3.684   5.272  17.942  1.8259 -1.6846  0.4776
 5151TIP3   OH239647   6.669   5.488  18.308 -0.2140 -0.1128  0.0195
 5151TIP3    H139648   6.742   5.526  18.258 -2.0585  1.6353 -1.4828
 5151TIP3    H239649   6.705   5.475  18.396  2.1156 -0.0190 -0.8235
 5152TIP3   OH239650   0.637   0.662  20.187  0.3954 -0.7172 -0.5394
 5152TIP3    H139651   0.595   0.732  20.137  0.5671  0.1797  0.5273
 5152TIP3    H239652   0.719   0.700  20.218  0.4081 -1.3292  0.2122
 5153TIP3   OH239653   1.518   3.768  18.190  0.5127  1.0213  0.0730
 5153TIP3    H139654   1.519   3.845  18.248 -0.2380  0.1839  1.2661
 5153TIP3    H239655   1.554   3.698  18.244  0.9287  0.4694 -0.9102
 5154TIP3   OH239656   1.902   3.866  18.667  0.3162  0.8418 -0.5961
 5154TIP3    H139657   1.814   3.877  18.702 -0.1296  0.8738 -1.6901
 5154TIP3    H239658   1.900   3.911  18.583  1.3314  0.6923 -0.7160
 5155TIP3   OH239659   5.302   2.589  20.316  0.3016  0.1927 -0.5352
 5155TIP3    H139660   5.262   2.505  20.340 -1.4754  0.8596 -0.9526
 5155TIP3    H239661   5.348   2.571  20.234  0.3783 -0.4948 -0.3494
 5156TIP3   OH239662   1.515   1.143  20.196 -0.1595 -0.1187  0.0983
 5156TIP3    H139663   1.446   1.203  20.226  0.5097  0.9326 -0.4165
 5156TIP3    H239664   1.581   1.147  20.265 -0.1767 -0.3769  0.1300
 5157TIP3   OH239665   6.073   5.231  18.654 -0.5778  0.4018 -0.0217
 5157TIP3    H139666   6.048   5.268  18.570  0.2195  0.0146 -0.4377
 5157TIP3    H239667   6.063   5.303  18.716 -1.8826  0.4895 -0.3057
 5158TIP3   OH239668   2.641   6.109  20.052 -0.5530  0.4291  0.1732
 5158TIP3    H139669   2.576   6.109  20.122  1.1482 -1.6159  1.8707
 5158TIP3    H239670   2.725   6.118  20.096  0.5481 -0.2447 -1.6719
 5159TIP3   OH239671   3.319   2.207  19.717 -0.3826  0.5322  0.1904
 5159TIP3    H139672   3.311   2.135  19.779  0.4575  1.6270  1.6209
 5159TIP3    H239673   3.399   2.187  19.668 -0.6876  0.0080 -0.1089
 5160TIP3   OH239674   4.635   4.336  20.876 -0.1655 -0.4885 -0.2256
 5160TIP3    H139675   4.667   4.354  20.965 -0.6303 -1.4750  0.1514
 5160TIP3    H239676   4.685   4.260  20.847  0.7862  0.4739 -1.2751
 5161TIP3   OH239677   0.399   3.166  19.179 -0.4660  0.6107  0.4727
 5161TIP3    H139678   0.493   3.157  19.190  0.0071  2.8771 -0.9933
 5161TIP3    H239679   0.371   3.218  19.254 -0.1640  1.5714 -0.0499
 5162TIP3   OH239680   2.808   3.406  20.574 -0.0963 -0.4378 -0.0136
 5162TIP3    H139681   2.852   3.479  20.617 -0.5864 -1.4837  2.4072
 5162TIP3    H239682   2.721   3.441  20.552  0.1349  0.0917 -0.1102
 5163TIP3   OH239683   5.059   3.256  18.881  0.2126  0.4520  0.2698
 5163TIP3    H139684   5.058   3.183  18.943 -0.0498  1.2368  1.2253
 5163TIP3    H239685   5.010   3.224  18.805  1.1408 -0.7768  0.1523
 5164TIP3   OH239686   0.929   2.724  19.960  0.0483 -0.2990 -0.5944
 5164TIP3    H139687   1.010   2.755  20.000  0.0894  0.5614 -1.3239
 5164TIP3    H239688   0.957   2.656  19.899  0.0097 -1.4268  0.6070
 5165TIP3   OH239689   3.173   1.727  19.206 -0.2285  0.2004  0.3969
 5165TIP3    H139690   3.191   1.698  19.296  1.0790 -0.7899 -0.1528
 5165TIP3    H239691   3.135   1.650  19.164 -2.3246  1.1223  0.4782
 5166TIP3   OH239692   4.845   2.411  20.506  0.0034  0.5021  0.1062
 5166TIP3    H139693   4.846   2.493  20.556 -0.3286  0.0416  0.8734
 5166TIP3    H239694   4.752   2.394  20.490  0.0246 -0.1634  0.6731
 5167TIP3   OH239695   3.807   5.168  20.527 -0.0535 -0.3759  0.1358
 5167TIP3    H139696   3.859   5.089  20.510 -0.8938 -0.7799 -0.6026
 5167TIP3    H239697   3.858   5.239  20.489  0.0251 -0.7537 -0.4663
 5168TIP3   OH239698   0.917   5.507  18.713 -0.3744  0.3458 -0.2635
 5168TIP3    H139699   0.892   5.533  18.802  0.4892 -1.3315  0.5128
 5168TIP3    H239700   0.897   5.414  18.708 -3.0687  0.9237 -2.8493
 5169TIP3   OH239701   4.489   4.797  18.238 -0.1994  0.3250  0.4664
 5169TIP3    H139702   4.497   4.878  18.187  0.9799 -0.5016 -0.7165
 5169TIP3    H239703   4.457   4.826  18.323 -0.6902  1.9295 -0.2282
 5170TIP3   OH239704   0.270   4.869  19.213 -0.3705 -0.3656  0.0491
 5170TIP3    H139705   0.307   4.795  19.261 -2.7688 -2.3312 -0.8940
 5170TIP3    H239706   0.314   4.946  19.249  2.1881 -2.1944  1.1522
 5171TIP3   OH239707   3.351   3.183  18.388 -0.4654 -0.4274  0.2681
 5171TIP3    H139708   3.387   3.260  18.344 -0.5776 -0.7628 -0.4221
 5171TIP3    H239709   3.257   3.186  18.369 -0.3602 -1.1619 -0.4595
 5172TIP3   OH239710   4.219   1.351  20.624  0.3765 -0.0584 -0.1776
 5172TIP3    H139711   4.265   1.267  20.632  0.5518  0.1980  1.9886
 5172TIP3    H239712   4.251   1.403  20.697 -1.7577  0.9078  0.1367
 5173TIP3   OH239713   5.371   5.168  18.440 -0.6029  0.4254  0.0027
 5173TIP3    H139714   5.309   5.111  18.394  0.1110 -0.3649 -0.0156
 5173TIP3    H239715   5.369   5.250  18.391 -0.0726 -0.3049 -1.2948
 5174TIP3   OH239716   1.907   3.032  19.086 -0.0291 -0.0130  0.0985
 5174TIP3    H139717   1.998   3.058  19.074  0.0356 -0.0541  0.5032
 5174TIP3    H239718   1.856   3.105  19.051  0.1351 -1.0964 -2.6655
 5175TIP3   OH239719   5.001   0.891  19.610  0.2462 -0.4625 -0.0477
 5175TIP3    H139720   5.087   0.908  19.571  1.3527  0.4637  2.5988
 5175TIP3    H239721   4.945   0.959  19.572  1.2685  0.4230 -0.0604
 5176TIP3   OH239722   0.519   5.215  18.946  0.8137  0.2207  0.0568
 5176TIP3    H139723   0.567   5.157  19.006  0.8939  1.9808  1.7939
 5176TIP3    H239724   0.535   5.303  18.980 -2.0588  1.0338 -0.4142
 5177TIP3   OH239725   3.011   3.921  20.584 -0.3563 -0.2320  0.3681
 5177TIP3    H139726   3.023   3.871  20.503  0.4875  0.3042  0.1543
 5177TIP3    H239727   3.008   3.855  20.653 -0.5043 -0.6556 -0.0399
 5178TIP3   OH239728   0.743   2.944  19.998 -0.1383 -0.5464 -0.0132
 5178TIP3    H139729   0.816   2.892  20.032  0.7605  2.3274  2.9950
 5178TIP3    H239730   0.668   2.918  20.052 -0.0970 -0.0376  0.3025
 5179TIP3   OH239731   0.335   1.650  19.324  0.0415  0.1373 -0.1323
 5179TIP3    H139732   0.297   1.563  19.311  0.0636  0.2287 -0.8311
 5179TIP3    H239733   0.260   1.709  19.324  0.1686  0.3276 -1.5975
 5180TIP3   OH239734   1.473   0.430  18.931  0.3253  0.3950 -0.0332
 5180TIP3    H139735   1.473   0.336  18.951 -0.6423  0.6219  1.1849
 5180TIP3    H239736   1.512   0.436  18.844  1.5396 -1.0216  0.3554
 5181TIP3   OH239737   3.530   1.747  20.839 -0.1827  0.1136  0.2326
 5181TIP3    H139738   3.621   1.730  20.816 -0.6677 -1.2315 -0.8910
 5181TIP3    H239739   3.490   1.660  20.843 -1.6176  0.7168 -0.1973
 5182TIP3   OH239740   0.849   0.783  19.967  0.9844 -0.2210  0.4289
 5182TIP3    H139741   0.892   0.764  19.884 -1.0086 -2.7723 -0.1569
 5182TIP3    H239742   0.767   0.826  19.943  1.3598  1.0359  1.2725
 5183TIP3   OH239743   5.507   1.167  18.626 -0.8502 -0.2246  0.0010
 5183TIP3    H139744   5.440   1.189  18.690 -0.9894 -0.3530 -0.0989
 5183TIP3    H239745   5.587   1.154  18.677 -1.0522 -0.7204  0.1854
 5184TIP3   OH239746   1.327   5.907  20.360  0.3255  0.4174  0.8225
 5184TIP3    H139747   1.284   5.847  20.300  0.4856 -0.0145  1.1337
 5184TIP3    H239748   1.258   5.936  20.420  0.5590 -0.7227  1.6822
 5185TIP3   OH239749   2.790   5.983  18.663  0.0093 -0.0352 -0.2710
 5185TIP3    H139750   2.748   5.901  18.692  0.3351  0.5579  2.0958
 5185TIP3    H239751   2.878   5.957  18.636 -0.7604 -0.8171 -2.2450
 5186TIP3   OH239752   0.505   1.481  20.356  0.0976  0.1050 -0.4502
 5186TIP3    H139753   0.568   1.411  20.335  1.7809  0.3680  2.9598
 5186TIP3    H239754   0.445   1.482  20.282  1.8660 -2.7907 -2.1392
 5187TIP3   OH239755   3.222   2.644  20.013 -0.0613  0.2003 -0.1305
 5187TIP3    H139756   3.233   2.654  20.108 -1.0153 -0.0411  0.0122
 5187TIP3    H239757   3.308   2.615  19.983  0.5616  1.2979  0.5069
 5188TIP3   OH239758   0.826   6.668  19.406  0.3216 -0.0843  0.1125
 5188TIP3    H139759   0.875   6.721  19.469 -0.0147  1.1909 -0.6552
 5188TIP3    H239760   0.780   6.603  19.459  3.1308 -1.6373  0.8287
 5189TIP3   OH239761   3.084   4.659  18.183 -0.3002 -0.1538  0.2827
 5189TIP3    H139762   3.067   4.578  18.231  0.4961 -0.4610  0.0606
 5189TIP3    H239763   2.997   4.694  18.162 -0.6456 -0.7920  0.6422
 5190TIP3   OH239764   0.273   5.014  17.859  0.7733 -0.0620  0.6140
 5190TIP3    H139765   0.343   5.075  17.883  0.1511  1.0380 -0.2894
 5190TIP3    H239766   0.314   4.955  17.796  0.8946  0.5717  0.0924
 5191TIP3   OH239767   3.810   2.894  20.447 -0.3521  0.1627 -0.8968
 5191TIP3    H139768   3.794   2.800  20.452 -1.1812  0.3411  0.1585
 5191TIP3    H239769   3.892   2.907  20.494 -1.9193  0.3196  2.0480
 5192TIP3   OH239770   2.853   0.204  19.086 -0.1980 -0.1664  0.7576
 5192TIP3    H139771   2.889   0.232  19.170  0.1469  2.6855 -0.2161
 5192TIP3    H239772   2.776   0.259  19.073  0.9177  1.0093 -1.6465
 5193TIP3   OH239773   2.708   3.799  19.459 -0.5397 -0.0270  0.1566
 5193TIP3    H139774   2.785   3.812  19.404 -2.0412  3.5208 -1.4659
 5193TIP3    H239775   2.737   3.739  19.528  3.2999  0.2837 -0.9593
 5194TIP3   OH239776   5.430   4.834  19.642 -0.1347 -0.1751  0.4850
 5194TIP3    H139777   5.428   4.813  19.549  1.5030  0.5256  0.2534
 5194TIP3    H239778   5.388   4.759  19.684 -1.1313 -0.3891 -0.8223
 5195TIP3   OH239779   2.380   5.385  18.988  0.2028 -0.5606  0.5185
 5195TIP3    H139780   2.424   5.316  19.037 -0.1159 -0.6412  0.6932
 5195TIP3    H239781   2.425   5.466  19.013 -0.1586 -0.5578  1.1945
 5196TIP3   OH239782   4.382   5.862  20.433  0.4589  0.1372 -0.2573
 5196TIP3    H139783   4.310   5.824  20.482  1.6239  1.2507  2.4921
 5196TIP3    H239784   4.454   5.800  20.443  0.6528  0.2632 -0.8018
 5197TIP3   OH239785   1.413   4.645  17.616 -0.2035 -0.4015 -0.5956
 5197TIP3    H139786   1.424   4.698  17.538  2.9267  1.0171  0.6558
 5197TIP3    H239787   1.444   4.558  17.591  1.0214  0.1087 -0.8995
 5198TIP3   OH239788   6.542   2.190  18.350 -0.5438 -0.3076  0.5337
 5198TIP3    H139789   6.538   2.096  18.368 -0.2172  0.0669  2.9178
 5198TIP3    H239790   6.622   2.202  18.300 -0.2071 -1.2170  0.8374
 5199TIP3   OH239791   1.353   4.794  17.014 -0.3403  0.7809 -0.7172
 5199TIP3    H139792   1.446   4.788  17.037 -0.2008  0.3272 -1.3472
 5199TIP3    H239793   1.330   4.705  16.987 -1.4881  0.3939  1.3353
 5200TIP3   OH239794   6.473   5.497  18.127 -0.1888 -0.1410 -0.3008
 5200TIP3    H139795   6.474   5.408  18.094 -0.9921 -0.2051 -0.1899
 5200TIP3    H239796   6.524   5.494  18.208  1.5357 -0.0425 -1.3457
 5201TIP3   OH239797   1.920   4.354  18.716 -0.0864 -0.1977 -0.2035
 5201TIP3    H139798   2.015   4.341  18.723 -0.4226 -2.6522  0.9854
 5201TIP3    H239799   1.907   4.382  18.626  1.5663 -2.6773 -1.3350
 5202TIP3   OH239800   4.362   3.270  18.564  0.1081 -0.3470  0.3866
 5202TIP3    H139801   4.400   3.328  18.629 -0.2265 -2.2617  2.4279
 5202TIP3    H239802   4.282   3.315  18.535  0.8977  1.0889  0.3519
 5203TIP3   OH239803   1.679   5.664  20.537  0.2995 -0.1662  0.5290
 5203TIP3    H139804   1.740   5.716  20.589  1.3123 -0.1291 -0.6379
 5203TIP3    H239805   1.645   5.725  20.471  2.1974 -1.0870 -1.4444
 5204TIP3   OH239806   6.693   1.811  18.765  0.5217 -0.5963  0.3789
 5204TIP3    H139807   6.608   1.795  18.806  1.0040  0.9983  2.1899
 5204TIP3    H239808   6.682   1.894  18.718  1.0685 -0.3130  0.7249
 5205TIP3   OH239809   4.576   2.970  18.883  0.0013 -0.2483 -0.2739
 5205TIP3    H139810   4.512   2.994  18.817  0.6823 -0.9442 -1.2183
 5205TIP3    H239811   4.654   3.019  18.860  0.1889 -0.3558  0.1289
 5206TIP3   OH239812   1.391   4.886  19.055 -0.4458  0.4919 -0.0990
 5206TIP3    H139813   1.373   4.829  19.130  3.0504 -0.8968 -0.1447
 5206TIP3    H239814   1.405   4.827  18.982 -0.5880  1.6453 -1.0934
 5207TIP3   OH239815   3.085   2.709  20.890  0.1933 -0.5305 -0.1170
 5207TIP3    H139816   3.010   2.708  20.949  0.1217 -1.6424 -0.1980
 5207TIP3    H239817   3.102   2.801  20.873  1.0135 -0.0946  2.6592
 5208TIP3   OH239818   2.856   4.201  17.861  0.1726 -0.1781 -0.6399
 5208TIP3    H139819   2.761   4.210  17.868  0.1891 -0.3616 -0.1597
 5208TIP3    H239820   2.877   4.234  17.773 -0.2794  0.2853 -0.5781
 5209TIP3   OH239821   6.110   1.766  19.377  0.1767 -0.4543 -0.4420
 5209TIP3    H139822   6.146   1.778  19.289 -0.5814 -0.2628 -0.7283
 5209TIP3    H239823   6.016   1.754  19.363  0.2638 -2.0906  0.1981
 5210TIP3   OH239824   4.038   3.978  20.061 -0.3135  0.1472  0.3740
 5210TIP3    H139825   4.111   3.924  20.090  0.3918  0.5332 -0.6506
 5210TIP3    H239826   3.984   3.920  20.007 -0.4622  0.0214  0.6552
 5211TIP3   OH239827   4.908   4.949  18.268 -0.4419 -0.1685  0.4604
 5211TIP3    H139828   4.861   4.866  18.254  0.1622 -0.6245  1.0727
 5211TIP3    H239829   4.903   4.964  18.362  1.5483 -0.7949  0.7108
 5212TIP3   OH239830   1.337   0.178  19.122 -0.3522 -0.2075  0.0250
 5212TIP3    H139831   1.355   0.251  19.181  0.8081 -0.4762  0.0351
 5212TIP3    H239832   1.375   0.102  19.165  0.0165 -0.5098 -0.8016
 5213TIP3   OH239833   1.763   0.315  19.073 -0.3007 -0.1190  0.3297
 5213TIP3    H139834   1.845   0.333  19.120  0.4808 -0.3100 -0.9174
 5213TIP3    H239835   1.765   0.374  18.998 -1.1195 -0.4058  0.0746
 5214TIP3   OH239836   0.560   4.537  18.921 -0.7858  0.6694  0.2064
 5214TIP3    H139837   0.490   4.559  18.860  0.1720  1.5475 -0.6165
 5214TIP3    H239838   0.552   4.602  18.991 -0.1397  1.4463 -0.4324
 5215TIP3   OH239839   0.022   1.653  19.636  0.7969  0.1078  0.4509
 5215TIP3    H139840   0.045   1.566  19.604  0.0972 -0.2793  0.9854
 5215TIP3    H239841  -0.017   1.638  19.722  0.4854  0.9232  0.4610
 5216TIP3   OH239842   4.675   6.062  19.782 -0.3093  0.6309 -0.2673
 5216TIP3    H139843   4.646   6.143  19.823 -0.3026  0.9500 -0.8727
 5216TIP3    H239844   4.619   6.053  19.705 -1.7808 -1.0792  0.9126
 5217TIP3   OH239845   3.426   6.084  19.121 -0.1644  0.5449  0.1135
 5217TIP3    H139846   3.443   6.110  19.031 -0.4565  0.6649  0.0904
 5217TIP3    H239847   3.358   6.144  19.151  0.0450  0.6098  0.4660
 5218TIP3   OH239848   5.873   0.976  19.769  0.0970  0.0700  0.6460
 5218TIP3    H139849   5.908   0.962  19.681 -0.6616  0.2878  0.3061
 5218TIP3    H239850   5.816   0.901  19.784  0.3589 -0.0546  1.0205
 5219TIP3   OH239851   1.552   4.729  19.459  0.5047  0.7350 -0.0337
 5219TIP3    H139852   1.482   4.720  19.394 -0.3890 -0.8497  1.0697
 5219TIP3    H239853   1.572   4.823  19.460 -0.2837  0.9555 -1.7201
 5220TIP3   OH239854   2.805   2.922  20.299  0.5905 -0.3208 -0.2000
 5220TIP3    H139855   2.835   2.949  20.212  0.4456  2.8767  0.6197
 5220TIP3    H239856   2.712   2.903  20.289  1.1868 -3.1279 -1.2850
 5221TIP3   OH239857   1.913   4.371  18.443 -0.1642 -0.1817 -0.3689
 5221TIP3    H139858   1.976   4.302  18.421  0.2008 -0.3998  1.2162
 5221TIP3    H239859   1.941   4.447  18.391  0.5080 -0.7124 -0.8004
 5222TIP3   OH239860   3.309   2.675  18.317 -0.0756 -0.6938 -0.1150
 5222TIP3    H139861   3.309   2.580  18.320 -1.5075 -0.7118 -0.0626
 5222TIP3    H239862   3.352   2.697  18.234  0.1239 -1.3946 -0.1967
 5223TIP3   OH239863   3.014   5.295  19.894 -0.1041 -0.0865  0.1267
 5223TIP3    H139864   3.024   5.266  19.803 -2.0949  1.4346 -0.6713
 5223TIP3    H239865   2.919   5.295  19.908  0.1634 -0.5400  2.3421
 5224TIP3   OH239866   5.198   2.148  19.800  0.0431  0.0618 -0.5642
 5224TIP3    H139867   5.120   2.186  19.758 -1.8842 -0.0306  2.5989
 5224TIP3    H239868   5.182   2.054  19.798 -1.0969  0.1260  1.9274
 5225TIP3   OH239869   0.919   5.631  19.603  0.2925  0.1188  0.4573
 5225TIP3    H139870   0.939   5.645  19.511  1.6656  1.2432  0.8902
 5225TIP3    H239871   0.988   5.573  19.634  0.2007  0.2493  0.9147
 5226TIP3   OH239872   0.397   3.566  19.436 -0.0835  0.4642  1.0354
 5226TIP3    H139873   0.390   3.662  19.442  2.7410  0.7929  0.6026
 5226TIP3    H239874   0.418   3.538  19.525  0.5031  0.4551  0.9038
 5227TIP3   OH239875   0.642   1.280  19.111 -0.4762 -0.3727 -0.6210
 5227TIP3    H139876   0.711   1.289  19.045  0.4078  0.0154  0.3360
 5227TIP3    H239877   0.607   1.368  19.122 -0.7485 -0.4701 -0.6955
 5228TIP3   OH239878   5.853   5.324  17.784 -0.7462 -0.0188 -0.1352
 5228TIP3    H139879   5.808   5.408  17.790 -2.1949 -0.7810 -0.0082
 5228TIP3    H239880   5.793   5.262  17.823  0.5004 -1.0642  0.1903
 5229TIP3   OH239881   1.024   3.980  18.705  0.0519 -0.6044 -0.1277
 5229TIP3    H139882   0.957   4.023  18.758  1.7347  0.2833  1.4281
 5229TIP3    H239883   1.044   3.900  18.753 -1.7089 -2.2613 -2.0053
 5230TIP3   OH239884   5.509   1.833  19.880  0.5319 -0.1075  0.2519
 5230TIP3    H139885   5.490   1.863  19.791  2.3105 -0.6280 -0.3563
 5230TIP3    H239886   5.512   1.738  19.872 -0.4252 -0.2242  1.1393
 5231TIP3   OH239887   2.322   0.273  17.265 -0.5587  0.0883  0.1181
 5231TIP3    H139888   2.231   0.287  17.239 -0.5815 -1.3410 -0.7121
 5231TIP3    H239889   2.373   0.330  17.208 -0.6764 -2.2930 -2.6139
 5232TIP3   OH239890   6.273   3.624  18.332 -0.0212 -0.3970 -0.2523
 5232TIP3    H139891   6.178   3.627  18.336 -0.1470  2.9037 -2.2681
 5232TIP3    H239892   6.302   3.672  18.410 -0.0979  0.0226 -0.4764
 5233TIP3   OH239893   1.103   5.866  18.287 -0.3119 -0.1741  0.5068
 5233TIP3    H139894   1.194   5.882  18.263  0.2482 -0.3725  2.3588
 5233TIP3    H239895   1.073   5.950  18.324  0.1850 -0.9747  2.9124
 5234TIP3   OH239896   0.185   0.724  18.270  0.2651  0.1629 -0.0082
 5234TIP3    H139897   0.210   0.813  18.291 -0.6040  0.0860  1.4807
 5234TIP3    H239898   0.112   0.733  18.209  1.5698  0.4091 -1.6051
 5235TIP3   OH239899   6.572   3.464  18.651  0.0451 -0.2732  0.1464
 5235TIP3    H139900   6.512   3.394  18.674  0.5089 -0.8060 -0.2314
 5235TIP3    H239901   6.523   3.519  18.590 -0.5988  0.1985  1.0651
 5236TIP3   OH239902   6.157   1.713  18.820  0.4095 -0.2696  0.2011
 5236TIP3    H139903   6.155   1.798  18.776 -0.0662  0.5670  1.7705
 5236TIP3    H239904   6.219   1.726  18.892 -1.0159 -0.6755  1.5430
 5237TIP3   OH239905   1.406   6.183  20.924  0.1664 -0.0402  0.1099
 5237TIP3    H139906   1.386   6.144  20.839 -2.3769 -1.8950  1.4177
 5237TIP3    H239907   1.465   6.120  20.966  1.0441  0.6461 -0.0505
 5238TIP3   OH239908   6.562   6.483  20.086  0.1674  0.1579 -0.1894
 5238TIP3    H139909   6.504   6.409  20.104  0.4914  0.3051  1.5901
 5238TIP3    H239910   6.644   6.460  20.128  0.5392  1.1659 -0.3369
 5239TIP3   OH239911   2.768   4.630  18.072  0.0555  0.2113 -0.0842
 5239TIP3    H139912   2.716   4.679  18.135  1.1219  0.1384  0.8871
 5239TIP3    H239913   2.807   4.698  18.016  1.1358  0.4788  0.9505
 5240TIP3   OH239914   4.096   4.880  19.868 -0.0063  0.2692 -0.7750
 5240TIP3    H139915   4.177   4.874  19.918 -1.0452 -0.7172  0.8983
 5240TIP3    H239916   4.105   4.814  19.799 -0.4955 -1.9736  1.1853
 5241TIP3   OH239917   6.117   1.959  20.119  0.2235  0.2561 -0.3073
 5241TIP3    H139918   6.148   1.964  20.209 -1.7711  0.1849  0.4486
 5241TIP3    H239919   6.128   1.867  20.095  0.0269  0.1058  0.1615
 5242TIP3   OH239920   1.489   4.443  19.550 -0.7962 -0.6826  0.0659
 5242TIP3    H139921   1.428   4.458  19.478 -0.2316 -0.6317 -0.4021
 5242TIP3    H239922   1.561   4.503  19.534 -0.3051 -1.2153  0.2520
 5243TIP3   OH239923   0.573   2.321  19.667  0.0089 -0.0902 -0.1422
 5243TIP3    H139924   0.496   2.374  19.646  0.6111  0.5728 -0.7623
 5243TIP3    H239925   0.644   2.385  19.676  0.2306 -0.5627  1.7813
 5244TIP3   OH239926   3.622   3.954  18.307 -0.1758  0.3509 -0.0605
 5244TIP3    H139927   3.545   3.995  18.267 -0.2278  0.8261  0.5129
 5244TIP3    H239928   3.652   3.891  18.241  0.1037  1.5330 -1.0982
 5245TIP3   OH239929   0.586   5.558  19.309  0.2663  0.2857 -0.1265
 5245TIP3    H139930   0.611   5.649  19.293 -1.2279  0.7560  0.0144
 5245TIP3    H239931   0.545   5.559  19.395  0.1800 -0.5167 -0.1526
 5246TIP3   OH239932   3.322   3.860  20.159 -0.4911  0.2698 -0.0589
 5246TIP3    H139933   3.351   3.841  20.069 -0.0744 -0.8542  0.3012
 5246TIP3    H239934   3.354   3.949  20.176  1.4623 -0.3703 -0.2081
 5247TIP3   OH239935   4.547   2.134  18.208 -0.0984  0.6741  0.6619
 5247TIP3    H139936   4.581   2.108  18.294  1.0399  2.0060  0.6572
 5247TIP3    H239937   4.525   2.227  18.218 -3.3195  0.0308  0.4838
 5248TIP3   OH239938   0.830   5.878  19.747  0.1111 -0.1167  0.2400
 5248TIP3    H139939   0.835   5.883  19.842 -1.3234 -1.7629  0.4486
 5248TIP3    H239940   0.838   5.784  19.727 -0.6104  0.0934 -1.1752
 5249TIP3   OH239941   0.887   0.316  20.709 -0.2506 -0.5187 -0.4146
 5249TIP3    H139942   0.904   0.406  20.736 -0.4418 -0.2866 -1.0673
 5249TIP3    H239943   0.901   0.315  20.615 -0.3593 -1.1457 -0.4310
 5250TIP3   OH239944   0.685   3.589  19.351  0.5502  0.0526  0.1007
 5250TIP3    H139945   0.591   3.570  19.350  0.4519  0.4972  0.7407
 5250TIP3    H239946   0.694   3.671  19.303  0.6007  0.0921  0.1792
 5251TIP3   OH239947   3.649   6.373  18.872 -0.0526 -0.2101  0.2177
 5251TIP3    H139948   3.680   6.453  18.831  0.2884 -0.6876 -0.4827
 5251TIP3    H239949   3.560   6.362  18.839 -0.8976  0.9790  1.9623
 5252TIP3   OH239950   2.648   2.181  17.084  1.0995 -0.3529 -0.1056
 5252TIP3    H139951   2.605   2.255  17.126 -0.6140 -0.9678 -0.6500
 5252TIP3    H239952   2.662   2.209  16.994  1.4653 -0.2877 -0.0261
 5253TIP3   OH239953   3.992   1.238  18.146 -0.3412  0.0010 -0.1517
 5253TIP3    H139954   3.905   1.243  18.106 -0.2236 -1.2923 -0.6190
 5253TIP3    H239955   4.031   1.324  18.130 -2.3732  1.4561  2.1272
 5254TIP3   OH239956   4.397   0.474  19.723 -0.0315 -0.5390 -0.6186
 5254TIP3    H139957   4.303   0.488  19.729 -0.0794 -1.0109 -0.2386
 5254TIP3    H239958   4.407   0.383  19.696  0.3237 -1.1222  1.3078
 5255TIP3   OH239959   4.816   6.332  18.399  0.1509  0.1176  0.2317
 5255TIP3    H139960   4.832   6.424  18.378  1.1043 -0.0205  0.3148
 5255TIP3    H239961   4.804   6.290  18.313 -1.5008  0.5068  0.2344
 5256TIP3   OH239962   4.942   4.660  18.530  0.0209  0.1179 -0.4732
 5256TIP3    H139963   5.020   4.684  18.580 -0.0492  0.4181 -0.5049
 5256TIP3    H239964   4.968   4.669  18.438  0.4366 -1.3340 -0.5211
 5257TIP3   OH239965   2.682   6.217  18.508  0.5389  0.2849 -0.2464
 5257TIP3    H139966   2.703   6.126  18.529  0.3788  0.0665 -0.9815
 5257TIP3    H239967   2.660   6.215  18.415 -1.6253  0.6859  0.2071
 5258TIP3   OH239968   1.632   1.692  17.648 -0.3714  0.0486 -0.3420
 5258TIP3    H139969   1.636   1.731  17.560 -0.5459  0.9941  0.0578
 5258TIP3    H239970   1.540   1.701  17.673 -0.0378  1.1822  0.5418
 5259TIP3   OH239971   0.030   5.960  20.483 -0.3575  0.0485  0.0576
 5259TIP3    H139972   0.072   5.995  20.562  0.5398  1.0433 -0.8325
 5259TIP3    H239973  -0.060   5.942  20.510  0.1583 -0.4449  1.5263
 5260TIP3   OH239974   0.247   3.906  20.636 -0.6457 -0.6831  0.1972
 5260TIP3    H139975   0.291   3.966  20.696 -1.3966  0.5601 -0.4526
 5260TIP3    H239976   0.286   3.821  20.655  1.4444  0.2217  0.2010
 5261TIP3   OH239977   5.271   3.957  18.296  0.2412 -0.2868 -0.0594
 5261TIP3    H139978   5.365   3.946  18.282  0.7508  1.5272  1.5893
 5261TIP3    H239979   5.253   4.048  18.274 -1.0292 -0.4508  0.1889
 5262TIP3   OH239980   4.531   4.412  20.625 -0.5678 -0.0033  0.4463
 5262TIP3    H139981   4.519   4.328  20.581  1.7488  0.0458 -0.4304
 5262TIP3    H239982   4.566   4.389  20.711 -1.4256  0.0299  0.8113
 5263TIP3   OH239983   2.491   4.918  17.426 -0.2820  0.3025  0.8877
 5263TIP3    H139984   2.449   4.962  17.353 -0.0729  0.6933  1.0009
 5263TIP3    H239985   2.421   4.904  17.490 -0.5526 -0.4270  0.4334
 5264TIP3   OH239986   5.711   2.021  18.786  0.6730 -0.5859  0.5558
 5264TIP3    H139987   5.681   1.975  18.707 -0.3287  3.1048 -1.4133
 5264TIP3    H239988   5.802   1.992  18.796  0.5849 -1.8077 -1.4334
 5265TIP3   OH239989   2.625   1.641  19.603 -0.0382 -0.1779 -0.2316
 5265TIP3    H139990   2.637   1.702  19.531 -0.0313  0.6596  0.4674
 5265TIP3    H239991   2.668   1.560  19.574  0.0328  0.1715 -1.1212
 5266TIP3   OH239992   3.877   0.376  19.142 -0.1841 -0.1887  0.3282
 5266TIP3    H139993   3.881   0.470  19.161 -0.9598  0.0625 -0.6550
 5266TIP3    H239994   3.790   0.363  19.105 -0.2211 -1.3726  0.8073
 5267TIP3   OH239995   3.646   3.903  19.748 -0.6443  0.7571 -0.3529
 5267TIP3    H139996   3.709   3.930  19.815 -0.8910  0.6948 -0.0939
 5267TIP3    H239997   3.684   3.823  19.711 -0.2646  1.0637 -0.6272
 5268TIP3   OH239998   6.541   5.501  17.330  0.0325  0.1427  0.5484
 5268TIP3    H139999   6.529   5.543  17.415 -1.0121  1.1073 -0.0396
 5268TIP3    H240000   6.618   5.545  17.293 -0.8322  1.3394  0.0930
 5269TIP3   OH240001   6.709   2.034  17.829 -0.9152 -0.2983  0.4829
 5269TIP3    H140002   6.727   1.942  17.850  2.3865 -0.2310 -1.4245
 5269TIP3    H240003   6.689   2.033  17.735 -0.5662  0.9738  0.3816
 5270TIP3   OH240004   0.721   2.144  17.400  0.0168 -0.0926  0.0770
 5270TIP3    H140005   0.765   2.103  17.325 -1.0949  0.3106 -0.8298
 5270TIP3    H240006   0.750   2.093  17.476  0.3156 -1.2098 -0.7602
 5271TIP3   OH240007   6.507   3.180  19.121  0.1765 -0.1699 -0.0596
 5271TIP3    H140008   6.580   3.118  19.120 -0.4348 -0.9457 -2.1934
 5271TIP3    H240009   6.434   3.130  19.157  0.4106  0.2777  1.0669
 5272TIP3   OH240010   3.958   2.329  16.776  0.0310  0.0591 -0.1176
 5272TIP3    H140011   4.031   2.355  16.831  0.0796  2.4182 -1.1900
 5272TIP3    H240012   3.882   2.371  16.815 -0.3730 -0.4935 -0.3009
 5273TIP3   OH240013   5.607   5.380  20.522  0.1877 -0.0434  0.0115
 5273TIP3    H140014   5.696   5.352  20.500  0.5696  1.2092 -0.1226
 5273TIP3    H240015   5.590   5.455  20.464 -0.0020  1.2796  1.6919
 5274TIP3   OH240016   0.313   1.282  17.970 -0.9327 -0.0736  0.2287
 5274TIP3    H140017   0.339   1.251  17.883 -0.3210 -0.7752  0.6545
 5274TIP3    H240018   0.242   1.223  17.997 -0.5467 -0.3884  0.5597
 5275TIP3   OH240019   2.868   4.518  19.155 -0.0846  0.1424 -0.1811
 5275TIP3    H140020   2.853   4.612  19.168 -0.6970 -0.1433  1.3248
 5275TIP3    H240021   2.846   4.503  19.063 -1.9557  1.1027  0.0689
 5276TIP3   OH240022   1.001   2.676  19.506 -0.6084 -0.2018 -0.9502
 5276TIP3    H140023   0.997   2.730  19.426  0.9518  0.3450 -0.6865
 5276TIP3    H240024   0.991   2.739  19.577  1.8242 -0.1243 -0.6151
 5277TIP3   OH240025   3.691   6.316  20.757  0.1195 -0.7684 -0.7182
 5277TIP3    H140026   3.715   6.375  20.686  0.5087 -1.7047 -1.3893
 5277TIP3    H240027   3.600   6.339  20.777  0.0628 -0.3592 -1.3893
 5278TIP3   OH240028   0.331   3.322  16.618  0.2189  0.1170  0.7772
 5278TIP3    H140029   0.302   3.307  16.708 -4.5346  0.3853 -0.4693
 5278TIP3    H240030   0.299   3.246  16.569 -0.2938  1.4919 -1.1660
 5279TIP3   OH240031   4.385   3.148  20.860 -0.3647 -0.0854  0.8580
 5279TIP3    H140032   4.468   3.196  20.852  1.1068 -2.4788  1.0188
 5279TIP3    H240033   4.325   3.211  20.899  0.8765  2.2542 -0.7257
 5280TIP3   OH240034   4.576   6.329  19.836 -0.9551  0.2294  0.3548
 5280TIP3    H140035   4.518   6.398  19.868  1.2499  1.3303  2.3498
 5280TIP3    H240036   4.652   6.375  19.800 -1.0954 -1.1503 -1.9138
 5281TIP3   OH240037   2.440   2.815  17.923  0.7234 -0.2909  0.4318
 5281TIP3    H140038   2.380   2.832  17.851 -0.1803 -0.0776  1.2178
 5281TIP3    H240039   2.453   2.720  17.922  0.8455 -0.2688 -0.1079
 5282TIP3   OH240040   3.622   5.193  19.060  0.0954 -0.4185  0.3322
 5282TIP3    H140041   3.675   5.268  19.033  1.9829 -1.7484  0.1585
 5282TIP3    H240042   3.625   5.133  18.986  0.4112 -1.5706  1.2410
 5283TIP3   OH240043   3.093   0.829  18.534 -0.2027  1.0658  0.0301
 5283TIP3    H140044   3.024   0.763  18.543  2.2029 -1.5371  0.8140
 5283TIP3    H240045   3.102   0.842  18.440  1.0027 -1.8263 -0.3460
 5284TIP3   OH240046   4.230   2.823  19.767 -0.3509 -0.4018  0.2727
 5284TIP3    H140047   4.323   2.822  19.788 -0.6250 -0.8064  1.5751
 5284TIP3    H240048   4.224   2.869  19.684  1.0392 -0.6154  0.0376
 5285TIP3   OH240049   5.492   5.508  17.833  0.2039 -0.1090  0.4941
 5285TIP3    H140050   5.434   5.553  17.771 -0.2318 -2.4221 -0.9083
 5285TIP3    H240051   5.579   5.516  17.795  0.3395  0.6670  0.9526
 5286TIP3   OH240052   3.771   4.829  19.422 -0.0164 -0.2471  0.0364
 5286TIP3    H140053   3.832   4.895  19.389 -2.8929  2.2340 -0.7030
 5286TIP3    H240054   3.738   4.786  19.343 -1.1858  0.3262  0.1970
 5287TIP3   OH240055   2.657   1.420  18.647 -0.7136 -0.2751  0.5276
 5287TIP3    H140056   2.657   1.376  18.562  1.3923  0.1973  0.2414
 5287TIP3    H240057   2.651   1.348  18.711  1.0389 -0.9045  0.0340
 5288TIP3   OH240058   2.405   0.820  19.359 -0.1220  0.1103  0.1644
 5288TIP3    H140059   2.444   0.800  19.444 -0.3180 -1.2589 -0.0457
 5288TIP3    H240060   2.435   0.908  19.339  2.2597 -0.5772  0.3682
 5289TIP3   OH240061   3.256   0.337  18.663  0.6014  0.3208  0.3266
 5289TIP3    H140062   3.236   0.430  18.670  0.1175  0.2956 -0.6122
 5289TIP3    H240063   3.342   0.333  18.621 -0.6515  0.3291 -2.4066
 5290TIP3   OH240064   6.469   2.834  17.022  0.2872 -0.4233 -0.3011
 5290TIP3    H140065   6.559   2.857  16.996  0.9029 -1.2293  1.0155
 5290TIP3    H240066   6.427   2.919  17.036  0.4537  0.0040 -2.0622
 5291TIP3   OH240067   1.968   5.928  19.790  0.1001  0.2735 -0.0699
 5291TIP3    H140068   1.997   5.862  19.854 -1.4609 -0.5404 -0.1483
 5291TIP3    H240069   2.005   5.899  19.707 -0.4430 -0.4526 -0.0746
 5292TIP3   OH240070   4.453   1.776  18.403  0.0922 -0.0218  0.0859
 5292TIP3    H140071   4.477   1.720  18.477  1.3690 -1.4405 -1.3187
 5292TIP3    H240072   4.507   1.854  18.413  0.6676 -0.4479  0.3468
 5293TIP3   OH240073   1.352   5.220  19.859 -0.0964  0.0060 -0.6448
 5293TIP3    H140074   1.442   5.217  19.893 -0.1673  1.0577 -0.3438
 5293TIP3    H240075   1.336   5.131  19.829  0.2665 -0.7914  1.3195
 5294TIP3   OH240076   1.759   0.132  17.868 -0.3383 -0.0446  0.3773
 5294TIP3    H140077   1.791   0.102  17.783  0.9093  0.9059  0.4803
 5294TIP3    H240078   1.664   0.140  17.856 -0.1334  0.5814 -1.0905
 5295TIP3   OH240079   4.209   0.565  20.121 -0.4012 -0.0709 -0.1265
 5295TIP3    H140080   4.132   0.618  20.139  0.1576  1.1648 -1.1992
 5295TIP3    H240081   4.283   0.619  20.150  0.0894 -1.2827  1.0057
 5296TIP3   OH240082   1.237   3.597  20.429  0.3693  0.0760  0.5883
 5296TIP3    H140083   1.229   3.523  20.489  0.0538  2.0694  3.1958
 5296TIP3    H240084   1.148   3.632  20.421  0.6977  0.8853  0.3729
 5297TIP3   OH240085   0.512   2.601  20.839 -0.6318  1.0328 -0.0460
 5297TIP3    H140086   0.501   2.673  20.777  1.4915  1.0972 -0.4005
 5297TIP3    H240087   0.550   2.643  20.917 -1.2192  0.5929  0.4890
 5298TIP3   OH240088   0.787   2.137  20.765  0.2104  0.0502 -0.3908
 5298TIP3    H140089   0.807   2.057  20.716  0.9481 -0.0694  0.0928
 5298TIP3    H240090   0.834   2.206  20.718 -1.9261  0.5579 -1.9327
 5299TIP3   OH240091   3.563   3.487  20.705  0.1766  0.9903  0.1087
 5299TIP3    H140092   3.591   3.571  20.741  1.3516  1.4446 -1.7432
 5299TIP3    H240093   3.642   3.451  20.665  0.0325 -1.6564  1.9632
 5300TIP3   OH240094   2.500   2.326  18.228 -0.1323  0.1873  0.0631
 5300TIP3    H140095   2.407   2.316  18.208 -0.0142 -0.7671 -0.0657
 5300TIP3    H240096   2.517   2.419  18.217 -1.0314  0.3419 -0.0973
 5301TIP3   OH240097   6.408   1.363  17.637 -0.0294  0.6266  0.3604
 5301TIP3    H140098   6.370   1.292  17.586  0.2421  0.7698 -0.0466
 5301TIP3    H240099   6.500   1.339  17.647  0.0511  0.8920  0.2664
 5302TIP3   OH240100   4.760   2.494  18.060 -0.3972 -0.2454 -0.0593
 5302TIP3    H140101   4.785   2.556  18.128  0.7301 -0.9810  0.2263
 5302TIP3    H240102   4.669   2.472  18.080 -0.9419  1.5692 -0.3915
 5303TIP3   OH240103   2.052   0.307  17.217  0.3878 -0.2080  0.3290
 5303TIP3    H140104   1.969   0.270  17.189 -0.1070  0.6228  0.6638
 5303TIP3    H240105   2.051   0.397  17.184  1.7751 -0.5875 -0.8960
 5304TIP3   OH240106   3.476   2.783  18.780 -0.4369 -0.0893  0.1401
 5304TIP3    H140107   3.380   2.786  18.787 -0.5492 -1.5956 -0.3088
 5304TIP3    H240108   3.507   2.802  18.868 -1.0754  1.9603 -0.0329
 5305TIP3   OH240109   1.824   6.030  18.867  0.2030 -0.5837 -0.0994
 5305TIP3    H140110   1.908   6.074  18.858  0.8016 -1.6879 -0.1422
 5305TIP3    H240111   1.771   6.089  18.920  1.6545 -0.7254  1.5708
 5306TIP3   OH240112   4.357   1.513  20.786  0.0458  0.4576  0.1116
 5306TIP3    H140113   4.414   1.574  20.832  1.8357 -1.5802  0.7426
 5306TIP3    H240114   4.415   1.464  20.728 -1.4386 -0.2239 -0.8610
 5307TIP3   OH240115   6.630   3.397  19.018  0.2086  0.3195  0.0363
 5307TIP3    H140116   6.571   3.339  19.068  0.6756  0.3219  0.6080
 5307TIP3    H240117   6.678   3.338  18.961 -0.2603  0.3033 -0.3474
 5308TIP3   OH240118   2.468   3.881  17.839 -0.4546  0.5307  0.3097
 5308TIP3    H140119   2.486   3.963  17.886 -0.6928  0.5126  0.4391
 5308TIP3    H240120   2.419   3.908  17.762 -0.7861  0.4855  0.5019
 5309TIP3   OH240121   1.235   0.476  19.501  0.1317 -0.0892  0.0110
 5309TIP3    H140122   1.178   0.520  19.438  0.3480 -0.4680 -0.4484
 5309TIP3    H240123   1.174   0.440  19.566 -0.0941  0.2155 -0.0253
 5310TIP3   OH240124   0.143   4.407  20.643 -0.1966 -0.2107  0.4427
 5310TIP3    H140125   0.225   4.391  20.691  0.5614 -0.6775 -0.9496
 5310TIP3    H240126   0.144   4.501  20.626 -0.1384 -0.1548  0.7409
 5311TIP3   OH240127   1.612   4.466  19.831  0.3484 -0.7365  0.0167
 5311TIP3    H140128   1.579   4.510  19.910  0.5735 -0.7302  0.1068
 5311TIP3    H240129   1.537   4.466  19.771  1.1742  2.7548 -1.3013
 5312TIP3   OH240130   6.480   3.007  19.700  0.1562 -0.0387  0.4647
 5312TIP3    H140131   6.566   3.024  19.738 -0.0832  1.7099  0.3139
 5312TIP3    H240132   6.419   3.055  19.757 -0.4273  0.8901 -0.9072
 5313TIP3   OH240133   5.991   3.167  19.877 -0.0946  0.6749 -0.0924
 5313TIP3    H140134   6.013   3.076  19.894  1.4476  1.1184  0.4930
 5313TIP3    H240135   5.980   3.206  19.964 -2.8151  0.6284 -0.3354
 5314TIP3   OH240136   4.855   2.123  18.973 -0.4442 -0.0912 -0.4869
 5314TIP3    H140137   4.876   2.045  18.921 -0.9363  0.9678 -2.3670
 5314TIP3    H240138   4.858   2.195  18.911  1.0598  1.6067  1.4201
 5315TIP3   OH240139   3.086   2.905  17.922 -0.0710 -0.1016 -0.4144
 5315TIP3    H140140   3.078   2.922  17.829 -0.4529 -1.3464 -0.6385
 5315TIP3    H240141   3.059   2.813  17.932 -0.6099  0.1824  0.9975
 5316TIP3   OH240142   1.742   0.916  20.600  0.3780 -0.3051  0.3208
 5316TIP3    H140143   1.715   0.993  20.651 -0.6805 -1.0040  0.8412
 5316TIP3    H240144   1.838   0.921  20.599  0.3521  0.6325  0.9545
 5317TIP3   OH240145   0.970   5.207  20.107  0.2153  0.3639  0.3697
 5317TIP3    H140146   0.970   5.132  20.167 -0.1582  0.3426  0.3461
 5317TIP3    H240147   0.877   5.222  20.088  0.3854 -0.4816 -1.2788
 5318TIP3   OH240148   5.083   3.032  19.296 -0.1740  0.6951  0.2855
 5318TIP3    H140149   5.083   3.126  19.277  1.0382  1.0820  1.8898
 5318TIP3    H240150   5.053   2.991  19.215 -1.7061  2.5018 -0.1392
 5319TIP3   OH240151   2.465   3.210  20.866  0.1714 -0.5434 -0.1385
 5319TIP3    H140152   2.549   3.195  20.908  0.2620  1.7353  0.6150
 5319TIP3    H240153   2.487   3.231  20.775  0.5144  0.8278  0.2441
 5320TIP3   OH240154   0.298   6.277  17.700  0.2034  0.3866  0.7152
 5320TIP3    H140155   0.211   6.294  17.664  1.0981  0.0443 -1.8011
 5320TIP3    H240156   0.318   6.187  17.673  0.7955 -0.0407  2.4766
 5321TIP3   OH240157   1.903   4.943  18.299  0.0373  0.4703 -0.5350
 5321TIP3    H140158   1.985   4.925  18.253  0.8328 -2.4166  1.7056
 5321TIP3    H240159   1.847   4.868  18.279 -0.1217 -0.1540  1.8797
 5322TIP3   OH240160   6.707   4.907  20.696 -0.5648 -0.0086  0.0562
 5322TIP3    H140161   6.654   4.829  20.683 -1.6091  0.3746  1.7897
 5322TIP3    H240162   6.647   4.973  20.730 -0.1727  2.2762 -3.2299
 5323TIP3   OH240163   6.014   0.608  17.541 -0.3549  0.1429 -0.1567
 5323TIP3    H140164   5.932   0.655  17.525  0.0590  0.6318 -0.9248
 5323TIP3    H240165   6.078   0.652  17.484  0.5042 -0.0536  0.6377
 5324TIP3   OH240166   5.264   0.707  18.450  0.2287 -0.2536  0.0432
 5324TIP3    H140167   5.181   0.710  18.402  0.0583  1.5541  0.3784
 5324TIP3    H240168   5.258   0.628  18.504 -1.4686  0.0782  0.3991
 5325TIP3   OH240169   6.687   2.063  18.606 -0.3888  0.3591  0.0087
 5325TIP3    H140170   6.728   2.148  18.625 -1.7096  0.9415  0.3448
 5325TIP3    H240171   6.744   2.023  18.540 -0.1832  1.8655 -0.7671
 5326TIP3   OH240172   0.062   3.653  17.956 -0.1926 -0.0686  0.0927
 5326TIP3    H140173  -0.009   3.716  17.958 -1.8042 -1.6773 -1.7553
 5326TIP3    H240174   0.020   3.568  17.972  1.2293 -1.1072 -1.3223
 5327TIP3   OH240175   0.653   4.318  18.733  0.2896 -0.6523  0.0986
 5327TIP3    H140176   0.597   4.249  18.767 -0.8063  0.0696 -0.1860
 5327TIP3    H240177   0.620   4.398  18.773  0.4113 -0.0715 -0.9126
 5328TIP3   OH240178   2.270   6.237  19.010 -0.4317 -0.1987  0.2775
 5328TIP3    H140179   2.205   6.253  19.078 -0.5404  0.5706  0.0081
 5328TIP3    H240180   2.350   6.214  19.057  0.3809  3.3320  0.8735
 5329TIP3   OH240181   6.359   3.354  17.670 -0.2963  0.1019 -0.3874
 5329TIP3    H140182   6.305   3.287  17.629  0.7447 -0.4962 -0.8175
 5329TIP3    H240183   6.315   3.437  17.648 -1.3494 -0.4024 -0.2197
 5330TIP3   OH240184   1.900   3.398  19.407 -0.2061 -0.1179  0.9941
 5330TIP3    H140185   1.914   3.475  19.352 -2.2295 -1.2689 -1.3445
 5330TIP3    H240186   1.940   3.326  19.357 -0.1254 -0.8930  2.1380
 5331TIP3   OH240187   1.448   4.292  18.001  0.0543  0.0162  0.0759
 5331TIP3    H140188   1.533   4.296  17.957 -1.1537  1.0236 -2.3615
 5331TIP3    H240189   1.458   4.349  18.077  1.2748  0.9793 -0.7654
 5332TIP3   OH240190   4.262   3.796  20.651 -0.0521 -0.2694 -0.5309
 5332TIP3    H140191   4.216   3.871  20.690  0.8627  0.1182 -0.1607
 5332TIP3    H240192   4.225   3.788  20.563  1.7309  2.4256 -1.6771
 5333TIP3   OH240193   4.586   6.509  18.255 -0.3530 -0.5760 -0.7028
 5333TIP3    H140194   4.518   6.494  18.321 -0.7213  0.0947 -0.9133
 5333TIP3    H240195   4.606   6.422  18.220 -0.5236 -0.8722 -0.0680
 5334TIP3   OH240196   4.978   1.845  20.845 -0.2726 -0.0896 -0.3402
 5334TIP3    H140197   4.901   1.822  20.793  0.5118  0.2226 -1.6762
 5334TIP3    H240198   4.999   1.765  20.893 -0.4973 -0.6697 -1.1814
 5335TIP3   OH240199   0.013   4.289  18.557 -0.4047  0.5848 -0.4849
 5335TIP3    H140200   0.093   4.299  18.609  0.2026 -1.5312 -0.9149
 5335TIP3    H240201   0.016   4.363  18.495 -0.0916  1.9467  1.0764
 5336TIP3   OH240202   0.776   4.550  19.637  1.0200 -0.3488  0.1872
 5336TIP3    H140203   0.762   4.602  19.716  1.5212 -0.9760  0.7011
 5336TIP3    H240204   0.864   4.573  19.608  0.9739 -0.3860  0.0183
 5337TIP3   OH240205   5.753   3.924  19.188  0.0027 -0.1991  0.4465
 5337TIP3    H140206   5.770   3.829  19.188  0.4147 -0.1354  1.1002
 5337TIP3    H240207   5.777   3.952  19.276  1.2605  0.7563 -0.1672
 5338TIP3   OH240208   4.323   4.923  20.492 -0.2243 -0.1715  0.3349
 5338TIP3    H140209   4.254   4.894  20.433  0.7476  0.1101 -1.0024
 5338TIP3    H240210   4.295   5.010  20.520  0.3852  0.7135 -1.6277
 5339TIP3   OH240211   5.041   5.916  19.502  1.1286 -0.4634 -0.3783
 5339TIP3    H140212   5.012   5.957  19.583  1.8396 -0.8520  0.0868
 5339TIP3    H240213   4.970   5.932  19.440 -0.0485 -1.3331  0.6872
 5340TIP3   OH240214   5.774   0.472  18.524  0.1199 -0.5774  0.2907
 5340TIP3    H140215   5.685   0.438  18.534  0.1857 -0.7780  0.2081
 5340TIP3    H240216   5.765   0.545  18.463 -0.2042  0.3086  1.3445
 5341TIP3   OH240217   0.029   2.082  17.301  0.0837  0.0615  0.6860
 5341TIP3    H140218  -0.056   2.117  17.276 -0.2701 -0.7052  0.8005
 5341TIP3    H240219   0.088   2.108  17.230 -0.1716  0.8660  0.7617
 5342TIP3   OH240220   5.444   3.349  20.655 -0.0552  0.2754 -0.1567
 5342TIP3    H140221   5.359   3.394  20.656  0.6611  1.6844  0.2502
 5342TIP3    H240222   5.508   3.419  20.669  1.1241 -0.8963  0.4899
 5343TIP3   OH240223   1.393   5.548  17.897 -0.2461 -0.3454  0.2449
 5343TIP3    H140224   1.417   5.528  17.807  4.1052 -1.9124  1.4742
 5343TIP3    H240225   1.380   5.462  17.937  0.7252  0.1275  1.6625
 5344TIP3   OH240226   4.933   0.734  20.831 -0.4589  0.7222 -0.5282
 5344TIP3    H140227   5.010   0.767  20.879  0.2947  0.9084 -1.8259
 5344TIP3    H240228   4.920   0.645  20.865  1.4128  0.0284 -1.4848
 5345TIP3   OH240229   2.852   2.524  17.408  0.0592 -0.1324  0.0654
 5345TIP3    H140230   2.771   2.498  17.365 -0.2574 -1.0945  1.1904
 5345TIP3    H240231   2.878   2.605  17.363  0.9282 -2.1293 -3.3742
 5346TIP3   OH240232   0.651   4.297  17.214  0.9790 -0.1731 -0.0065
 5346TIP3    H140233   0.689   4.385  17.211  1.8494 -0.5423 -0.2451
 5346TIP3    H240234   0.669   4.261  17.127 -0.3955 -0.1800 -0.3025
 5347TIP3   OH240235   3.603   4.113  18.966  0.0356  0.0206  0.5981
 5347TIP3    H140236   3.649   4.148  18.890 -1.5808  2.1713  0.5134
 5347TIP3    H240237   3.665   4.122  19.038  1.1925 -1.0315 -0.2239
 5348TIP3   OH240238   2.094   3.746  17.949  0.1621 -0.2078 -0.2751
 5348TIP3    H140239   2.094   3.835  17.914 -1.0940  0.4766  1.3428
 5348TIP3    H240240   2.026   3.700  17.900  0.3438 -0.0845 -0.6444
 5349TIP3   OH240241   4.720   4.928  20.364 -0.4850 -0.4375 -0.3423
 5349TIP3    H140242   4.800   4.883  20.391  1.3992  2.5802 -0.4101
 5349TIP3    H240243   4.650   4.882  20.410  1.2635 -3.0675 -0.1016
 5350TIP3   OH240244   1.081   5.445  18.021 -0.0974 -0.1004 -0.4059
 5350TIP3    H140245   1.125   5.400  18.092  0.7323  0.3631 -0.6078
 5350TIP3    H240246   0.994   5.406  18.017 -0.5504  0.6237  1.5770
 5351TIP3   OH240247   4.685   1.498  18.832 -0.0468  0.3366 -0.0564
 5351TIP3    H140248   4.625   1.428  18.806 -0.4168  0.5788  0.1539
 5351TIP3    H240249   4.771   1.456  18.832 -0.2127 -0.0083 -0.3576
 5352TIP3   OH240250   2.697   4.771  19.663  0.6764 -0.0032 -0.1494
 5352TIP3    H140251   2.734   4.755  19.576  0.0547  1.6900 -0.7522
 5352TIP3    H240252   2.638   4.846  19.652  2.0153  1.5135  2.0821
 5353TIP3   OH240253   1.094   1.263  19.147  0.6970 -0.4806 -0.8159
 5353TIP3    H140254   1.059   1.175  19.166  1.7200 -1.0515 -1.4701
 5353TIP3    H240255   1.119   1.297  19.233  0.2975 -0.8309 -0.5528
 5354TIP3   OH240256   0.712   3.152  17.744  0.4131  0.0858  0.0923
 5354TIP3    H140257   0.674   3.221  17.689  1.8211  0.2045 -0.7775
 5354TIP3    H240258   0.643   3.087  17.751  0.1031  0.1821 -1.6390
 5355TIP3   OH240259   3.646   5.488  19.665 -0.3832 -0.6064  0.4519
 5355TIP3    H140260   3.622   5.579  19.645  1.3437 -0.0611  0.7538
 5355TIP3    H240261   3.739   5.482  19.643 -0.7797 -2.7231 -0.9412
 5356TIP3   OH240262   4.259   0.554  18.675  0.0704  0.0926 -0.2171
 5356TIP3    H140263   4.265   0.521  18.585  2.0965  1.8553 -0.7963
 5356TIP3    H240264   4.166   0.574  18.687 -0.8769 -3.3835 -0.6332
 5357TIP3   OH240265   1.953   2.682  18.508 -0.1982  0.3080 -0.0921
 5357TIP3    H140266   1.912   2.745  18.449 -0.0580  0.4815 -0.0047
 5357TIP3    H240267   2.047   2.699  18.500  0.0915 -1.7384 -2.2136
 5358TIP3   OH240268   4.225   4.832  18.733  0.2014 -0.0517  0.5683
 5358TIP3    H140269   4.252   4.825  18.825 -0.9810  0.9256  1.0141
 5358TIP3    H240270   4.268   4.910  18.700 -0.0404  0.0675  0.5334
 5359TIP3   OH240271   6.126   5.967  18.106  0.3531  0.2750  0.3503
 5359TIP3    H140272   6.211   5.924  18.119  0.4751  0.0690 -1.0063
 5359TIP3    H240273   6.068   5.897  18.075  0.3303  0.9040 -1.0806
 5360TIP3   OH240274   0.397   0.097  18.574  0.0259 -0.2529 -0.7091
 5360TIP3    H140275   0.414   0.054  18.658 -0.5662  0.2994 -0.2918
 5360TIP3    H240276   0.453   0.175  18.575 -1.0235  0.5414 -0.1628
 5361TIP3   OH240277   4.786   6.403  17.418 -0.0632  0.1720 -0.3417
 5361TIP3    H140278   4.774   6.310  17.396 -1.9944  0.6879 -1.7381
 5361TIP3    H240279   4.852   6.434  17.356  0.7588 -0.2976  0.2791
 5362TIP3   OH240280   1.587   5.050  19.752 -0.4954  0.0327  0.0818
 5362TIP3    H140281   1.620   4.973  19.705 -2.4582  0.9114 -3.0245
 5362TIP3    H240282   1.492   5.047  19.741 -0.7515  2.1165  1.1888
 5363TIP3   OH240283   1.852   1.445  18.662 -0.0154  0.1251  0.0905
 5363TIP3    H140284   1.799   1.367  18.681  3.1554 -2.0041  0.9634
 5363TIP3    H240285   1.839   1.502  18.738  1.1221 -1.6690  1.7103
 5364TIP3   OH240286   4.905   1.187  18.999  0.3815 -0.5364  0.2066
 5364TIP3    H140287   4.940   1.211  19.085  0.4103  1.0197 -0.2064
 5364TIP3    H240288   4.968   1.223  18.936 -1.2905  1.2984 -0.5237
 5365TIP3   OH240289   6.450   5.804  19.813  0.1150  0.4677  0.0966
 5365TIP3    H140290   6.488   5.875  19.761  0.5657 -0.3543 -0.7497
 5365TIP3    H240291   6.391   5.847  19.875  0.6603  1.5927 -0.1485
 5366TIP3   OH240292   2.960   4.211  17.605  0.3891  0.5363  0.0136
 5366TIP3    H140293   3.053   4.229  17.607  0.7572 -1.1710  0.3133
 5366TIP3    H240294   2.932   4.239  17.518  1.1204  1.2986  0.0157
 5367TIP3   OH240295   3.223   3.252  19.544 -0.2904 -0.2119  1.0706
 5367TIP3    H140296   3.170   3.173  19.559  1.0684 -1.1474  1.1369
 5367TIP3    H240297   3.254   3.243  19.454 -1.2375  0.9532  0.6156
 5368TIP3   OH240298   1.499   5.063  18.319 -0.1485 -0.2504 -0.0925
 5368TIP3    H140299   1.410   5.035  18.340 -0.1140 -2.1487 -2.0873
 5368TIP3    H240300   1.555   5.005  18.370  0.0386  1.7682  2.1437
 5369TIP3   OH240301   2.384   6.260  18.632  0.5520 -0.0194  0.1248
 5369TIP3    H140302   2.461   6.280  18.579  2.4159  2.3421  3.3834
 5369TIP3    H240303   2.362   6.169  18.610  3.8931 -0.5936 -1.4031
 5370TIP3   OH240304   5.971   3.771  20.388  0.1636  0.8008 -0.2149
 5370TIP3    H140305   6.048   3.726  20.354 -1.4178 -1.6738 -0.8781
 5370TIP3    H240306   5.931   3.812  20.312  1.2131  2.8022  0.2687
 5371TIP3   OH240307   5.877   5.560  20.567 -0.4442 -0.1745  0.2081
 5371TIP3    H140308   5.878   5.603  20.481  0.0485  1.2258  0.8705
 5371TIP3    H240309   5.818   5.486  20.557  0.4273 -0.6750 -1.6315
 5372TIP3   OH240310   4.432   2.230  18.505  0.3882  0.0307  0.3676
 5372TIP3    H140311   4.527   2.243  18.510  0.2383  2.0014 -0.6030
 5372TIP3    H240312   4.407   2.203  18.593  2.0034 -1.9970  0.2725
 5373TIP3   OH240313   0.783   4.697  20.194 -0.2258  0.0072 -0.1922
 5373TIP3    H140314   0.810   4.678  20.283  1.8365 -0.9722 -0.9563
 5373TIP3    H240315   0.758   4.790  20.195 -1.8550 -0.3883  1.6991
 5374TIP3   OH240316   3.725   6.513  18.118  0.6722 -0.7133 -0.1686
 5374TIP3    H140317   3.716   6.458  18.040  0.8061 -1.1048  0.0896
 5374TIP3    H240318   3.639   6.554  18.128  0.5375 -0.9617 -0.2968
 5375TIP3   OH240319   2.355   2.257  19.963  0.4358  0.4400  0.1902
 5375TIP3    H140320   2.373   2.269  19.869  1.1911  0.1825  0.2966
 5375TIP3    H240321   2.419   2.312  20.007 -0.9558  1.8442  0.5474
 5376TIP3   OH240322   0.409   3.294  18.853  0.1847 -0.0291  0.0880
 5376TIP3    H140323   0.370   3.375  18.822  0.2409  0.2680  0.7644
 5376TIP3    H240324   0.425   3.310  18.946  0.1462 -0.8346  0.2363
 5377TIP3   OH240325   6.357   5.567  19.345 -0.1807 -0.0663  0.2120
 5377TIP3    H140326   6.387   5.605  19.428  2.2082 -2.5052  0.6218
 5377TIP3    H240327   6.288   5.505  19.370  1.0447 -1.3442  0.5461
 5378TIP3   OH240328   3.469   2.248  18.931  0.3753 -0.2071 -0.1637
 5378TIP3    H140329   3.503   2.304  18.861 -0.8898  1.0261  0.1585
 5378TIP3    H240330   3.472   2.303  19.010  0.1247 -0.9760  0.3990
 5379TIP3   OH240331   6.090   3.927  19.108  0.1666 -0.0643  0.3717
 5379TIP3    H140332   6.152   3.878  19.054 -1.4693 -2.4643  0.5008
 5379TIP3    H240333   6.041   3.980  19.046 -0.5441 -1.4872 -0.3327
 5380TIP3   OH240334   1.230   2.905  20.477 -0.5556  0.4904  0.3251
 5380TIP3    H140335   1.228   2.809  20.478  2.2070  0.2934 -1.3319
 5380TIP3    H240336   1.147   2.930  20.437 -1.7627 -1.1018  1.6475
 5381TIP3   OH240337   2.846   0.853  17.865 -0.1897  0.1235  0.0942
 5381TIP3    H140338   2.902   0.785  17.828 -0.5205 -0.2756  0.3354
 5381TIP3    H240339   2.885   0.871  17.951  1.0976  1.6549 -0.7478
 5382TIP3   OH240340   4.327   0.324  18.061 -0.3568 -0.4299  0.0815
 5382TIP3    H140341   4.348   0.238  18.026  0.6076  0.2641 -1.1401
 5382TIP3    H240342   4.316   0.379  17.984  1.6076  1.1148  0.8004
 5383TIP3   OH240343   1.099   1.668  18.183  0.0530 -0.8021 -0.0115
 5383TIP3    H140344   1.042   1.614  18.239  0.1830 -1.0093 -0.0789
 5383TIP3    H240345   1.182   1.672  18.230 -0.2322  0.0874  0.4269
 5384TIP3   OH240346   3.956   4.880  17.932 -0.2137 -0.0308  0.1338
 5384TIP3    H140347   3.916   4.898  17.847 -0.0153 -0.4861 -0.0623
 5384TIP3    H240348   4.050   4.878  17.913 -0.1232  0.6063  0.5069
 5385TIP3   OH240349   2.187   5.056  20.625 -0.1545  0.4449 -0.1859
 5385TIP3    H140350   2.159   5.117  20.556  1.7585  0.4978 -0.9643
 5385TIP3    H240351   2.201   4.974  20.579 -2.1815 -0.5104  0.7708
 5386TIP3   OH240352   5.003   6.528  17.265 -0.6370 -0.4390  0.2615
 5386TIP3    H140353   5.052   6.452  17.296 -0.3612 -0.0428  0.8047
 5386TIP3    H240354   5.027   6.536  17.173  0.5122 -0.0998  0.5823
 5387TIP3   OH240355   5.607   5.564  20.343 -0.4926  0.3472  0.6056
 5387TIP3    H140356   5.640   5.539  20.257  0.8242 -1.1047  1.5036
 5387TIP3    H240357   5.667   5.633  20.373 -1.4693  1.4931  0.0410
 5388TIP3   OH240358   3.102   0.467  19.453 -0.3205 -0.3563 -0.0130
 5388TIP3    H140359   3.063   0.543  19.497  0.7809 -1.1147  2.4581
 5388TIP3    H240360   3.193   0.491  19.439 -0.3718 -0.5961 -0.7887
 5389TIP3   OH240361   1.089   3.044  18.774 -0.3839 -0.1811 -0.5618
 5389TIP3    H140362   1.002   3.081  18.760 -0.2796 -0.0602 -0.8994
 5389TIP3    H240363   1.097   3.036  18.869 -1.2886 -1.4255 -0.5624
 5390TIP3   OH240364   1.387   4.236  20.384  0.1262  0.0121  0.1421
 5390TIP3    H140365   1.375   4.171  20.315  0.2721  0.7458 -0.6046
 5390TIP3    H240366   1.304   4.237  20.432  0.2015 -0.8686  0.3051
 5391TIP3   OH240367   4.674   0.695  11.624  0.2799 -0.2600  1.2957
 5391TIP3    H140368   4.618   0.618  11.613 -1.0566  0.9021 -0.6024
 5391TIP3    H240369   4.732   0.694  11.548  1.4033 -0.2881  2.1377
 5392TIP3   OH240370   6.636   6.629   9.468 -0.5313  0.4027  0.4318
 5392TIP3    H140371   6.634   6.720   9.440  1.0589  0.6863  1.1060
 5392TIP3    H240372   6.585   6.582   9.402  0.3842  1.5072 -1.1195
 5393TIP3   OH240373   0.231   1.324  11.147  0.0501 -0.5221 -0.2089
 5393TIP3    H140374   0.239   1.410  11.187 -1.2604 -1.1749  1.5986
 5393TIP3    H240375   0.235   1.340  11.053  1.2214  1.3230  0.1143
 5394TIP3   OH240376   0.511   0.005  11.484 -0.3928  0.2421 -0.4689
 5394TIP3    H140377   0.456   0.052  11.548  0.0200  0.9719 -0.6325
 5394TIP3    H240378   0.448  -0.031  11.421 -0.7343  0.4598 -0.2596
 5395TIP3   OH240379   1.779   5.092  10.073 -0.6616  0.0246  0.0267
 5395TIP3    H140380   1.715   5.158  10.045 -0.7317 -0.6063 -1.3946
 5395TIP3    H240381   1.739   5.051  10.149 -2.7783 -1.4187 -1.7211
 5396TIP3   OH240382   2.527   6.119  10.748  0.7143  0.2685 -0.4671
 5396TIP3    H140383   2.572   6.040  10.778  0.0034 -0.4098 -1.1454
 5396TIP3    H240384   2.595   6.186  10.746  1.5689 -0.5880 -0.8940
 5397TIP3   OH240385   3.736   3.554  10.213  0.1034 -0.2932 -0.5141
 5397TIP3    H140386   3.689   3.498  10.275 -0.4046 -0.4310 -1.0126
 5397TIP3    H240387   3.687   3.637  10.214  0.5941  0.0012 -0.1060
 5398TIP3   OH240388   6.245   4.529  12.178 -0.4007  0.5883 -0.1741
 5398TIP3    H140389   6.186   4.593  12.138 -0.0310 -0.6140 -2.8040
 5398TIP3    H240390   6.190   4.482  12.241 -0.6468  3.4763  2.0211
 5399TIP3   OH240391   4.060   3.066  10.487 -0.1718  0.0665 -0.3813
 5399TIP3    H140392   4.090   3.144  10.534  2.8664  0.2961 -2.4548
 5399TIP3    H240393   4.008   3.100  10.415 -0.3493  0.0532 -0.2600
 5400TIP3   OH240394   3.907   6.087  11.736  0.2861  0.1238 -0.0780
 5400TIP3    H140395   3.925   6.054  11.824  2.0916  2.0989  0.3670
 5400TIP3    H240396   3.846   6.023  11.699  1.2839 -2.0264  1.7333
 5401TIP3   OH240397   2.472   4.906  11.393  0.1682 -0.2198 -0.1989
 5401TIP3    H140398   2.503   4.974  11.334  3.4350 -0.9832  0.4190
 5401TIP3    H240399   2.513   4.826  11.361 -1.1362 -1.3673  0.8610
 5402TIP3   OH240400   3.634   1.167   9.306  0.2520 -0.0206 -0.4102
 5402TIP3    H140401   3.663   1.087   9.263  0.9092  1.0427 -2.0409
 5402TIP3    H240402   3.560   1.198   9.254  0.4953  0.8349 -0.2620
 5403TIP3   OH240403   3.642   6.265  10.905 -0.5967 -0.2642  0.4803
 5403TIP3    H140404   3.547   6.273  10.910 -0.5220  0.6686  0.5270
 5403TIP3    H240405   3.661   6.255  10.812 -0.7204 -0.1653  0.4439
 5404TIP3   OH240406   6.313   1.992  12.527  0.5100  0.0903 -0.4085
 5404TIP3    H140407   6.273   1.953  12.449 -0.1131  1.6559 -0.8967
 5404TIP3    H240408   6.297   1.927  12.596 -1.1812 -0.1940 -1.0198
 5405TIP3   OH240409   3.966   6.021  12.476  0.1544 -0.3189 -0.4201
 5405TIP3    H140410   3.936   5.987  12.561 -0.7726  1.2346 -0.0886
 5405TIP3    H240411   3.941   5.953  12.413 -0.1960 -0.9787  0.4058
 5406TIP3   OH240412   1.717   5.411  11.970 -0.0644  0.4993  0.0151
 5406TIP3    H140413   1.673   5.346  12.025  1.2575 -0.3317  0.1316
 5406TIP3    H240414   1.706   5.379  11.881 -0.0986  0.5469  0.0020
 5407TIP3   OH240415   2.874   0.093  11.743  0.0144 -0.7720 -0.3348
 5407TIP3    H140416   2.865   0.184  11.773 -0.9683 -0.4054 -1.6567
 5407TIP3    H240417   2.784   0.062  11.734  0.3439 -1.8871  0.0611
 5408TIP3   OH240418   1.280   3.580  12.210  0.0233 -0.1443 -0.0629
 5408TIP3    H140419   1.342   3.652  12.228 -0.4255  0.3370 -0.4233
 5408TIP3    H240420   1.301   3.514  12.277  0.6917  0.1586  0.0401
 5409TIP3   OH240421   4.267   2.395  11.087  0.3532 -0.0317  0.2497
 5409TIP3    H140422   4.224   2.361  11.165  0.0362 -0.9197 -0.2993
 5409TIP3    H240423   4.331   2.457  11.120 -0.0891 -0.0673  1.1877
 5410TIP3   OH240424   4.788   3.458  11.117  0.0466 -0.4742 -0.4206
 5410TIP3    H140425   4.708   3.505  11.142 -0.8170 -1.1892 -1.7125
 5410TIP3    H240426   4.761   3.401  11.045  1.6367 -1.0653 -0.5955
 5411TIP3   OH240427   1.412   1.665  11.599 -0.7467 -0.0846 -0.5844
 5411TIP3    H140428   1.418   1.571  11.614  0.1204  0.1424  0.5971
 5411TIP3    H240429   1.447   1.677  11.511  1.1620 -0.6522  0.0498
 5412TIP3   OH240430   6.554   0.601  10.559 -0.3589 -0.6797  0.5146
 5412TIP3    H140431   6.633   0.612  10.506 -0.6403 -0.8738  0.0430
 5412TIP3    H240432   6.483   0.594  10.495 -0.6882 -1.0595  0.9104
 5413TIP3   OH240433   4.389   1.095   9.759 -0.0082 -0.1415 -0.1847
 5413TIP3    H140434   4.316   1.111   9.699  0.6191  0.6556 -0.7595
 5413TIP3    H240435   4.462   1.144   9.722  0.6129 -0.2818  0.8043
 5414TIP3   OH240436   3.830   1.337  11.063 -0.2550  0.1860  0.3868
 5414TIP3    H140437   3.846   1.243  11.072  1.7793  0.3968 -0.4492
 5414TIP3    H240438   3.772   1.345  10.987  0.5813 -0.3493 -0.3251
 5415TIP3   OH240439   3.154   1.595   8.841  0.2176 -0.1992  0.2793
 5415TIP3    H140440   3.142   1.506   8.875  1.3907 -0.3145  0.4069
 5415TIP3    H240441   3.240   1.593   8.799 -0.2560  0.5573 -0.7552
 5416TIP3   OH240442   0.209   0.140  10.845 -0.2130 -0.2641 -0.2561
 5416TIP3    H140443   0.294   0.140  10.890 -0.2627  0.9575 -0.1183
 5416TIP3    H240444   0.155   0.081  10.897 -0.1879  0.9148  1.1948
 5417TIP3   OH240445   5.160   2.943   9.914  0.0627 -0.7502  0.0454
 5417TIP3    H140446   5.070   2.921   9.938  0.6388 -0.0869  3.1742
 5417TIP3    H240447   5.174   3.031   9.949  1.5875 -0.3053 -1.5197
 5418TIP3   OH240448   0.621   4.666  11.796 -0.3803  0.3810 -0.5492
 5418TIP3    H140449   0.583   4.583  11.767 -1.1006  0.3942  0.3412
 5418TIP3    H240450   0.708   4.642  11.829 -0.5309  0.0057 -0.4189
 5419TIP3   OH240451   1.300   6.362   9.675  0.2632 -0.5620  0.2894
 5419TIP3    H140452   1.251   6.339   9.754 -1.3336 -1.1150 -0.8060
 5419TIP3    H240453   1.375   6.302   9.676 -1.0677 -2.3349  0.1479
 5420TIP3   OH240454   6.195   6.650   9.599 -0.1380 -0.3179 -0.5065
 5420TIP3    H140455   6.187   6.607   9.514  0.8362 -0.2189 -0.6622
 5420TIP3    H240456   6.175   6.742   9.581  0.8873 -0.1360 -0.8195
 5421TIP3   OH240457   5.776   3.101   9.433 -0.1700 -0.5867  0.3530
 5421TIP3    H140458   5.684   3.129   9.429  0.5086  1.7308 -1.1339
 5421TIP3    H240459   5.802   3.116   9.524 -0.8363  0.2575  0.4150
 5422TIP3   OH240460   4.641   2.263  10.667 -0.2770 -0.1679 -0.2983
 5422TIP3    H140461   4.623   2.169  10.662  1.4741 -0.4764 -2.2577
 5422TIP3    H240462   4.579   2.302  10.605 -1.3769  0.0831  0.9143
 5423TIP3   OH240463   2.520   2.195   9.338 -0.3528  0.2453  0.0049
 5423TIP3    H140464   2.479   2.146   9.267  0.6411 -1.2576  0.4240
 5423TIP3    H240465   2.564   2.268   9.295  1.0737 -1.1846 -1.0728
 5424TIP3   OH240466   4.805   3.562   9.702  0.1136  0.0859  0.6833
 5424TIP3    H140467   4.812   3.505   9.779 -1.4802  1.7603  2.1891
 5424TIP3    H240468   4.715   3.549   9.671 -0.3898  1.9099  1.2446
 5425TIP3   OH240469   3.681   2.887  11.313  0.4287  0.4603  0.2614
 5425TIP3    H140470   3.652   2.811  11.262  1.3884 -0.0545  0.4650
 5425TIP3    H240471   3.614   2.898  11.380  0.8684 -0.9678  0.9911
 5426TIP3   OH240472   4.657   4.794  10.875 -0.2387 -0.1861  0.1828
 5426TIP3    H140473   4.631   4.848  10.950 -1.4107 -0.4645 -0.0079
 5426TIP3    H240474   4.696   4.716  10.914 -0.5166 -0.1719  0.4893
 5427TIP3   OH240475   5.238   1.191  10.960 -0.6427 -0.5637  0.5451
 5427TIP3    H140476   5.264   1.276  10.994 -0.0385 -1.0132  1.2289
 5427TIP3    H240477   5.203   1.144  11.035 -0.3837 -1.1473  0.3044
 5428TIP3   OH240478   6.571   2.416  10.467 -0.3670 -0.2237  0.4217
 5428TIP3    H140479   6.549   2.337  10.418  1.3763 -0.0620 -0.7278
 5428TIP3    H240480   6.512   2.483  10.433 -0.7165 -0.6430  0.1914
 5429TIP3   OH240481   2.398   2.802  11.702 -0.5209  0.1192  0.1895
 5429TIP3    H140482   2.453   2.732  11.668 -0.8721 -0.6590  1.1742
 5429TIP3    H240483   2.309   2.768  11.694 -0.7740  0.8383 -0.1701
 5430TIP3   OH240484   0.109   2.659  10.774 -0.1177  0.1383  0.0831
 5430TIP3    H140485   0.173   2.723  10.744 -0.9611  1.1141  0.3022
 5430TIP3    H240486   0.140   2.630  10.860  0.6331 -0.2860 -0.3220
 5431TIP3   OH240487   4.021   4.969  11.318 -0.5291 -0.3524 -0.8714
 5431TIP3    H140488   4.097   4.913  11.333  0.7661  1.0557 -1.9127
 5431TIP3    H240489   4.022   4.986  11.224 -0.4066  2.0277 -0.5042
 5432TIP3   OH240490   0.197   4.691  10.435 -0.5899 -0.6934 -0.2690
 5432TIP3    H140491   0.245   4.770  10.462 -0.0925 -1.2384  0.4716
 5432TIP3    H240492   0.105   4.715  10.446 -0.5217  0.2995 -1.5356
 5433TIP3   OH240493   2.976   6.689   9.866  0.2430  0.0882  0.2939
 5433TIP3    H140494   2.964   6.614   9.924  1.1051 -0.0423  0.3137
 5433TIP3    H240495   2.887   6.718   9.845 -0.0930 -0.7591  0.5174
 5434TIP3   OH240496   2.412   6.388  11.740 -0.4454 -0.5745  0.0340
 5434TIP3    H140497   2.395   6.295  11.753 -0.2546 -0.3988  1.8671
 5434TIP3    H240498   2.503   6.393  11.711  0.3268 -0.8955  2.1801
 5435TIP3   OH240499   3.797   5.374   9.965 -0.0694  0.2391  0.0208
 5435TIP3    H140500   3.877   5.331   9.996  0.8019  1.6704 -0.1672
 5435TIP3    H240501   3.736   5.365  10.038  0.5468 -0.1258  0.5041
 5436TIP3   OH240502   0.464   5.438  10.698 -0.2061  0.1599 -0.3253
 5436TIP3    H140503   0.440   5.518  10.744  0.6453 -0.6875  1.7158
 5436TIP3    H240504   0.461   5.370  10.765  0.0360 -1.3624 -1.7872
 5437TIP3   OH240505   5.453   0.606  10.023  0.2828 -0.3188 -0.2686
 5437TIP3    H140506   5.362   0.590  10.050  0.0678 -2.0729 -1.7664
 5437TIP3    H240507   5.505   0.556  10.086  0.2327  0.7419  0.6329
 5438TIP3   OH240508   2.655   6.542  11.535 -0.5113  0.4129 -0.2712
 5438TIP3    H140509   2.604   6.477  11.488 -1.3615 -0.8947  2.2644
 5438TIP3    H240510   2.745   6.508  11.534 -0.5743  0.2613 -0.7140
 5439TIP3   OH240511   6.625   3.668   9.667  0.2353  0.0669  0.0858
 5439TIP3    H140512   6.535   3.695   9.686 -0.5599 -0.8385 -2.0596
 5439TIP3    H240513   6.625   3.650   9.573  3.1047  1.5930 -0.3136
 5440TIP3   OH240514   3.867   0.200  10.151  0.3878 -0.1546 -0.4487
 5440TIP3    H140515   3.839   0.157  10.071 -0.4800 -1.4826  0.5268
 5440TIP3    H240516   3.814   0.160  10.220  0.6796  1.3749  0.7213
 5441TIP3   OH240517   1.203   0.156  12.454  0.5192 -0.3070  0.4224
 5441TIP3    H140518   1.228   0.140  12.545 -1.3868 -1.1707  0.8312
 5441TIP3    H240519   1.145   0.232  12.458  0.0501 -0.6340  0.0111
 5442TIP3   OH240520   6.273   6.264  12.160 -0.5361 -0.2602  0.2047
 5442TIP3    H140521   6.322   6.200  12.108 -1.0646 -0.8517  0.4249
 5442TIP3    H240522   6.194   6.282  12.108  0.6450  1.9913 -0.9974
 5443TIP3   OH240523   2.466   0.690  12.152 -0.1634  0.1986 -0.4195
 5443TIP3    H140524   2.455   0.762  12.214  1.6562 -0.0252  0.2428
 5443TIP3    H240525   2.457   0.611  12.206  2.1682  0.0048 -0.2163
 5444TIP3   OH240526   0.597   0.927  11.287  0.3449  0.0833 -0.1620
 5444TIP3    H140527   0.657   0.910  11.360 -0.8321  0.4135  0.9131
 5444TIP3    H240528   0.612   1.019  11.264 -0.2256  0.3602  0.5602
 5445TIP3   OH240529   1.978   3.998  10.677  0.1627 -0.4246  0.2594
 5445TIP3    H140530   2.039   3.939  10.634  0.5615 -0.2496  0.5827
 5445TIP3    H240531   1.906   3.942  10.705 -1.1127 -0.2742 -2.3875
 5446TIP3   OH240532   4.996   3.175  10.513  0.4777 -0.1987  0.5656
 5446TIP3    H140533   5.009   3.135  10.427 -0.5974 -1.1124  0.8045
 5446TIP3    H240534   5.071   3.144  10.565  0.5205 -0.5709  0.2841
 5447TIP3   OH240535   4.936   0.691  12.248  0.5676  0.3671 -0.2318
 5447TIP3    H140536   4.856   0.677  12.197  1.1661 -1.0603 -0.8177
 5447TIP3    H240537   4.906   0.735  12.327 -0.6685  0.7143 -0.8750
 5448TIP3   OH240538   6.439   3.110   9.920 -0.7706  0.1669 -0.1274
 5448TIP3    H140539   6.396   3.067   9.846  1.3048 -3.1187  0.4005
 5448TIP3    H240540   6.375   3.105   9.991 -0.9805 -1.0889 -0.3951
 5449TIP3   OH240541   3.600   0.074   9.316  0.9069  0.1225  0.2256
 5449TIP3    H140542   3.562   0.131   9.250 -0.7248  0.1272  1.1147
 5449TIP3    H240543   3.525   0.036   9.361  1.9716 -0.9229  1.1902
 5450TIP3   OH240544   6.435   2.413   9.776 -0.5277  0.0774 -0.5253
 5450TIP3    H140545   6.522   2.451   9.788 -0.2988 -0.8681  1.1191
 5450TIP3    H240546   6.447   2.348   9.707  0.8080 -2.0074  1.5007
 5451TIP3   OH240547   1.716   2.489   9.730  0.1633  0.0818  0.5092
 5451TIP3    H140548   1.765   2.569   9.747 -1.3137  0.8148  1.5133
 5451TIP3    H240549   1.728   2.472   9.636 -0.8130  2.4153 -0.1045
 5452TIP3   OH240550   6.589   6.639  13.150 -0.2336 -0.4199 -0.1114
 5452TIP3    H140551   6.623   6.578  13.215 -0.5069  0.5858  1.0300
 5452TIP3    H240552   6.524   6.691  13.199 -0.8102  0.0260 -1.3257
 5453TIP3   OH240553   5.048   6.473  11.949 -0.2039  0.1227 -0.0044
 5453TIP3    H140554   5.011   6.474  12.038  2.1263 -0.6691  1.0418
 5453TIP3    H240555   5.116   6.540  11.951 -0.4480  0.4242 -1.3576
 5454TIP3   OH240556   2.495   5.129   9.629 -0.3654  0.0627  0.3365
 5454TIP3    H140557   2.573   5.104   9.678 -0.3115  0.8079  0.6488
 5454TIP3    H240558   2.489   5.066   9.558  1.1506  0.6508 -0.3424
 5455TIP3   OH240559   2.680   2.003  10.483  0.0837  0.7516 -1.2153
 5455TIP3    H140560   2.687   2.046  10.397 -2.3431 -0.8900 -2.3556
 5455TIP3    H240561   2.705   1.913  10.466 -0.4873  0.3879 -0.1946
 5456TIP3   OH240562   1.428   0.485  10.138 -0.5300 -0.2161 -0.2033
 5456TIP3    H140563   1.495   0.419  10.151  0.3564  1.0961  2.7718
 5456TIP3    H240564   1.461   0.562  10.184 -3.2207  1.0922 -0.2715
 5457TIP3   OH240565   0.872   3.664  10.975 -0.5729  0.6527 -0.7583
 5457TIP3    H140566   0.939   3.726  11.004 -0.1374  0.4886 -1.4097
 5457TIP3    H240567   0.791   3.697  11.015  0.1236 -0.0762  1.4435
 5458TIP3   OH240568   3.172   5.712   9.763  0.4385 -0.2888  0.1834
 5458TIP3    H140569   3.143   5.762   9.686  0.2128 -0.5848  0.0743
 5458TIP3    H240570   3.093   5.704   9.817 -0.1209 -2.4794 -0.8623
 5459TIP3   OH240571   6.404   4.624   9.235 -0.4564 -0.2143 -0.2938
 5459TIP3    H140572   6.480   4.672   9.268 -1.4857  0.5455  1.0619
 5459TIP3    H240573   6.442   4.554   9.181  1.2238 -0.1231  0.6901
 5460TIP3   OH240574   5.571   1.730  12.026  0.2895 -0.3496  0.1292
 5460TIP3    H140575   5.592   1.638  12.014  0.8200 -0.3359  0.8516
 5460TIP3    H240576   5.513   1.732  12.103 -1.3947 -0.2599 -1.0834
 5461TIP3   OH240577   2.203   1.540  11.679  0.2850 -0.4363 -0.1306
 5461TIP3    H140578   2.295   1.556  11.660 -0.1932  2.6642 -0.4048
 5461TIP3    H240579   2.193   1.559  11.772 -0.0738 -0.9062 -0.0660
 5462TIP3   OH240580   2.991   2.184   9.848 -0.1519 -0.4803  0.8669
 5462TIP3    H140581   3.084   2.167   9.833 -0.1595  0.0740  0.1209
 5462TIP3    H240582   2.952   2.181   9.761 -1.0171 -1.6699  1.2723
 5463TIP3   OH240583   3.449   6.197   9.820 -0.3800  0.5442  0.5845
 5463TIP3    H140584   3.422   6.115   9.779  0.1505  0.8600 -0.4340
 5463TIP3    H240585   3.384   6.212   9.889 -0.1153 -1.0381  1.2073
 5464TIP3   OH240586   4.180   4.253  11.387  0.3451  0.0855  0.5995
 5464TIP3    H140587   4.264   4.221  11.356  1.1202  0.7150  1.9744
 5464TIP3    H240588   4.165   4.207  11.470 -0.2307  0.6361  0.8086
 5465TIP3   OH240589   0.351   5.607  12.904 -0.0909 -0.0866 -0.0548
 5465TIP3    H140590   0.288   5.561  12.849  0.9047  0.3082 -1.5743
 5465TIP3    H240591   0.435   5.595  12.860  1.2900 -2.0973  2.8171
 5466TIP3   OH240592   4.001   1.333  10.116 -0.0398 -0.1229  0.8914
 5466TIP3    H140593   4.096   1.318  10.123  0.0468  0.0006  0.0556
 5466TIP3    H240594   3.992   1.428  10.127 -0.0791 -0.1444  1.0513
 5467TIP3   OH240595   4.652   2.081  11.682 -0.1588  0.2906 -1.3900
 5467TIP3    H140596   4.720   2.113  11.740  0.0173 -0.5398 -1.1263
 5467TIP3    H240597   4.573   2.081  11.736 -0.0180 -0.3721 -1.1731
 5468TIP3   OH240598   5.349   2.093  11.689  0.2513 -0.3645  0.0468
 5468TIP3    H140599   5.354   2.000  11.711 -0.0775 -0.2192  0.7547
 5468TIP3    H240600   5.425   2.132  11.732  1.2424 -0.5210 -1.4686
 5469TIP3   OH240601   5.362   2.879  11.082 -0.5450  0.1807  0.3352
 5469TIP3    H140602   5.312   2.960  11.081 -0.6261  0.1403  1.0260
 5469TIP3    H240603   5.302   2.813  11.045 -0.5128  0.4051 -0.1315
 5470TIP3   OH240604   2.154   1.864  11.539  0.3304  0.0921  0.2592
 5470TIP3    H140605   2.224   1.839  11.479  0.0717  0.7944 -0.3458
 5470TIP3    H240606   2.098   1.786  11.545 -0.2230  0.3427 -1.2400
 5471TIP3   OH240607   2.239   1.142  12.338 -0.4525  0.0964  0.2233
 5471TIP3    H140608   2.225   1.213  12.401 -0.8732 -0.6814  1.0190
 5471TIP3    H240609   2.257   1.065  12.391 -0.0227 -0.4150 -0.6324
 5472TIP3   OH240610   0.459   4.021  10.440 -0.3902  0.1589 -0.0727
 5472TIP3    H140611   0.510   3.945  10.411 -1.7274 -0.6162 -0.4576
 5472TIP3    H240612   0.380   4.019  10.387 -0.9159  1.2528  0.6254
 5473TIP3   OH240613   0.735   0.284   9.502 -0.3310 -0.0942  1.0161
 5473TIP3    H140614   0.672   0.297   9.431 -0.1103 -0.3343  0.7754
 5473TIP3    H240615   0.812   0.247   9.460 -0.2653 -0.4163  1.4120
 5474TIP3   OH240616   3.082   6.315   9.627  0.1485 -0.1013 -0.3409
 5474TIP3    H140617   3.042   6.390   9.584  0.4413  0.3942  0.2308
 5474TIP3    H240618   3.026   6.241   9.604 -2.6099  0.9172  2.3895
 5475TIP3   OH240619   3.597   1.108   9.708 -0.1285  0.4856  0.1849
 5475TIP3    H140620   3.625   1.157   9.785  1.3081 -2.0233  1.3658
 5475TIP3    H240621   3.537   1.042   9.741 -1.9291  1.2585 -1.3494
 5476TIP3   OH240622   3.955   4.987  11.603  0.1277 -0.1881 -0.6149
 5476TIP3    H140623   3.989   5.054  11.663 -0.5444 -0.5579  0.2076
 5476TIP3    H240624   3.975   5.020  11.516  2.4410 -0.3040 -0.1930
 5477TIP3   OH240625   6.153   3.661  10.719  0.3770  0.2682 -0.4874
 5477TIP3    H140626   6.174   3.596  10.652  0.2457 -0.1743 -0.1035
 5477TIP3    H240627   6.058   3.672  10.713  0.1839 -0.7470  0.4975
 5478TIP3   OH240628   0.235   0.123  12.374  0.3151  0.3114 -0.4506
 5478TIP3    H140629   0.238   0.101  12.281 -0.3050  1.5827 -0.8018
 5478TIP3    H240630   0.214   0.217  12.375  2.6815  0.8947  0.9194
 5479TIP3   OH240631   1.339   1.672  10.693 -0.0064 -0.1149  0.1288
 5479TIP3    H140632   1.336   1.643  10.602 -3.0410  0.8394 -0.2124
 5479TIP3    H240633   1.379   1.599  10.741 -0.6616 -1.7106 -1.6386
 5480TIP3   OH240634   2.673   0.488   9.146 -0.3284 -0.2975 -1.3211
 5480TIP3    H140635   2.692   0.408   9.097  0.4975 -0.5318 -0.6437
 5480TIP3    H240636   2.749   0.544   9.129  0.3162 -0.6654  0.2667
 5481TIP3   OH240637   0.672   1.686   9.527 -0.7884  0.1277 -0.4366
 5481TIP3    H140638   0.611   1.698   9.599  0.1080 -1.0162  0.5676
 5481TIP3    H240639   0.633   1.616   9.474 -0.3873 -0.6122  0.2108
 5482TIP3   OH240640   1.177   6.178  11.318 -0.1074 -0.1253 -0.4295
 5482TIP3    H140641   1.253   6.128  11.349  0.5290  1.4214  0.6300
 5482TIP3    H240642   1.125   6.193  11.397 -0.1446  1.1037 -0.6749
 5483TIP3   OH240643   1.739   2.236   9.514 -0.3552  0.2235 -0.2352
 5483TIP3    H140644   1.650   2.200   9.507  0.0684 -0.7149 -0.9920
 5483TIP3    H240645   1.734   2.321   9.471 -0.9978  0.3898  0.1589
 5484TIP3   OH240646   5.929   1.242  12.621  0.5604  0.9129  0.0912
 5484TIP3    H140647   5.862   1.177  12.602 -0.7130  2.3158 -0.4161
 5484TIP3    H240648   6.005   1.215  12.570 -0.1471  0.1597 -0.5814
 5485TIP3   OH240649   2.252   0.929  10.382  0.2507 -0.4542  0.0696
 5485TIP3    H140650   2.167   0.971  10.394  1.1229  1.3371  0.3140
 5485TIP3    H240651   2.308   0.998  10.347  1.4605 -1.7606 -0.6685
 5486TIP3   OH240652   3.115   1.312   9.416 -0.2416  0.4606  0.4992
 5486TIP3    H140653   3.096   1.243   9.353 -0.4304  0.0937  0.9584
 5486TIP3    H240654   3.044   1.375   9.405  0.4018  1.0352 -0.5463
 5487TIP3   OH240655   3.297   5.944  12.185  0.2347  0.1136  0.3122
 5487TIP3    H140656   3.375   5.890  12.201 -0.0901 -0.9808 -1.5176
 5487TIP3    H240657   3.227   5.882  12.170 -0.5782  1.0731 -0.0066
 5488TIP3   OH240658   6.231   5.872   9.264 -0.0206  0.0096  0.3199
 5488TIP3    H140659   6.174   5.942   9.233  0.6074  0.8467  0.9939
 5488TIP3    H240660   6.320   5.907   9.255  0.3872 -1.1729 -0.4718
 5489TIP3   OH240661   4.440   0.283  12.315 -0.1528  0.1826  0.1152
 5489TIP3    H140662   4.353   0.277  12.275 -0.5977  2.0364  0.6906
 5489TIP3    H240663   4.433   0.356  12.377  1.6871  0.0779  0.5148
 5490TIP3   OH240664   4.448   3.380  10.491 -0.3256 -0.1554 -0.5346
 5490TIP3    H140665   4.466   3.287  10.477 -0.8245 -0.4232  0.4613
 5490TIP3    H240666   4.488   3.399  10.576  0.4312  0.7403 -1.0734
 5491TIP3   OH240667   0.549   6.314  10.880 -0.2838  0.1007  0.2021
 5491TIP3    H140668   0.624   6.320  10.939 -0.1563  0.1073  0.0387
 5491TIP3    H240669   0.585   6.276  10.800 -0.8146 -1.7781  0.7882
 5492TIP3   OH240670   3.443   4.976  11.058 -0.1924 -0.5921 -0.3420
 5492TIP3    H140671   3.357   4.995  11.097  0.9853 -0.5219  2.4673
 5492TIP3    H240672   3.469   5.059  11.018 -1.5901 -0.7451 -1.6669
 5493TIP3   OH240673   1.317   3.477  10.487 -0.6717 -0.4974 -0.1155
 5493TIP3    H140674   1.313   3.406  10.423 -2.0743 -1.0324  0.5291
 5493TIP3    H240675   1.272   3.442  10.564  0.4464  0.3524  0.9629
 5494TIP3   OH240676   0.976   5.367  11.455 -0.0927  0.1614 -0.5678
 5494TIP3    H140677   0.946   5.277  11.465 -1.7862  0.6507 -0.8963
 5494TIP3    H240678   1.066   5.366  11.487 -0.8520 -1.1230  1.7292
 5495TIP3   OH240679   5.131   1.945  12.767  0.2222 -0.6234  0.1512
 5495TIP3    H140680   5.193   1.947  12.694  2.0410  0.5026  1.6261
 5495TIP3    H240681   5.060   1.890  12.737  0.7247  0.0978 -2.6047
 5496TIP3   OH240682   1.053   3.681  12.087  0.2516  0.1318 -0.3268
 5496TIP3    H140683   0.998   3.644  12.155  1.3198 -0.1168  0.4221
 5496TIP3    H240684   1.141   3.681  12.124  0.7494  0.6208 -1.4522
 5497TIP3   OH240685   3.058   3.524  11.718 -0.4895  0.5008  0.2678
 5497TIP3    H140686   2.964   3.505  11.719 -0.4240 -0.0666 -1.2009
 5497TIP3    H240687   3.097   3.445  11.680  0.4763  1.1134 -0.0422
 5498TIP3   OH240688   0.518   0.288  12.568  0.1856  0.2008 -0.0246
 5498TIP3    H140689   0.542   0.374  12.533  0.6598 -0.1263 -0.5236
 5498TIP3    H240690   0.600   0.239  12.568 -0.3610 -0.7605 -1.2165
 5499TIP3   OH240691   3.750   1.758   9.516 -0.2836 -0.0573  0.1626
 5499TIP3    H140692   3.685   1.695   9.547 -1.1444  0.7744  0.1083
 5499TIP3    H240693   3.741   1.833   9.576  0.4472  0.1752 -0.0082
 5500TIP3   OH240694   2.242   5.516  10.679  0.9056  0.9330 -0.3691
 5500TIP3    H140695   2.221   5.498  10.771 -0.9962  1.3664 -0.6698
 5500TIP3    H240696   2.233   5.611  10.671 -1.1425  0.6895 -1.4608
 5501TIP3   OH240697   5.142   2.351  10.057 -0.0667 -0.0454 -0.5252
 5501TIP3    H140698   5.159   2.444  10.045  0.4121 -0.0386  0.1894
 5501TIP3    H240699   5.194   2.309   9.989 -2.9740  0.3372 -3.2471
 5502TIP3   OH240700   5.880   1.934   9.555 -0.2445  0.2783 -0.0830
 5502TIP3    H140701   5.855   2.020   9.520 -1.4542  0.0258  0.1234
 5502TIP3    H240702   5.938   1.897   9.488 -2.1611 -0.0177 -1.6919
 5503TIP3   OH240703   2.103   1.059   9.399 -0.0431  0.0985 -0.0983
 5503TIP3    H140704   2.174   1.117   9.373 -0.0113  0.8676  1.6098
 5503TIP3    H240705   2.127   0.974   9.362  0.3058  0.9429 -1.9679
 5504TIP3   OH240706   1.334   4.146  11.702  0.4872  0.3950 -0.2533
 5504TIP3    H140707   1.266   4.148  11.634 -0.4946  1.4293  0.7195
 5504TIP3    H240708   1.326   4.231  11.746  3.1982  1.0319 -0.8431
 5505TIP3   OH240709   0.966   0.105   9.737 -0.1671 -0.5681  0.6188
 5505TIP3    H140710   1.029   0.173   9.711 -0.2173  0.1383  2.2425
 5505TIP3    H240711   0.893   0.115   9.676  1.1550 -1.2865 -1.1955
 5506TIP3   OH240712   2.944   4.561  11.874 -0.5581  0.2387 -0.4380
 5506TIP3    H140713   2.918   4.623  11.806 -1.6616  0.1703 -0.1006
 5506TIP3    H240714   2.982   4.487  11.826 -2.6400 -0.4608 -1.1375
 5507TIP3   OH240715   6.204   3.921  10.994 -0.0655  0.0146 -0.2117
 5507TIP3    H140716   6.289   3.921  10.951 -0.0413 -0.3251 -0.1626
 5507TIP3    H240717   6.145   3.876  10.933 -0.4755  1.2568 -0.7631
 5508TIP3   OH240718   4.340   0.802  11.915 -0.2688 -0.4547 -0.0878
 5508TIP3    H140719   4.408   0.736  11.904  1.9382  2.0525 -3.2372
 5508TIP3    H240720   4.370   0.855  11.989  1.5384  0.8215 -1.6423
 5509TIP3   OH240721   4.777   6.487   9.742  0.4119 -0.2375  0.1290
 5509TIP3    H140722   4.813   6.516   9.658  1.2718 -2.9864 -0.5845
 5509TIP3    H240723   4.835   6.525   9.807  0.1817  1.3365 -0.5502
 5510TIP3   OH240724   6.338   0.314  10.155  0.1037  0.3963  0.4723
 5510TIP3    H140725   6.353   0.345  10.244  3.0641 -1.8596  0.8943
 5510TIP3    H240726   6.346   0.219  10.161 -0.9608  0.0723 -2.0061
 5511TIP3   OH240727   0.193   2.036   9.691 -0.6330 -0.0904 -0.4399
 5511TIP3    H140728   0.105   2.052   9.656 -1.0701 -0.7859  0.3069
 5511TIP3    H240729   0.184   2.046   9.786 -0.0234 -0.6691 -0.3103
 5512TIP3   OH240730   3.612   6.249   9.605  0.4463  0.0891  0.4887
 5512TIP3    H140731   3.580   6.262   9.694  0.2486  0.7680  0.3182
 5512TIP3    H240732   3.645   6.334   9.578 -0.1463  0.0668 -0.3471
 5513TIP3   OH240733   1.580   4.594  10.695  0.3489  0.2005 -0.7166
 5513TIP3    H140734   1.669   4.561  10.708  0.1730  0.0923  0.2643
 5513TIP3    H240735   1.533   4.520  10.656 -0.3691 -1.2840  2.5846
 5514TIP3   OH240736   0.830   2.024  10.355  0.3233  0.0957 -0.0509
 5514TIP3    H140737   0.823   2.052  10.446  1.7240 -1.2085  0.5085
 5514TIP3    H240738   0.833   2.105  10.305  2.1622  0.9343  1.3056
 5515TIP3   OH240739   4.916   5.154  11.776  0.3089 -0.1060 -0.0673
 5515TIP3    H140740   4.955   5.074  11.811 -1.8960 -1.1387  0.2362
 5515TIP3    H240741   4.917   5.142  11.681  0.6632 -0.1703 -0.0533
 5516TIP3   OH240742   1.737   1.187  10.437  0.1263  0.7482 -0.3653
 5516TIP3    H140743   1.764   1.100  10.465  0.0950  1.1954  1.1388
 5516TIP3    H240744   1.674   1.171  10.366  1.7182 -0.3637 -1.5898
 5517TIP3   OH240745   1.484   4.393  17.499 -0.1822 -0.0871  0.1474
 5517TIP3    H140746   1.541   4.374  17.425 -1.2447 -1.4824 -0.3538
 5517TIP3    H240747   1.464   4.308  17.538  0.4457  0.6130  2.1544
 5518TIP3   OH240748   1.799   2.690  10.042 -0.7299 -0.3522 -0.3704
 5518TIP3    H140749   1.820   2.617  10.100  0.2462 -1.3390 -1.9047
 5518TIP3    H240750   1.848   2.765  10.077  0.0928 -1.0099 -0.1057
 5519TIP3   OH240751   5.012   1.242  11.809  0.5875  0.2015  0.4675
 5519TIP3    H140752   5.055   1.181  11.750  0.6616  0.5447  0.1587
 5519TIP3    H240753   4.928   1.261  11.768  1.1920  1.4841 -0.2393
 5520TIP3   OH240754   1.085   0.545  11.779  0.2028  0.2775  0.4585
 5520TIP3    H140755   1.061   0.541  11.687 -0.2185 -0.4846  0.5994
 5520TIP3    H240756   1.181   0.546  11.779  0.2600 -1.6905  0.0639
 5521TIP3   OH240757   2.106   5.561   9.615 -0.0464  0.3036  0.1192
 5521TIP3    H140758   2.197   5.547   9.588  0.0654  0.3800  0.4590
 5521TIP3    H240759   2.107   5.645   9.660 -0.1645  0.0122  0.6820
 5522TIP3   OH240760   5.490   5.705  10.592 -0.3624  0.1512 -0.0300
 5522TIP3    H140761   5.539   5.735  10.515 -1.4987 -2.0240 -1.7238
 5522TIP3    H240762   5.400   5.731  10.575 -0.6168 -0.2999  0.5980
 5523TIP3   OH240763   5.966   4.088  11.048  0.1695  0.1046 -0.2243
 5523TIP3    H140764   5.936   4.053  11.131 -0.5732  1.0279 -0.0802
 5523TIP3    H240765   6.053   4.051  11.036  0.6959  0.7131  1.4443
 5524TIP3   OH240766   2.541   5.661  10.785 -0.3806 -0.0286 -0.0990
 5524TIP3    H140767   2.515   5.570  10.770 -2.1552  0.6287 -1.3611
 5524TIP3    H240768   2.553   5.668  10.880 -2.2314 -1.0899  0.2476
 5525TIP3   OH240769   4.188   1.098   9.580  0.6766 -0.3472  0.0961
 5525TIP3    H140770   4.173   1.004   9.564  0.8894 -0.2085 -0.9572
 5525TIP3    H240771   4.256   1.122   9.518 -1.8835  1.3198 -2.2999
 5526TIP3   OH240772   5.879   3.333  11.010  0.1329 -0.1383 -0.3128
 5526TIP3    H140773   5.890   3.254  11.064 -0.8649 -0.1076 -0.0530
 5526TIP3    H240774   5.947   3.325  10.942  0.6950 -0.7127  0.3000
 5527TIP3   OH240775   0.073   2.509  11.837  0.0001  0.1411  0.5144
 5527TIP3    H140776   0.094   2.434  11.892 -1.7888 -0.6573  0.1641
 5527TIP3    H240777   0.024   2.568  11.894 -0.1398  0.2243  0.3099
 5528TIP3   OH240778   6.432   4.826  10.214  0.2800  0.4418  0.3105
 5528TIP3    H140779   6.459   4.917  10.204 -0.1143  0.5528  0.2611
 5528TIP3    H240780   6.490   4.777  10.156 -0.6950  0.8618 -1.0651
 5529TIP3   OH240781   1.696   4.377  20.178 -0.6997 -0.3567  0.2898
 5529TIP3    H140782   1.762   4.394  20.245  0.1777  1.2601 -0.9168
 5529TIP3    H240783   1.744   4.381  20.095 -2.6756  4.3424 -0.9595
 5530TIP3   OH240784   1.550   3.698  11.311  0.2022  0.1424 -0.2002
 5530TIP3    H140785   1.644   3.687  11.296  0.4091 -0.0076  1.0632
 5530TIP3    H240786   1.511   3.698  11.223  1.2725 -0.8316 -0.7048
 5531TIP3   OH240787   6.210   4.706  12.507  0.2332  0.1048 -0.0391
 5531TIP3    H140788   6.219   4.611  12.499  1.2323  0.3378 -3.1577
 5531TIP3    H240789   6.300   4.738  12.508 -0.0925  1.0721 -0.5057
 5532TIP3   OH240790   6.218   5.453  12.416  0.2674 -1.3766  0.2937
 5532TIP3    H140791   6.267   5.533  12.396  1.1602 -2.1049 -0.5966
 5532TIP3    H240792   6.169   5.473  12.495 -0.9600  0.6462 -0.9026
 5533TIP3   OH240793   1.698   3.246  11.343 -0.1532 -0.3856 -0.6330
 5533TIP3    H140794   1.663   3.241  11.432 -1.3749  0.6092 -1.0282
 5533TIP3    H240795   1.637   3.303  11.296  1.2760  0.3135 -1.7331
 5534TIP3   OH240796   2.622   0.636  11.455  0.1705  0.3527  0.1121
 5534TIP3    H140797   2.664   0.695  11.393  1.3337 -0.6311 -0.0631
 5534TIP3    H240798   2.550   0.597  11.405  0.4094  0.3994 -0.2740
 5535TIP3   OH240799   5.156   4.807  10.037 -0.6126 -0.2358  0.3359
 5535TIP3    H140800   5.098   4.842  10.105 -1.1920  1.0671 -0.7589
 5535TIP3    H240801   5.196   4.885   9.999 -0.7503 -0.8722 -1.1768
 5536TIP3   OH240802   3.417   1.149  10.729  0.3066  0.1661 -0.6831
 5536TIP3    H140803   3.371   1.219  10.683  0.2315 -0.4285 -1.5462
 5536TIP3    H240804   3.459   1.098  10.659 -0.4703 -1.2388 -0.1684
 5537TIP3   OH240805   1.319   4.289   9.899  0.4005 -0.1360 -0.1635
 5537TIP3    H140806   1.306   4.194   9.899 -0.4213 -0.0328 -0.6860
 5537TIP3    H240807   1.232   4.324   9.914 -0.0325  0.6125 -3.7574
 5538TIP3   OH240808   5.148   1.977  11.443  0.1232 -0.1087  0.4295
 5538TIP3    H140809   5.227   1.960  11.392  0.4929 -2.4670  1.6691
 5538TIP3    H240810   5.076   1.943  11.389  0.0038  1.2255 -0.3011
 5539TIP3   OH240811   1.216   6.482  11.983  0.1623 -0.0433  0.2566
 5539TIP3    H140812   1.266   6.439  12.053  1.1886 -0.1314 -0.5072
 5539TIP3    H240813   1.251   6.571  11.981 -1.0870  0.4842  0.9991
 5540TIP3   OH240814   5.252   1.088  11.932 -0.0696  0.1985  0.5142
 5540TIP3    H140815   5.237   1.177  11.966 -0.6716  0.7020 -0.9770
 5540TIP3    H240816   5.342   1.068  11.957 -0.0946  1.0258  1.3233
 5541TIP3   OH240817   6.675   5.438  10.912  0.6568  0.1840 -0.0315
 5541TIP3    H140818   6.717   5.465  10.994 -1.0465  1.5599  0.4426
 5541TIP3    H240819   6.586   5.413  10.937  0.3003  0.0244 -1.3775
 5542TIP3   OH240820   4.120   0.505  12.015 -0.5622  0.7113  0.3055
 5542TIP3    H140821   4.153   0.536  12.099  0.6209  1.6151 -0.4682
 5542TIP3    H240822   4.035   0.547  12.005 -0.2064  1.5131  0.5498
 5543TIP3   OH240823   2.086   5.161  11.399  0.1867 -0.2584  0.4267
 5543TIP3    H140824   2.013   5.135  11.455 -0.6007  0.1129 -0.3796
 5543TIP3    H240825   2.133   5.227  11.450 -2.0299  2.0367 -0.2550
 5544TIP3   OH240826   4.677   0.764  10.111  0.5502 -0.2216  0.0640
 5544TIP3    H140827   4.591   0.789  10.076  1.0019  2.0973  0.4178
 5544TIP3    H240828   4.727   0.736  10.034 -0.1375 -0.4124 -0.3235
 5545TIP3   OH240829   3.341   0.134  10.939  0.4460  0.5097 -0.2104
 5545TIP3    H140830   3.282   0.140  10.864 -0.9191  0.8145  0.8411
 5545TIP3    H240831   3.353   0.225  10.968  0.9892  0.3987 -0.0727
 5546TIP3   OH240832   1.599   0.636  10.298 -0.4660 -0.0477  0.3036
 5546TIP3    H140833   1.666   0.692  10.258 -0.7295 -0.1196 -0.2461
 5546TIP3    H240834   1.586   0.674  10.385  1.5512 -1.0764  1.1150
 5547TIP3   OH240835   0.058   3.322  11.427  0.2633  0.1665  0.0199
 5547TIP3    H140836   0.053   3.264  11.350  2.3250  0.7218 -0.6189
 5547TIP3    H240837   0.088   3.265  11.498 -1.4036 -0.2961  0.3903
 5548TIP3   OH240838   4.674   3.920  10.232  0.4859  0.0990 -0.3130
 5548TIP3    H140839   4.752   3.976  10.228 -1.3557  2.8298 -4.2619
 5548TIP3    H240840   4.627   3.950  10.310  2.6559 -0.7658  1.4406
 5549TIP3   OH240841   4.722   5.523  10.991 -0.1939 -0.2795 -0.0699
 5549TIP3    H140842   4.647   5.520  10.932 -0.6498 -0.1780  0.4993
 5549TIP3    H240843   4.785   5.580  10.946  0.1591 -1.5355 -1.2355
 5550TIP3   OH240844   3.428   1.580   8.758  0.0041 -0.5798  0.1403
 5550TIP3    H140845   3.483   1.653   8.788 -2.0566  0.2777  2.1100
 5550TIP3    H240846   3.491   1.517   8.723  2.2736  0.4458  2.0039
 5551TIP3   OH240847   2.804   0.359  11.829 -0.1807  0.0130  0.0534
 5551TIP3    H140848   2.747   0.419  11.877  0.5002  2.1825 -1.6825
 5551TIP3    H240849   2.873   0.337  11.891  0.7772  2.8727  0.1347
 5552TIP3   OH240850   3.145   3.823  11.044  0.3539 -0.2146 -0.0534
 5552TIP3    H140851   3.213   3.841  10.979 -0.6022 -0.6757 -1.2231
 5552TIP3    H240852   3.065   3.857  11.006 -0.1805 -0.1651  1.0658
 5553TIP3   OH240853   0.944   4.179  10.805 -0.3372 -0.8561  0.2568
 5553TIP3    H140854   0.937   4.181  10.709 -0.3444 -0.3088  0.2609
 5553TIP3    H240855   0.915   4.267  10.832  0.4428 -0.7248  0.7012
 5554TIP3   OH240856   3.769   0.791  12.331  0.1078 -0.0967  0.3301
 5554TIP3    H140857   3.865   0.788  12.327  0.1793  0.9308  0.9246
 5554TIP3    H240858   3.749   0.767  12.422 -0.2682 -1.3534 -0.0639
 5555TIP3   OH240859   5.016   5.004  10.180  0.0218 -0.2418 -0.2375
 5555TIP3    H140860   4.986   5.022  10.270  1.6750 -2.3831  0.8540
 5555TIP3    H240861   4.972   5.070  10.126 -3.1201 -0.4842  1.7538
 5556TIP3   OH240862   4.396   0.996  11.452 -0.1482  0.5184 -0.3832
 5556TIP3    H140863   4.448   0.950  11.386 -0.6513  1.2918 -1.3456
 5556TIP3    H240864   4.307   0.996  11.416 -0.1976  2.0576 -0.3151
 5557TIP3   OH240865   0.920   0.512  10.688 -0.3648 -0.7328  0.1598
 5557TIP3    H140866   0.896   0.474  10.604 -0.7478 -1.1911  0.4665
 5557TIP3    H240867   1.008   0.479  10.706 -0.8647 -1.8646  0.6312
 5558TIP3   OH240868   5.529   4.883  11.422  0.4438 -0.1819  0.4305
 5558TIP3    H140869   5.455   4.823  11.427  1.2466 -1.3450 -0.9998
 5558TIP3    H240870   5.599   4.832  11.382  2.5624  0.3809  3.1008
 5559TIP3   OH240871   6.090   4.063  10.136  0.4943  0.1335 -0.9293
 5559TIP3    H140872   6.063   4.153  10.119  0.3793 -0.1334 -2.2194
 5559TIP3    H240873   6.184   4.069  10.154  0.1569  0.7195  0.8551
 5560TIP3   OH240874   5.784   5.253  12.343 -0.6204  0.4578 -0.9637
 5560TIP3    H140875   5.877   5.238  12.329 -0.6489 -2.2120  1.0715
 5560TIP3    H240876   5.777   5.281  12.434 -1.8118  1.0553 -1.2179
 5561TIP3   OH240877   0.644   6.093  11.154  0.3725  0.6693 -0.1627
 5561TIP3    H140878   0.633   6.053  11.068  1.5876 -2.5142  1.0296
 5561TIP3    H240879   0.594   6.036  11.213  1.2733  1.5491  1.5124
 5562TIP3   OH240880   5.555   3.902  11.668  0.0990 -0.1672 -0.2690
 5562TIP3    H140881   5.553   3.823  11.613 -2.6136 -1.0225  0.9095
 5562TIP3    H240882   5.605   3.876  11.745 -0.0700 -0.4699 -0.2600
 5563TIP3   OH240883   6.115   2.035  12.776  0.5451 -0.4768 -0.5052
 5563TIP3    H140884   6.149   1.947  12.759  0.6130 -0.6281  0.3737
 5563TIP3    H240885   6.084   2.031  12.867  1.5364  0.7094 -0.0940
 5564TIP3   OH240886   5.935   3.392   9.557 -0.2307  0.4404 -0.2931
 5564TIP3    H140887   5.883   3.439   9.622 -0.8050 -2.3490  1.4276
 5564TIP3    H240888   5.883   3.396   9.477 -1.9135 -0.0541  0.7126
 5565TIP3   OH240889   1.247   5.308   9.591  0.2662 -0.1410  0.1177
 5565TIP3    H140890   1.232   5.325   9.498  0.5336 -0.0928  0.0816
 5565TIP3    H240891   1.176   5.251   9.617  0.9034 -1.2055 -0.4304
 5566TIP3   OH240892   0.590   2.062   9.794  0.1614  0.4956 -0.4192
 5566TIP3    H140893   0.603   1.968   9.784  0.1318  0.7115 -4.2426
 5566TIP3    H240894   0.510   2.071   9.845  0.5458 -1.5054  0.6186
 5567TIP3   OH240895   6.699   1.495   9.441 -0.4001 -0.2753 -0.3378
 5567TIP3    H140896   6.622   1.535   9.400 -0.4241 -0.8052 -0.8331
 5567TIP3    H240897   6.663   1.443   9.513 -0.4649 -0.1985 -0.3148
 5568TIP3   OH240898   1.491   3.540  11.546 -0.5978 -0.1679  0.3126
 5568TIP3    H140899   1.551   3.604  11.508  0.5026 -1.0775  0.4625
 5568TIP3    H240900   1.404   3.579  11.535 -0.1755  0.3191 -1.6595
 5569TIP3   OH240901   2.283   2.032  10.237 -0.4232  0.1487  0.7337
 5569TIP3    H140902   2.369   2.002  10.208 -0.1754  0.1575  1.4476
 5569TIP3    H240903   2.250   2.085  10.164 -0.1978 -0.5601  0.1063
 5570TIP3   OH240904   0.115   3.474   9.719 -0.1622 -0.9954  0.1411
 5570TIP3    H140905   0.039   3.527   9.696 -1.3023 -3.6602 -2.8643
 5570TIP3    H240906   0.079   3.395   9.757  1.3767 -0.8356  2.1095
 5571TIP3   OH240907   0.679   0.074  10.262 -0.1609  0.2258  0.2558
 5571TIP3    H140908   0.593   0.042  10.289  0.3813  0.8579  3.0604
 5571TIP3    H240909   0.661   0.158  10.220 -0.9037  0.5074  1.1146
 5572TIP3   OH240910   6.607   4.759   9.633 -0.0645  0.4207 -0.2450
 5572TIP3    H140911   6.551   4.744   9.709 -0.5996 -2.9916 -1.1374
 5572TIP3    H240912   6.568   4.835   9.589 -2.6959 -0.4636  0.3623
 5573TIP3   OH240913   4.518   0.794   9.532 -0.2002  0.3493 -0.4484
 5573TIP3    H140914   4.506   0.816   9.439  2.3141  0.7456 -0.7480
 5573TIP3    H240915   4.536   0.878   9.574 -1.1580  0.1457  0.4032
 5574TIP3   OH240916   6.080   6.264  11.964  0.1240  0.2034  0.3126
 5574TIP3    H140917   6.003   6.207  11.955  1.0712 -0.9680 -0.7340
 5574TIP3    H240918   6.130   6.250  11.884  2.1268 -0.1421  1.5586
 5575TIP3   OH240919   6.050   5.274  12.260 -0.0665  1.1650  0.4182
 5575TIP3    H140920   6.064   5.363  12.293 -0.6868  1.3453  0.2123
 5575TIP3    H240921   6.112   5.266  12.187 -1.7104  2.3531 -1.2062
 5576TIP3   OH240922   1.448   5.053  10.424  0.1932 -0.3449  0.2486
 5576TIP3    H140923   1.453   5.131  10.369  0.0706  0.2518  1.0539
 5576TIP3    H240924   1.355   5.044  10.445  0.1616 -0.9133 -0.1181
 5577TIP3   OH240925   0.797   5.528  11.341 -0.1953  0.1832 -0.2382
 5577TIP3    H140926   0.865   5.462  11.352 -0.8446 -0.9893 -2.6640
 5577TIP3    H240927   0.831   5.587  11.274 -1.7833 -0.8214 -2.0064
 5578TIP3   OH240928   3.732   4.126  11.533  0.1833  0.1941  0.2026
 5578TIP3    H140929   3.748   4.177  11.453 -3.9303 -1.9735 -2.3169
 5578TIP3    H240930   3.781   4.045  11.520  0.1994  0.1875  0.3019
 5579TIP3   OH240931   1.867   0.339  11.808 -0.3283  0.0268  0.1732
 5579TIP3    H140932   1.825   0.426  11.810  2.1373  1.3420 -0.8741
 5579TIP3    H240933   1.959   0.357  11.788  0.2521 -2.8736 -0.2109
 5580TIP3   OH240934   1.731   4.132  10.332 -0.3313 -0.0651  0.7932
 5580TIP3    H140935   1.718   4.042  10.362  0.0499 -0.1627  0.6628
 5580TIP3    H240936   1.650   4.154  10.286 -0.3112 -0.4419  0.5765
 5581TIP3   OH240937   5.863   0.590  11.055 -0.1652 -0.4256  0.4398
 5581TIP3    H140938   5.832   0.655  11.118  0.4397 -1.4341  1.8248
 5581TIP3    H240939   5.942   0.554  11.094  0.1829 -1.1524 -0.8689
 5582TIP3   OH240940   5.327   1.853  11.973  0.4821  0.8170 -0.5518
 5582TIP3    H140941   5.409   1.809  11.994 -1.4972 -1.7860  2.6717
 5582TIP3    H240942   5.325   1.930  12.030 -0.4224 -0.6434  1.4714
 5583TIP3   OH240943   5.566   3.642  10.566 -0.6665 -1.0671  0.4599
 5583TIP3    H140944   5.505   3.643  10.492  0.0142 -0.0571 -0.1006
 5583TIP3    H240945   5.529   3.704  10.629 -0.4488 -0.7749  0.3026
 5584TIP3   OH240946   2.115   4.932  12.021 -0.8482 -0.0338 -0.2958
 5584TIP3    H140947   2.119   4.940  11.926 -0.7406  0.2940 -0.2659
 5584TIP3    H240948   2.084   5.018  12.051 -2.3220 -0.5862 -0.1272
 5585TIP3   OH240949   1.912   6.708  10.602  0.8005 -0.0232  0.8442
 5585TIP3    H140950   1.968   6.776  10.638  0.2375  0.6028  0.5529
 5585TIP3    H240951   1.965   6.668  10.533  0.9278  0.4933  0.6402
 5586TIP3   OH240952   4.192   5.438   9.878 -0.5965 -0.2882  0.1127
 5586TIP3    H140953   4.275   5.396   9.900 -0.8349 -0.1025  1.4420
 5586TIP3    H240954   4.126   5.390   9.928 -1.1774  0.1232 -0.2447
 5587TIP3   OH240955   2.088   3.688  11.186 -0.3870 -0.1190  0.6688
 5587TIP3    H140956   2.037   3.645  11.118  0.6917 -0.3852  0.0064
 5587TIP3    H240957   2.178   3.690  11.152 -0.0424  0.8435  1.5531
 5588TIP3   OH240958   3.854   4.140  10.876 -0.0095  0.5659  0.2951
 5588TIP3    H140959   3.803   4.153  10.956  0.4974  1.0314  0.5572
 5588TIP3    H240960   3.797   4.091  10.818 -1.6889  3.0515 -0.3298
 5589TIP3   OH240961   0.766   3.951  10.213  0.0765 -0.6268 -0.2245
 5589TIP3    H140962   0.810   3.903  10.283 -0.1870 -0.6330 -0.0628
 5589TIP3    H240963   0.711   3.886  10.170  0.3924 -0.6696 -0.5669
 5590TIP3   OH240964   3.352   4.011  11.828 -0.1932 -0.2855  0.0221
 5590TIP3    H140965   3.368   3.919  11.848  0.1897  0.1885  2.1063
 5590TIP3    H240966   3.363   4.056  11.911 -0.6431  1.6292 -0.8976
 5591TIP3   OH240967   6.435   2.664  10.412  0.1334 -0.4255 -0.1877
 5591TIP3    H140968   6.498   2.736  10.416  0.7163 -0.9829  1.3232
 5591TIP3    H240969   6.360   2.701  10.365  0.3497  1.2389  0.6802
 5592TIP3   OH240970   6.335   0.526  10.782  0.3131  0.5015  0.3208
 5592TIP3    H140971   6.396   0.599  10.786  0.3435  0.4503  0.9034
 5592TIP3    H240972   6.388   0.452  10.751 -0.1645  1.1675 -2.2504
 5593TIP3   OH240973   5.340   1.477  10.979  0.1387 -0.2225 -0.5237
 5593TIP3    H140974   5.248   1.493  11.002  0.3144 -1.0965  0.9133
 5593TIP3    H240975   5.388   1.543  11.028  0.2958  0.3629 -1.4318
 5594TIP3   OH240976   5.970   5.593  10.046  0.0084  0.3189  0.2458
 5594TIP3    H140977   5.957   5.555   9.959  0.1570 -0.9225  0.7382
 5594TIP3    H240978   6.056   5.560  10.074 -0.6091 -0.4209  1.3893
 5595TIP3   OH240979   1.711   5.374   9.993  0.1189  0.2538  0.0888
 5595TIP3    H140980   1.789   5.422   9.966  0.6753  0.7183  2.3037
 5595TIP3    H240981   1.663   5.436  10.048 -0.3403 -0.9518  1.0922
 5596TIP3   OH240982   6.240   0.853  12.162  0.1054 -0.2824  0.0345
 5596TIP3    H140983   6.314   0.826  12.215  0.0126 -1.7543 -0.5367
 5596TIP3    H240984   6.271   0.846  12.072  0.0722  1.6017 -0.1630
 5597TIP3   OH240985   2.699   5.305  11.414  0.2021 -0.5971  0.1811
 5597TIP3    H140986   2.703   5.262  11.328 -2.1787 -0.4551 -0.0663
 5597TIP3    H240987   2.696   5.233  11.477 -0.9001 -0.7755 -0.0556
 5598TIP3   OH240988   3.288   6.182  11.200 -0.6272 -0.1724 -0.3320
 5598TIP3    H140989   3.350   6.121  11.239 -1.2900 -0.9468 -0.4560
 5598TIP3    H240990   3.202   6.141  11.214 -0.9475 -0.1502 -1.9833
 5599TIP3   OH240991   1.778   0.626  11.963  0.8626  0.6091 -0.3588
 5599TIP3    H140992   1.864   0.635  12.004 -0.1326  1.3980  1.7158
 5599TIP3    H240993   1.717   0.668  12.025 -0.9450  0.6053 -2.0323
 5600TIP3   OH240994   1.232   0.110  11.860  0.0374 -0.0709 -0.2226
 5600TIP3    H140995   1.286   0.096  11.782 -0.7611 -1.0042 -0.6274
 5600TIP3    H240996   1.246   0.202  11.882 -0.0862  0.3476 -1.7480
 5601TIP3   OH240997   4.102   6.332  12.321 -0.0070 -0.0799 -0.6453
 5601TIP3    H140998   4.137   6.263  12.378  0.2680 -0.9535 -1.8327
 5601TIP3    H240999   4.019   6.357  12.362 -0.8850 -2.2057 -0.9588
 5602TIP3   OH241000   4.472   4.255   9.970 -0.8757  0.1429  0.0020
 5602TIP3    H141001   4.421   4.180   9.939 -0.1592 -0.5737  0.5124
 5602TIP3    H241002   4.447   4.265  10.062 -2.2486  1.6327 -0.4923
 5603TIP3   OH241003   1.848   4.449  10.526  0.5151 -0.6810 -0.4979
 5603TIP3    H141004   1.934   4.407  10.520 -0.1186 -1.9721 -1.1431
 5603TIP3    H241005   1.825   4.442  10.619  1.1991 -0.1065 -0.2767
 5604TIP3   OH241006   2.727   0.883  12.407  0.4102  0.6011  0.7276
 5604TIP3    H141007   2.766   0.801  12.437 -1.0298 -0.6484 -0.6557
 5604TIP3    H241008   2.798   0.927  12.359  0.5038 -1.0911 -0.7816
 5605TIP3   OH241009   6.706   4.980  11.699 -0.1035  0.2767 -0.1840
 5605TIP3    H141010   6.654   5.041  11.647  1.6593  3.2428  1.2732
 5605TIP3    H241011   6.794   5.018  11.699  1.5987 -3.2569 -0.5743
 5606TIP3   OH241012   3.331   6.642   9.184  0.4216 -0.5330 -0.7121
 5606TIP3    H141013   3.257   6.582   9.190 -1.1623  1.3813  0.1633
 5606TIP3    H241014   3.402   6.598   9.230 -0.8331 -1.5134  0.3608
 5607TIP3   OH241015   4.866   1.944  10.762  0.1433  0.7230 -0.0991
 5607TIP3    H141016   4.893   1.883  10.693 -1.3536  0.7804 -0.7690
 5607TIP3    H241017   4.884   2.031  10.725  0.4094  0.7377  0.0588
 5608TIP3   OH241018   4.609   6.487  10.488  0.4373 -0.5503  0.3418
 5608TIP3    H141019   4.556   6.436  10.427  0.9541  0.9955 -1.4686
 5608TIP3    H241020   4.697   6.450  10.480  0.1295 -1.6760  1.7241
 5609TIP3   OH241021   2.160   6.390  10.966  0.4990  0.0084 -0.1390
 5609TIP3    H141022   2.198   6.312  10.925  0.6650 -0.0907  0.2011
 5609TIP3    H241023   2.145   6.364  11.057 -1.0705 -0.1940 -0.4277
 5610TIP3   OH241024   6.693   2.579   9.844  0.0061 -0.1044 -0.4370
 5610TIP3    H141025   6.756   2.649   9.860  1.9833 -1.8736 -0.0764
 5610TIP3    H241026   6.668   2.590   9.752  0.5944  0.8216 -0.5012
 5611TIP3   OH241027   6.643   2.978  12.837 -0.5287 -0.0633 -0.1778
 5611TIP3    H141028   6.617   3.070  12.826 -1.5355 -0.3849 -0.6072
 5611TIP3    H241029   6.593   2.948  12.913  0.1144 -0.1453  0.2140
 5612TIP3   OH241030   2.541   0.204  12.317  0.1417 -0.5437 -0.2918
 5612TIP3    H141031   2.622   0.163  12.347 -1.3335 -1.7341  2.4390
 5612TIP3    H241032   2.498   0.137  12.264 -0.7226 -1.3766  1.3909
 5613TIP3   OH241033   2.680   4.769   9.683  0.0361  0.1599  0.2625
 5613TIP3    H141034   2.621   4.704   9.644  0.4947  0.3121 -0.7021
 5613TIP3    H241035   2.744   4.717   9.732  0.7740 -0.1793 -1.0160
 5614TIP3   OH241036   2.136   6.035  10.611 -0.1253 -0.1491 -0.0772
 5614TIP3    H141037   2.206   6.019  10.547 -0.0532 -0.2848  0.0364
 5614TIP3    H241038   2.064   5.978  10.582  0.0015 -0.4113  0.1147
 5615TIP3   OH241039   4.622   0.792  10.966 -0.6016  0.0085 -0.3226
 5615TIP3    H141040   4.634   0.745  11.049 -0.2330  0.9800  0.1798
 5615TIP3    H241041   4.562   0.736  10.917 -2.2248  0.2284  1.2774
 5616TIP3   OH241042   1.101   6.246  11.838  0.4698 -0.1638  0.0902
 5616TIP3    H141043   1.168   6.186  11.870  2.3603  0.1695 -2.9004
 5616TIP3    H241044   1.139   6.333  11.852 -0.9284  0.2481  1.5842
 5617TIP3   OH241045   4.957   5.694   9.678  0.2932 -0.0990  0.3985
 5617TIP3    H141046   4.919   5.745   9.607  0.8495  0.0938  0.2330
 5617TIP3    H241047   4.958   5.754   9.753  0.3715 -0.0669  0.3722
 5618TIP3   OH241048   5.653   4.508  10.619  0.4160  0.0782  0.2291
 5618TIP3    H141049   5.709   4.570  10.572 -0.6538  2.2678  1.6643
 5618TIP3    H241050   5.566   4.520  10.579 -0.2200  1.0061  1.8015
 5619TIP3   OH241051   5.315   0.793  11.753  0.6173  0.0762  0.3522
 5619TIP3    H141052   5.250   0.799  11.823  1.1621  1.0563  0.8095
 5619TIP3    H241053   5.399   0.795  11.799  0.9856 -1.5839 -0.2026
 5620TIP3   OH241054   0.460   1.852   9.122  0.2938  0.3535 -0.1911
 5620TIP3    H141055   0.410   1.844   9.204 -0.8664  0.9717 -0.8188
 5620TIP3    H241056   0.481   1.945   9.115  0.9079  0.2134 -0.3135
 5621TIP3   OH241057   4.887   5.410  11.885 -0.0557 -0.2143 -0.0194
 5621TIP3    H141058   4.899   5.315  11.879 -0.3876 -0.3501  1.1410
 5621TIP3    H241059   4.844   5.423  11.970 -1.8313  0.8092 -1.0082
 5622TIP3   OH241060   4.127   1.483  10.483  0.1978 -0.1914  0.2986
 5622TIP3    H141061   4.108   1.437  10.565  1.4966 -1.7604 -0.2321
 5622TIP3    H241062   4.043   1.487  10.437 -0.2373 -0.6688  1.0364
 5623TIP3   OH241063   4.843   6.597   9.465 -0.4010 -0.0872 -0.0384
 5623TIP3    H141064   4.896   6.677   9.457  1.2284 -1.2388 -1.5650
 5623TIP3    H241065   4.777   6.605   9.397 -1.5515  0.8328  1.1319
 5624TIP3   OH241066   6.444   6.207  12.614  0.2496 -0.7949 -0.1127
 5624TIP3    H141067   6.448   6.149  12.690  0.1680 -1.0691 -0.3119
 5624TIP3    H241068   6.527   6.191  12.568  0.6907  0.0275  0.3820
 5625TIP3   OH241069   5.101   2.710   9.330 -0.1590  0.4920 -0.3072
 5625TIP3    H141070   5.040   2.772   9.370  0.5570  0.2959  1.1897
 5625TIP3    H241071   5.154   2.679   9.404  0.2776 -1.0073 -1.2135
 5626TIP3   OH241072   3.309   0.002  12.078  0.5574 -0.0176  0.1551
 5626TIP3    H141073   3.384  -0.029  12.027  0.7598  0.1434  0.3535
 5626TIP3    H241074   3.243  -0.067  12.068 -0.4791  1.1987 -2.6182
 5627TIP3   OH241075   0.708   5.682  12.272  0.3105  0.4648 -0.0646
 5627TIP3    H141076   0.699   5.770  12.309  0.1352  0.1879  0.5661
 5627TIP3    H241077   0.719   5.625  12.348 -1.8596 -0.3490 -0.2850
 5628TIP3   OH241078   2.319   2.095   9.170  0.2017 -0.1187  0.2685
 5628TIP3    H141079   2.234   2.131   9.143  0.0158 -0.2926  0.6115
 5628TIP3    H241080   2.299   2.005   9.196  0.0214  0.5813  2.7743
 5629TIP3   OH241081   3.081   0.543  11.465  0.2213  0.4122 -0.1101
 5629TIP3    H141082   2.989   0.523  11.478  0.1211 -0.8262 -2.1797
 5629TIP3    H241083   3.087   0.570  11.373  1.9385  0.2972 -0.0738
 5630TIP3   OH241084   2.506   0.468  12.295  0.2360  0.5573  0.2686
 5630TIP3    H141085   2.495   0.374  12.284 -0.4156  0.4933  1.3492
 5630TIP3    H241086   2.576   0.477  12.360  2.1706  0.8868 -1.7470
 5631TIP3   OH241087   0.707   0.559  10.872 -0.0081  0.0398 -0.0111
 5631TIP3    H141088   0.757   0.554  10.790  1.2795 -0.3789  0.7767
 5631TIP3    H241089   0.627   0.604  10.847 -0.5022 -1.7026 -1.9260
 5632TIP3   OH241090   6.703   5.389  11.438  0.5293 -0.4906  0.5152
 5632TIP3    H141091   6.639   5.374  11.507  0.2085 -0.9740  0.1153
 5632TIP3    H241092   6.784   5.410  11.484  0.5210 -1.5987  1.0623
 5633TIP3   OH241093   0.957   0.176   9.163  0.7104 -0.5285 -0.1531
 5633TIP3    H141094   0.868   0.149   9.141  0.5322 -0.8335  0.8833
 5633TIP3    H241095   0.957   0.271   9.154 -0.7192 -0.0899  3.0575
 5634TIP3   OH241096   0.242   1.714   9.340 -0.3959  0.5556 -0.2203
 5634TIP3    H141097   0.221   1.643   9.401 -0.0173  0.8910  0.3138
 5634TIP3    H241098   0.243   1.673   9.254 -0.8872  0.0607  0.0028
 5635TIP3   OH241099   4.390   4.347   9.383 -0.4980  0.5017 -0.0311
 5635TIP3    H141100   4.298   4.352   9.357 -0.6243 -0.7528  0.0937
 5635TIP3    H241101   4.434   4.303   9.310  0.2317  2.0479 -0.5683
 5636TIP3   OH241102   3.995   4.028   9.719 -0.2978 -0.3588 -0.1898
 5636TIP3    H141103   3.921   4.077   9.683 -2.2405  0.0667  3.7798
 5636TIP3    H241104   4.069   4.089   9.713 -0.7957  0.1115 -2.1124
 5637TIP3   OH241105   5.599   4.433   9.780  0.0320  0.0643 -0.3918
 5637TIP3    H141106   5.622   4.342   9.766  0.7111  0.2413 -0.4412
 5637TIP3    H241107   5.552   4.434   9.863  1.1098 -0.1607  0.2372
 5638TIP3   OH241108   0.846   3.323  12.591  0.4804 -0.2942  0.2477
 5638TIP3    H141109   0.908   3.395  12.575 -1.1996  1.2974  0.5117
 5638TIP3    H241110   0.900   3.245  12.597  2.2791  0.7543 -1.3593
 5639TIP3   OH241111   2.256   1.119  10.921  0.5513 -0.1243 -0.1546
 5639TIP3    H141112   2.171   1.137  10.961  1.1370  0.5489  0.8209
 5639TIP3    H241113   2.265   1.024  10.926 -0.0812 -0.1908 -0.1569
 5640TIP3   OH241114   0.600   2.019  11.905  0.1435 -0.2408 -0.3315
 5640TIP3    H141115   0.600   1.989  11.996  0.4274 -0.9072 -0.5433
 5640TIP3    H241116   0.571   2.110  11.910  1.0544  0.0290  0.5247
 5641TIP3   OH241117   4.643   6.103   9.876 -0.3584  0.2311  0.4463
 5641TIP3    H141118   4.731   6.135   9.895 -0.6746  1.4155 -0.0156
 5641TIP3    H241119   4.597   6.179   9.839 -0.8966 -0.9715 -1.4590
 5642TIP3   OH241120   1.103   3.486  11.643 -0.1210 -0.1872  0.1268
 5642TIP3    H141121   1.078   3.517  11.731  1.4013 -1.5571  1.1028
 5642TIP3    H241122   1.128   3.566  11.596 -0.6829  0.5469  1.0402
 5643TIP3   OH241123   0.353   6.622  11.289 -0.3281 -0.7105 -0.1127
 5643TIP3    H141124   0.293   6.571  11.344 -1.4305  0.3754 -0.2514
 5643TIP3    H241125   0.367   6.568  11.212 -0.3946 -1.3695  0.3254
 5644TIP3   OH241126   4.203   5.764  10.471  0.1404  0.0732  0.4372
 5644TIP3    H141127   4.243   5.851  10.480 -0.4453  0.5065 -0.8992
 5644TIP3    H241128   4.112   5.782  10.448 -0.4912 -0.9027  1.9718
 5645TIP3   OH241129   0.922   5.992  11.252  0.1783 -0.5973 -0.0621
 5645TIP3    H141130   0.840   6.037  11.234 -0.3130 -0.6844  1.7313
 5645TIP3    H241131   0.897   5.900  11.262  0.5207 -0.6630  0.2274
 5646TIP3   OH241132   2.613   6.403  11.014  0.4622 -0.2816  0.0111
 5646TIP3    H141133   2.609   6.339  11.084 -1.4944  0.3547  0.5300
 5646TIP3    H241134   2.522   6.428  10.998  1.0005  0.8242 -1.6039
 5647TIP3   OH241135   2.149   6.524  11.779 -0.1198  0.1077  0.3336
 5647TIP3    H141136   2.201   6.449  11.750  0.9346  0.7987  0.3593
 5647TIP3    H241137   2.061   6.489  11.792 -0.2227 -0.6385 -1.9185
 5648TIP3   OH241138   4.186   6.462  12.030  0.0951  0.3642 -0.1753
 5648TIP3    H141139   4.226   6.386  12.072 -0.0145  0.3303 -0.1335
 5648TIP3    H241140   4.256   6.498  11.975  0.5742  1.0025  0.8041
 5649TIP3   OH241141   3.278   0.714  10.320 -0.2773 -0.1894 -0.5808
 5649TIP3    H141142   3.297   0.733  10.228  0.6411 -0.5995 -0.4903
 5649TIP3    H241143   3.349   0.656  10.347 -0.0959  0.5557  0.6042
 5650TIP3   OH241144   1.077   3.450  10.971  0.2565  0.1536 -0.8347
 5650TIP3    H141145   1.020   3.525  10.952  0.8803  1.1459  0.9644
 5650TIP3    H241146   1.016   3.376  10.978 -0.9649  1.2639  1.4871
 5651TIP3   OH241147   1.353   1.786  12.098 -0.0301 -0.9573  0.1416
 5651TIP3    H141148   1.423   1.754  12.041 -0.9366 -2.5325 -0.1688
 5651TIP3    H241149   1.396   1.849  12.156  0.8541  0.9916 -2.4411
 5652TIP3   OH241150   2.727   6.121  11.179  0.2694 -0.3808  0.5679
 5652TIP3    H141151   2.659   6.082  11.125  0.3057 -1.1152  1.0390
 5652TIP3    H241152   2.808   6.077  11.151  0.4158 -0.1513  0.6282
 5653TIP3   OH241153   3.113   0.986  12.496  0.2729  0.2837  0.6525
 5653TIP3    H141154   3.025   0.998  12.460 -1.0652  0.4212  3.7030
 5653TIP3    H241155   3.137   1.072  12.529  1.2079  0.0410  0.6374
 5654TIP3   OH241156   6.636   2.423  10.723  0.0698 -0.8594 -0.2934
 5654TIP3    H141157   6.608   2.426  10.632 -2.9359  3.5508  0.4499
 5654TIP3    H241158   6.707   2.486  10.729 -2.2824  1.9133  0.8385
 5655TIP3   OH241159   5.287   5.848  11.135  0.2318  0.3500 -0.3350
 5655TIP3    H141160   5.330   5.765  11.116 -0.5349 -0.2538  0.4918
 5655TIP3    H241161   5.359   5.907  11.161  0.6564 -0.4230  0.2889
 5656TIP3   OH241162   4.991   0.225  10.802 -0.1929  0.2998  0.4307
 5656TIP3    H141163   4.992   0.147  10.746  0.3289 -0.1039  0.9889
 5656TIP3    H241164   5.033   0.293  10.750  0.8611 -0.2389  0.5430
 5657TIP3   OH241165   1.599   0.138  11.127 -0.0508 -0.3857 -0.2173
 5657TIP3    H141166   1.648   0.211  11.164 -0.2431 -0.9363  1.1630
 5657TIP3    H241167   1.644   0.060  11.158 -2.2425 -0.9392  1.8369
 5658TIP3   OH241168   0.557   4.458  10.340  0.4396  0.0248  0.6270
 5658TIP3    H141169   0.565   4.485  10.249 -0.0357  1.2344  0.9336
 5658TIP3    H241170   0.645   4.427  10.364  0.2156 -1.8234 -0.6758
 5659TIP3   OH241171   5.563   4.315   9.366 -0.1693 -0.9800 -0.1059
 5659TIP3    H141172   5.536   4.268   9.445  1.1009  0.0424  0.9795
 5659TIP3    H241173   5.572   4.406   9.395  2.4734 -0.9322 -0.8497
 5660TIP3   OH241174   6.671   5.685  12.445 -0.0012  0.4430  0.2473
 5660TIP3    H141175   6.671   5.759  12.506 -1.2797  0.6122  0.0494
 5660TIP3    H241176   6.657   5.609  12.501 -1.9305  0.6649  0.1283
 5661TIP3   OH241177   0.032   6.499  10.848 -0.8366 -0.0165 -0.2127
 5661TIP3    H141178   0.109   6.471  10.798 -0.1143  2.8688 -0.8894
 5661TIP3    H241179   0.062   6.506  10.938 -0.6402 -0.0820 -0.2739
 5662TIP3   OH241180   2.813   0.852  10.060  0.1891 -0.7726 -0.5170
 5662TIP3    H141181   2.870   0.776  10.072 -0.5920 -1.6189 -1.8591
 5662TIP3    H241182   2.725   0.815  10.054 -0.6203  0.5458  1.9792
 5663TIP3   OH241183   6.200   4.785  10.767 -0.2117 -0.0043 -0.0376
 5663TIP3    H141184   6.263   4.760  10.834  1.1788  0.2807 -1.1937
 5663TIP3    H241185   6.143   4.709  10.758  0.2672 -0.4544  0.6775
 5664TIP3   OH241186   4.158   6.106  10.714 -0.0140 -0.3563 -0.2527
 5664TIP3    H141187   4.065   6.094  10.732  0.2399 -0.1056  1.3414
 5664TIP3    H241188   4.200   6.104  10.800  1.2140  1.5666 -0.7284
 5665TIP3   OH241189   6.541   0.381   9.521  0.3025  0.8286 -0.2017
 5665TIP3    H141190   6.447   0.382   9.503  0.4415  2.3561 -1.0763
 5665TIP3    H241191   6.566   0.474   9.522  2.0674  0.4293 -1.5510
 5666TIP3   OH241192   2.247   4.265  11.871  0.1356  0.2628 -0.1128
 5666TIP3    H141193   2.311   4.323  11.912 -0.1221  1.2475 -1.0642
 5666TIP3    H241194   2.294   4.226  11.797  0.6115 -1.5421  1.0600
 5667TIP3   OH241195   5.444   0.669   9.704  0.1225 -0.4551  0.6017
 5667TIP3    H141196   5.381   0.739   9.722 -0.8060 -1.1315  0.0856
 5667TIP3    H241197   5.472   0.639   9.790 -0.7019 -0.5143  0.8617
 5668TIP3   OH241198   3.237   3.240  10.252 -0.1520 -0.3110  0.6467
 5668TIP3    H141199   3.331   3.228  10.269  0.0089 -1.2378 -0.7401
 5668TIP3    H241200   3.225   3.335  10.251  1.0874 -0.1393 -0.6762
 5669TIP3   OH241201   6.603   3.557   9.964 -0.0512 -0.0479 -0.0749
 5669TIP3    H141202   6.622   3.582   9.874 -1.3644 -0.5703 -0.5155
 5669TIP3    H241203   6.527   3.609   9.989  0.0097 -0.2494  0.5713
 5670TIP3   OH241204   0.114   6.493  11.109  0.2785 -0.5937  0.3651
 5670TIP3    H141205   0.122   6.489  11.204  1.4185  1.6664  0.4386
 5670TIP3    H241206   0.198   6.462  11.076  0.0026 -1.0678  0.0936
 5671TIP3   OH241207   6.403   2.099   9.141  0.1409  0.2155 -0.0377
 5671TIP3    H141208   6.455   2.169   9.181  0.2802 -0.5852  1.2447
 5671TIP3    H241209   6.464   2.052   9.085  1.1198 -1.2397  2.0973
 5672TIP3   OH241210   5.258   0.832   9.813 -0.4074 -0.1870  0.1541
 5672TIP3    H141211   5.248   0.916   9.767  2.2158  0.5672  0.7689
 5672TIP3    H241212   5.236   0.852   9.904 -0.7944 -0.4395  0.1177
 5673TIP3   OH241213   6.128   3.382  10.536  0.5229 -0.5756  0.4216
 5673TIP3    H141214   6.064   3.313  10.551 -0.7601  0.0776 -1.5012
 5673TIP3    H241215   6.213   3.342  10.553 -0.2941 -2.0031  1.2942
 5674TIP3   OH241216   1.191   4.253  10.426 -0.0441  0.2642 -0.3113
 5674TIP3    H141217   1.163   4.318  10.362 -0.0171  0.2761 -0.3114
 5674TIP3    H241218   1.153   4.284  10.509  0.4605  0.6003 -0.2049
 5675TIP3   OH241219   3.215   1.226   9.669 -0.0038  0.3049  0.5636
 5675TIP3    H141220   3.130   1.186   9.686  0.2859 -1.0105 -0.8660
 5675TIP3    H241221   3.208   1.259   9.579  0.6934  1.0188  0.7605
 5676TIP3   OH241222   2.479   0.997   9.414 -0.3385  0.2484 -0.4909
 5676TIP3    H141223   2.433   1.081   9.420  0.9556  0.9342  0.2634
 5676TIP3    H241224   2.466   0.957   9.500 -1.1201 -0.4252 -0.9180
 5677TIP3   OH241225   4.535   2.906  12.107 -0.2655 -0.0170 -0.4481
 5677TIP3    H141226   4.606   2.953  12.151  1.2413  1.0409 -3.6884
 5677TIP3    H241227   4.542   2.816  12.140 -0.2620  0.9337  2.4776
 5678TIP3   OH241228   2.543   0.001  10.437  0.2431 -0.5659  0.0098
 5678TIP3    H141229   2.554   0.064  10.366 -0.9903 -0.4060 -0.0536
 5678TIP3    H241230   2.542  -0.085  10.394  1.7053 -0.6398  0.0758
 5679TIP3   OH241231   1.921   6.389  11.820 -0.0179 -0.7417 -0.5612
 5679TIP3    H141232   1.880   6.459  11.871  0.6453  1.6934 -3.0687
 5679TIP3    H241233   1.849   6.351  11.769 -0.0623 -0.3592 -0.7898
 5680TIP3   OH241234   0.622   3.590   9.655  0.3299  0.1531  0.0771
 5680TIP3    H141235   0.638   3.549   9.570 -1.0616 -2.7174  1.0513
 5680TIP3    H241236   0.551   3.652   9.639 -1.0855 -1.5600 -0.6414
 5681TIP3   OH241237   2.681   5.016   9.803  0.0921 -0.0259  0.3075
 5681TIP3    H141238   2.676   4.929   9.765 -0.8702  0.2131 -0.1302
 5681TIP3    H241239   2.754   5.058   9.758  1.0398 -0.8282  1.0312
 5682TIP3   OH241240   0.076   4.026  11.512  0.9174 -0.2115 -0.1200
 5682TIP3    H141241  -0.013   4.024  11.546  0.8095 -1.7349 -0.4193
 5682TIP3    H241242   0.065   4.020  11.417  1.3298  0.1217 -0.1922
 5683TIP3   OH241243   5.085   1.424  10.716 -0.0184 -0.3997  0.0787
 5683TIP3    H141244   5.171   1.418  10.757 -0.5296 -0.3015  1.2180
 5683TIP3    H241245   5.103   1.440  10.624  1.1802 -0.6925  0.2493
 5684TIP3   OH241246   1.848   2.159  11.378  0.3759 -0.5993  0.1202
 5684TIP3    H141247   1.798   2.110  11.444  0.8741 -1.1596  0.0866
 5684TIP3    H241248   1.872   2.240  11.422  0.9554 -1.0936  0.7308
 5685TIP3   OH241249   5.136   1.654  12.701  0.0670 -0.2532  0.7478
 5685TIP3    H141250   5.192   1.595  12.651  0.6599  0.1616  0.9087
 5685TIP3    H241251   5.165   1.645  12.792  0.6841  0.8435  0.6743
 5686TIP3   OH241252   2.717   0.928  12.052 -0.1156  0.1987  0.5896
 5686TIP3    H141253   2.708   0.880  11.969  1.4044  0.2337  0.3761
 5686TIP3    H241254   2.630   0.926  12.090 -1.4808  2.2027 -2.0998
 5687TIP3   OH241255   2.923   1.690  12.678  0.2868 -0.5474  0.6586
 5687TIP3    H141256   2.955   1.776  12.706 -1.4087  0.3356  0.0519
 5687TIP3    H241257   3.002   1.642  12.652  1.3722  0.4448  1.9723
 5688TIP3   OH241258   6.070   0.394  10.914 -0.3059  0.1342 -0.0299
 5688TIP3    H141259   6.094   0.313  10.959 -1.5853  0.8275  2.0398
 5688TIP3    H241260   6.131   0.460  10.948  0.3434  0.1909 -1.2523
 5689TIP3   OH241261   0.082   2.843  11.716  0.0316  0.1837  0.4594
 5689TIP3    H141262   0.002   2.868  11.762  1.0801  1.3079  1.8006
 5689TIP3    H241263   0.152   2.860  11.780  1.0982 -5.5239  1.3529
 5690TIP3   OH241264   2.231   4.868  11.003 -0.3561  0.0815  0.2482
 5690TIP3    H141265   2.230   4.842  11.095  0.8596 -0.6776  0.0716
 5690TIP3    H241266   2.317   4.841  10.972 -0.8161  0.1686 -1.1603
 5691TIP3   OH241267   2.257   0.652  10.414 -0.3551 -1.0408 -0.5265
 5691TIP3    H141268   2.250   0.614  10.327 -0.6209  1.0307 -1.4829
 5691TIP3    H241269   2.270   0.746  10.398  1.2092 -0.8116  1.6445
 5692TIP3   OH241270   2.942   1.355  12.540  0.4883 -0.0867  0.0533
 5692TIP3    H141271   3.003   1.335  12.611  0.7325  0.6358  0.0553
 5692TIP3    H241272   2.998   1.366  12.463  0.3828  0.6801  0.0757
 5693TIP3   OH241273   0.665   1.682  11.516 -0.2445  0.1387 -0.3415
 5693TIP3    H141274   0.706   1.761  11.551 -0.1423  0.0783 -0.3275
 5693TIP3    H241275   0.726   1.650  11.450  1.4726 -1.9551  2.0776
 5694TIP3   OH241276   4.458   3.401   9.960 -0.5718  0.2594  0.0644
 5694TIP3    H141277   4.420   3.389   9.874 -2.2047  0.8890  0.6647
 5694TIP3    H241278   4.443   3.493   9.981 -0.1615  0.1267  1.0124
 5695TIP3   OH241279   5.795   0.899  10.838 -0.2189 -0.7608 -0.1645
 5695TIP3    H141280   5.872   0.877  10.891 -0.2905 -2.3249 -0.6478
 5695TIP3    H241281   5.827   0.962  10.774 -0.0587  0.9374  1.4911
 5696TIP3   OH241282   5.962   0.870   9.242  0.1023  0.8947 -0.2202
 5696TIP3    H141283   6.026   0.936   9.217 -0.8610  1.5365 -1.0735
 5696TIP3    H241284   5.897   0.918   9.294 -0.1708  0.4386 -0.1365
 5697TIP3   OH241285   2.937   4.604  10.858 -0.1835 -0.1220  0.2109
 5697TIP3    H141286   3.004   4.667  10.833  0.0582 -0.4253  0.0948
 5697TIP3    H241287   2.945   4.533  10.795 -1.7405  0.6074 -0.8745
 5698TIP3   OH241288   4.709   4.474  10.211 -0.1041 -0.3121 -0.7625
 5698TIP3    H141289   4.636   4.535  10.217 -0.7561 -1.1089 -0.4254
 5698TIP3    H241290   4.762   4.508  10.139  0.3702  1.4930  0.3859
 5699TIP3   OH241291   3.767   6.678  10.808  0.2102  0.2234  0.1630
 5699TIP3    H141292   3.819   6.758  10.801  0.4417  0.0212 -0.5647
 5699TIP3    H241293   3.785   6.644  10.896  0.0597  0.9959  0.4999
 5700TIP3   OH241294   3.347   1.653  10.844  0.4649  0.2877  0.3433
 5700TIP3    H141295   3.345   1.748  10.835  1.8565  0.6451  3.0546
 5700TIP3    H241296   3.258   1.625  10.820 -0.0817  2.2789 -0.1082
 5701TIP3   OH241297   4.610   2.424  11.721 -0.2394 -0.3966 -0.0276
 5701TIP3    H141298   4.629   2.390  11.809  2.3810  0.7530 -0.0573
 5701TIP3    H241299   4.569   2.509  11.736 -0.7014 -0.6273  0.0497
 5702TIP3   OH241300   3.013   3.318  10.603  0.0057  0.3858 -0.2818
 5702TIP3    H141301   3.067   3.241  10.587  0.3888  0.5367  0.2540
 5702TIP3    H241302   2.971   3.302  10.688  0.3641  0.9145  0.0057
 5703TIP3   OH241303   6.358   5.478  11.896  0.1680 -0.2211 -0.1796
 5703TIP3    H141304   6.399   5.410  11.843  3.2106  2.1787 -1.1471
 5703TIP3    H241305   6.277   5.499  11.849  1.4848 -0.0090 -2.5173
 5704TIP3   OH241306   5.067   3.388  10.258 -0.1023 -0.1751 -0.7335
 5704TIP3    H141307   5.015   3.307  10.260  0.3712 -0.4714  0.1324
 5704TIP3    H241308   5.118   3.382  10.177  1.5497 -1.8164  0.3459
 5705TIP3   OH241309   2.855   6.019  12.029  0.2139 -0.1373 -0.5898
 5705TIP3    H141310   2.912   5.953  12.069  0.2783  0.2383 -0.0380
 5705TIP3    H241311   2.888   6.102  12.064 -1.9133 -0.0180  1.3895
 5706TIP3   OH241312   3.926   5.364  11.541  0.2353  0.4930  0.0043
 5706TIP3    H141313   3.881   5.447  11.555  0.0818  0.5941 -0.9840
 5706TIP3    H241314   4.006   5.370  11.594 -0.8972  0.2993  1.8053
 5707TIP3   OH241315   6.592   2.420  10.150 -0.2055  0.5237  0.0149
 5707TIP3    H141316   6.686   2.433  10.157 -0.2651  0.6537  0.6057
 5707TIP3    H241317   6.583   2.328  10.124  0.0149 -0.9188  4.2370
 5708TIP3   OH241318   2.523   3.622  10.769 -0.8638 -0.1699  0.0326
 5708TIP3    H141319   2.541   3.667  10.852  1.7759 -0.0458 -0.5238
 5708TIP3    H241320   2.528   3.529  10.791 -0.1215 -0.1373  0.0046
 5709TIP3   OH241321   3.400   6.435  10.023  0.3489  0.1752  0.0605
 5709TIP3    H141322   3.380   6.427  10.116 -1.2618  0.8416 -0.2049
 5709TIP3    H241323   3.315   6.438   9.979  1.0067  1.8903 -1.2464
 5710TIP3   OH241324   4.985   5.278  12.315 -0.1276  0.1470 -0.1688
 5710TIP3    H141325   5.058   5.217  12.309 -0.6544 -0.5300  0.0616
 5710TIP3    H241326   4.982   5.304  12.407  0.0982  0.5201 -0.2682
 5711TIP3   OH241327   4.621   3.947  12.506 -0.8797 -0.4540  0.6623
 5711TIP3    H141328   4.595   3.911  12.421  1.1497 -0.9003  0.1714
 5711TIP3    H241329   4.645   3.870  12.558 -1.0331 -0.1027  1.2643
 5712TIP3   OH241330   6.673   1.095  11.492  0.2474 -0.0125 -0.1822
 5712TIP3    H141331   6.746   1.129  11.544 -0.3189 -0.6687  1.0947
 5712TIP3    H241332   6.601   1.155  11.510  0.4727  0.7106 -1.5487
 5713TIP3   OH241333   2.272   0.299  12.095  0.0474 -0.2528  0.5716
 5713TIP3    H141334   2.199   0.238  12.103  0.8675 -1.4098 -0.5171
 5713TIP3    H241335   2.255   0.366  12.161 -2.3737 -0.0996 -0.1095
 5714TIP3   OH241336   0.978   0.791  11.733  0.1590 -0.0798 -0.3570
 5714TIP3    H141337   1.045   0.855  11.756  2.1005 -2.4716  0.9847
 5714TIP3    H241338   1.002   0.712  11.780 -2.6436 -1.5981 -1.2434
 5715TIP3   OH241339   3.710   0.708   9.665  0.7437 -0.1458 -0.1998
 5715TIP3    H141340   3.672   0.698   9.752  0.9818 -0.4212 -0.1295
 5715TIP3    H241341   3.717   0.803   9.653  2.1668 -0.1261  0.7140
 5716TIP3   OH241342   0.211   2.453  10.124  0.1799 -0.1720  0.6025
 5716TIP3    H141343   0.244   2.390  10.061  0.6538  0.3844  0.2832
 5716TIP3    H241344   0.160   2.401  10.186 -2.1229 -0.4934 -1.4059
 5717TIP3   OH241345   3.701   0.355   9.154  0.7701  0.5508  0.2374
 5717TIP3    H141346   3.682   0.440   9.115  1.1980 -0.1236 -1.5474
 5717TIP3    H241347   3.624   0.301   9.134  0.3959  0.5406  1.5589
 5718TIP3   OH241348   3.468   6.123  11.427  0.3663 -0.0674  0.1671
 5718TIP3    H141349   3.401   6.153  11.489 -0.8898  0.4576 -1.3392
 5718TIP3    H241350   3.526   6.198  11.416  1.4028 -0.6121  1.6814
 5719TIP3   OH241351   4.609   2.072   9.436 -0.3392 -0.1190 -0.3454
 5719TIP3    H141352   4.659   2.098   9.359  0.3082 -0.0210  0.1001
 5719TIP3    H241353   4.628   1.978   9.446 -1.3939 -0.4189 -1.0108
 5720TIP3   OH241354   4.372   2.975  11.894 -0.3242 -0.4631 -0.3260
 5720TIP3    H141355   4.304   3.011  11.951  1.0904  0.2692  0.9741
 5720TIP3    H241356   4.448   2.963  11.952  1.7189  1.8740 -2.3189
 5721TIP3   OH241357   4.272   1.935  10.678  0.1841  0.2660 -0.0059
 5721TIP3    H141358   4.287   1.860  10.736  1.8133  0.9987  0.5892
 5721TIP3    H241359   4.233   1.897  10.599  0.2449 -1.0962  0.5923
 5722TIP3   OH241360   3.142   5.526   9.999  0.4833  0.0474  0.4875
 5722TIP3    H141361   3.114   5.463   9.933  0.8836 -0.8384  1.1462
 5722TIP3    H241362   3.223   5.490  10.034  1.2886  1.4520  0.1671
 5723TIP3   OH241363   1.410   0.896  11.751 -0.0098  0.0958 -0.5518
 5723TIP3    H141364   1.442   0.949  11.677  1.3925  0.7013  0.4464
 5723TIP3    H241365   1.365   0.959  11.807 -0.9012 -0.3322 -0.7622
 5724TIP3   OH241366   6.524   3.663  11.751  0.0221 -0.0004  0.4981
 5724TIP3    H141367   6.528   3.719  11.674 -1.8109 -0.8064 -0.2436
 5724TIP3    H241368   6.614   3.631  11.762  0.0279 -1.3337 -2.4697
 5725TIP3   OH241369   5.818   5.003   9.763  0.0767 -0.0988  0.2114
 5725TIP3    H141370   5.857   5.071   9.708 -0.8694 -0.4404 -0.9381
 5725TIP3    H241371   5.783   5.051   9.839 -0.3573  0.6853 -0.4575
 5726TIP3   OH241372   2.547   3.523   9.943 -0.1555  0.1391 -0.3234
 5726TIP3    H141373   2.573   3.609   9.910 -0.0738 -0.0916 -0.8678
 5726TIP3    H241374   2.458   3.536   9.976  0.2989  0.7228  0.7389
 5727TIP3   OH241375   6.375   1.319   9.812  0.0547  0.0138  0.5988
 5727TIP3    H141376   6.336   1.368   9.885  2.2329  0.4530  1.5477
 5727TIP3    H241377   6.381   1.229   9.844 -0.0935 -0.0319  0.4968
 5728TIP3   OH241378   1.986   0.693  11.537 -0.1377  0.2584 -0.6243
 5728TIP3    H141379   2.031   0.618  11.574  1.6095  3.0220  3.6034
 5728TIP3    H241380   1.902   0.696  11.583 -0.3734  0.6977 -1.0687
 5729TIP3   OH241381   5.597   1.236  13.150  0.2097 -0.1250 -0.2071
 5729TIP3    H141382   5.532   1.204  13.087 -0.9702 -0.6421  1.2275
 5729TIP3    H241383   5.631   1.316  13.110 -0.3422 -0.5401 -1.5953
 5730TIP3   OH241384   3.165   0.829  11.025 -0.3440 -0.2860 -0.2606
 5730TIP3    H141385   3.072   0.811  11.008 -0.2882 -0.4641 -0.3762
 5730TIP3    H241386   3.180   0.914  10.985 -0.4303 -0.3095 -0.3458
 5731TIP3   OH241387   4.972   0.778  13.056  0.2927  0.4905  0.4882
 5731TIP3    H141388   4.919   0.854  13.081 -0.9968 -0.0813 -0.3885
 5731TIP3    H241389   4.912   0.704  13.060  1.9938 -0.9332  3.3511
 5732TIP3   OH241390   4.906   6.544  11.716 -0.3995  0.5610  1.0193
 5732TIP3    H141391   4.938   6.515  11.801 -0.9276 -0.1594  0.9741
 5732TIP3    H241392   4.860   6.469  11.680 -1.1030  1.1888  0.5581
 5733TIP3   OH241393   2.133   5.783  10.441  0.1525  0.0483 -0.0226
 5733TIP3    H141394   2.196   5.764  10.372  0.4366  0.4098  0.1303
 5733TIP3    H241395   2.183   5.772  10.522  0.8493  2.9831  0.0735
 5734TIP3   OH241396   4.090   0.908  10.498 -0.1420 -0.4311 -0.2953
 5734TIP3    H141397   4.119   0.999  10.506 -1.2128 -0.1172  0.2613
 5734TIP3    H241398   4.128   0.877  10.415  0.4623  0.4253 -0.3480
 5735TIP3   OH241399   1.337   3.166  11.150 -0.4860  0.2313  0.0839
 5735TIP3    H141400   1.362   3.244  11.199 -0.0573 -0.0697  0.3525
 5735TIP3    H241401   1.268   3.126  11.202  1.3749 -1.2201  1.5888
 5736TIP3   OH241402   5.785   0.269  11.058 -0.0633  0.6554  0.3805
 5736TIP3    H141403   5.710   0.209  11.066 -1.7035  2.4010 -0.9709
 5736TIP3    H241404   5.860   0.211  11.047 -1.4787 -1.1803 -0.1731
 5737TIP3   OH241405   5.357   2.316  12.395  0.1760  0.7531 -0.3834
 5737TIP3    H141406   5.293   2.384  12.376 -0.2099  0.0197 -1.8150
 5737TIP3    H241407   5.305   2.240  12.422  0.2767 -0.2670 -2.7948
 5738TIP3   OH241408   2.717   0.038  11.042 -0.5063  0.1593 -0.5681
 5738TIP3    H141409   2.750  -0.021  11.109 -1.5699 -1.0455 -1.0662
 5738TIP3    H241410   2.636  -0.003  11.012 -0.7676  1.3860 -1.6076
 5739TIP3   OH241411   3.975   6.483  10.003 -0.7543 -0.1216 -0.4144
 5739TIP3    H141412   3.930   6.402  10.028  0.8302 -1.1571 -0.7625
 5739TIP3    H241413   3.929   6.552  10.051 -1.4794 -1.3550  0.7367
 5740TIP3   OH241414   1.317   4.666  11.321  0.0420 -0.3740 -0.3071
 5740TIP3    H141415   1.278   4.612  11.252 -0.2251 -0.9772  0.3076
 5740TIP3    H241416   1.327   4.607  11.396 -0.7576  0.5552  0.5636
 5741TIP3   OH241417   6.657   3.879   9.371 -0.0496 -0.8048  0.3786
 5741TIP3    H141418   6.745   3.893   9.406 -0.0188 -0.8039  0.3007
 5741TIP3    H241419   6.642   3.784   9.378  0.0377 -0.8319  0.2013
 5742TIP3   OH241420   1.161   3.602   9.280 -0.3790  0.2886  0.2446
 5742TIP3    H141421   1.189   3.691   9.301  1.0269 -0.4018  1.4698
 5742TIP3    H241422   1.243   3.554   9.266 -1.1113 -0.8424 -0.3017
 5743TIP3   OH241423   1.005   3.240  20.481  0.5334 -0.5799  0.0548
 5743TIP3    H141424   1.089   3.225  20.525  1.3624 -0.5995 -1.4852
 5743TIP3    H241425   0.974   3.153  20.457  0.6140 -0.4908 -0.3666
 5744TIP3   OH241426   4.770   1.842  12.397  0.2289  0.5852 -0.5656
 5744TIP3    H141427   4.816   1.760  12.380 -2.6227 -1.2372 -0.1282
 5744TIP3    H241428   4.779   1.892  12.316  1.6257 -0.3361 -1.0026
 5745TIP3   OH241429   0.254   0.391  11.623 -0.7146  0.6862  0.2322
 5745TIP3    H141430   0.299   0.394  11.538 -0.9550  0.9217  0.1114
 5745TIP3    H241431   0.233   0.482  11.642 -0.2211  0.6915  0.7843
 5746TIP3   OH241432   5.978   1.286  12.333  0.1984  0.0167 -0.4488
 5746TIP3    H141433   5.889   1.251  12.327  0.1376  0.3203 -1.5326
 5746TIP3    H241434   6.033   1.220  12.291  0.2519  0.5832 -1.3090
 5747TIP3   OH241435   3.832   3.385  10.513  0.2068  0.2380  0.2103
 5747TIP3    H141436   3.752   3.437  10.517 -1.8562 -2.7575  1.1477
 5747TIP3    H241437   3.841   3.347  10.600  2.6244  0.3859  0.0924
 5748TIP3   OH241438   4.465   4.194  11.284  0.1814  0.3194  0.4899
 5748TIP3    H141439   4.441   4.265  11.224 -0.8315 -0.5392 -0.1447
 5748TIP3    H241440   4.541   4.153  11.243  0.2015  0.4557  0.3912
 5749TIP3   OH241441   4.517   1.669  12.246 -0.1476 -0.3075 -0.2344
 5749TIP3    H141442   4.458   1.669  12.171 -0.7711 -0.5840  0.2478
 5749TIP3    H241443   4.512   1.580  12.281 -2.9271  0.7405  2.4783
 5750TIP3   OH241444   1.833   5.125   9.673  0.3176  0.2212  0.7446
 5750TIP3    H141445   1.815   5.209   9.631  1.6929  0.4045  0.4697
 5750TIP3    H241446   1.926   5.109   9.656  0.2610 -0.9931  1.4461
 5751TIP3   OH241447   2.545   5.111  11.221  1.1820  0.2001  0.3196
 5751TIP3    H141448   2.454   5.139  11.207  1.1685  0.1556  0.3204
 5751TIP3    H241449   2.590   5.137  11.140  1.4425  1.3590  0.8148
 5752TIP3   OH241450   4.821   5.362  10.567  0.2180 -0.5798  0.0936
 5752TIP3    H141451   4.886   5.361  10.497  0.7016 -1.6063  0.5366
 5752TIP3    H241452   4.763   5.434  10.545 -0.0617 -1.3337 -1.7437
 5753TIP3   OH241453   2.208   3.474  11.998 -0.3856  0.2994  0.2144
 5753TIP3    H141454   2.120   3.455  11.966 -0.9792  1.8562  0.8371
 5753TIP3    H241455   2.266   3.425  11.940 -1.7194 -2.5707  1.1217
 5754TIP3   OH241456   5.990   4.939  11.975  0.4320 -0.1696  0.3745
 5754TIP3    H141457   5.959   4.890  11.899  0.2534 -0.1424  0.4280
 5754TIP3    H241458   5.956   5.028  11.962  0.2143 -0.2202  0.5965
 5755TIP3   OH241459   2.267   2.223  11.909  0.1504  0.1534  0.0392
 5755TIP3    H141460   2.252   2.140  11.863 -0.8948 -0.2612  1.0806
 5755TIP3    H241461   2.311   2.198  11.990  0.2655  0.6697  0.1392
 5756TIP3   OH241462   4.390   5.132   9.411  0.1624 -0.1392  0.6038
 5756TIP3    H141463   4.479   5.103   9.391 -0.1648  0.4096 -2.1042
 5756TIP3    H241464   4.340   5.052   9.423  0.2252 -0.6780 -2.1102
 5757TIP3   OH241465   2.365   6.638  11.601  0.2079  0.1498  0.2822
 5757TIP3    H141466   2.400   6.560  11.644 -3.3190 -1.3577  0.7537
 5757TIP3    H241467   2.353   6.702  11.671 -1.3328 -0.6739  0.8000
 5758TIP3   OH241468   1.887   1.186  11.472 -0.1867 -0.4916  0.1660
 5758TIP3    H141469   1.949   1.150  11.408 -0.6817 -1.2807  0.1175
 5758TIP3    H241470   1.943   1.222  11.541  0.3388 -0.2775 -0.3624
 5759TIP3   OH241471   5.791   4.990  11.465 -0.1274 -0.1843  0.0374
 5759TIP3    H141472   5.703   4.960  11.445 -0.0649  0.6789 -1.7036
 5759TIP3    H241473   5.808   5.060  11.402  1.3062  0.5972  1.2134
 5760TIP3   OH241474   3.291   1.037  10.349  0.2418 -0.3049 -0.0700
 5760TIP3    H141475   3.328   0.967  10.296 -0.1066 -0.7838  0.3049
 5760TIP3    H241476   3.222   0.995  10.401  0.1522  0.2731  0.3014
 5761TIP3   OH241477   4.761   5.095  10.541  0.3386  0.0677 -0.4714
 5761TIP3    H141478   4.833   5.125  10.485  0.5823  0.1622 -0.1069
 5761TIP3    H241479   4.693   5.162  10.530  0.0738 -0.3112 -1.2579
 5762TIP3   OH241480   2.605   4.278  10.158  0.5127 -0.0485 -0.3646
 5762TIP3    H141481   2.651   4.361  10.157 -0.5081  0.6773  2.6879
 5762TIP3    H241482   2.534   4.289  10.094  1.8851  0.4030 -1.8725
 5763TIP3   OH241483   2.592   4.351   9.501 -0.0368  0.2809 -0.0592
 5763TIP3    H141484   2.511   4.351   9.450  0.7543 -0.5836 -1.3600
 5763TIP3    H241485   2.611   4.258   9.516  2.0343  0.3237 -1.9912
 5764TIP3   OH241486   0.541   0.892   9.362 -0.0434  0.7801 -0.0006
 5764TIP3    H141487   0.520   0.957   9.294  2.0266 -0.9265 -2.4975
 5764TIP3    H241488   0.466   0.894   9.421 -1.5308  3.1183 -1.7725
 5765TIP3   OH241489   1.135   0.437  12.806  0.0739 -0.3091  0.0048
 5765TIP3    H141490   1.114   0.526  12.834 -0.1973 -0.7750  1.3639
 5765TIP3    H241491   1.064   0.383  12.842  0.8211 -1.2147  0.1626
 5766TIP3   OH241492   4.824   5.304   9.768 -0.4828  0.1086 -0.2561
 5766TIP3    H141493   4.878   5.338   9.697 -0.9374  1.6403  0.0931
 5766TIP3    H241494   4.765   5.241   9.726 -0.5861  0.8173 -1.1959
 5767TIP3   OH241495   0.888   1.429  11.472 -0.2980 -0.0674 -0.3864
 5767TIP3    H141496   0.946   1.504  11.486 -1.9736  1.0343  1.1908
 5767TIP3    H241497   0.853   1.443  11.384  1.0274 -0.2115 -0.9575
 5768TIP3   OH241498   4.776   2.723  11.600  0.0822  0.2572  0.1529
 5768TIP3    H141499   4.776   2.812  11.565 -0.4772  0.5790  0.9294
 5768TIP3    H241500   4.863   2.688  11.578  0.9472  1.5871  1.2557
 5769TIP3   OH241501   0.380   0.795  11.861  0.3545  0.2024 -0.5631
 5769TIP3    H141502   0.457   0.738  11.859  0.5499  0.4232  0.2765
 5769TIP3    H241503   0.376   0.826  11.951 -1.2230 -0.4853 -0.3616
 5770TIP3   OH241504   4.132   3.159   9.787  0.1547  0.1634 -0.4189
 5770TIP3    H141505   4.110   3.180   9.878 -1.2948  1.9129 -1.1157
 5770TIP3    H241506   4.050   3.125   9.750  1.0883 -1.8580 -0.7653
 5771TIP3   OH241507   5.430   0.402  12.122  0.5120  0.0793  0.0131
 5771TIP3    H141508   5.407   0.319  12.079 -0.3318  0.3838 -0.1380
 5771TIP3    H241509   5.405   0.388  12.214  0.6362  0.0688  0.0457
 5772TIP3   OH241510   4.842   4.598  12.212 -0.3574 -0.7292 -0.2191
 5772TIP3    H141511   4.835   4.586  12.307 -0.8620 -0.3381 -0.1994
 5772TIP3    H241512   4.904   4.670  12.201 -0.8331 -0.2983 -0.1491
 5773TIP3   OH241513   6.631   3.743  10.492  0.1241 -0.1798 -0.0277
 5773TIP3    H141514   6.671   3.661  10.520  1.2587  0.5127  0.4383
 5773TIP3    H241515   6.693   3.811  10.520 -0.9932  0.8676 -0.0207
 5774TIP3   OH241516   2.158   3.008   9.789 -0.0232  0.4453 -0.6332
 5774TIP3    H141517   2.251   3.005   9.767 -0.0982  0.5608 -0.9661
 5774TIP3    H241518   2.135   3.101   9.782  0.0013  0.5236  0.1541
 5775TIP3   OH241519   4.131   1.913   9.333 -0.0432 -0.0677 -0.1772
 5775TIP3    H141520   4.038   1.897   9.317  0.1045 -0.2693 -0.8354
 5775TIP3    H241521   4.176   1.852   9.275  0.5016 -1.0959  1.2623
 5776TIP3   OH241522   3.968   3.178  11.520 -0.0947 -0.4426 -0.1624
 5776TIP3    H141523   4.010   3.258  11.551 -1.2807 -0.2742  1.1057
 5776TIP3    H241524   3.885   3.175  11.567 -0.0127 -2.4994 -0.0755
 5777TIP3   OH241525   5.617   4.217  12.113  0.3919 -0.2371 -0.6377
 5777TIP3    H141526   5.705   4.181  12.103  0.2673 -1.3646  1.7013
 5777TIP3    H241527   5.623   4.279  12.186 -0.5416  0.4573 -1.1200
 5778TIP3   OH241528   2.052   2.684  10.459  0.0675 -0.3279 -0.0239
 5778TIP3    H141529   2.124   2.686  10.523 -1.2025 -0.7381  1.4851
 5778TIP3    H241530   2.012   2.771  10.465 -1.3967 -1.0377  1.4142
 5779TIP3   OH241531   3.591   4.536  12.471 -0.1903  0.0833 -0.7535
 5779TIP3    H141532   3.650   4.483  12.418 -0.7681 -1.9445  0.5370
 5779TIP3    H241533   3.640   4.617  12.487  1.7087 -0.9898 -0.8281
 5780TIP3   OH241534   1.087   6.038   9.917  0.0663  0.0154  0.2177
 5780TIP3    H141535   1.132   6.004   9.841 -0.1066 -0.7818  0.4641
 5780TIP3    H241536   1.096   5.970   9.984  0.3055  0.7400  0.9457
 5781TIP3   OH241537   1.086   4.964   9.222  0.0218  0.8316 -0.1056
 5781TIP3    H141538   1.151   4.928   9.282 -2.0522 -0.2107  1.6535
 5781TIP3    H241539   1.118   4.941   9.135 -0.2241 -3.9411  0.7830
 5782TIP3   OH241540   3.104   1.624  10.746 -0.0050  0.0372  0.6226
 5782TIP3    H141541   3.048   1.572  10.689  0.5127  0.6047 -0.4154
 5782TIP3    H241542   3.042   1.673  10.801 -0.5374  0.2976 -0.1827
 5783TIP3   OH241543   0.088   5.172  11.286 -0.0660 -0.2335 -0.2362
 5783TIP3    H141544   0.050   5.234  11.348 -1.3949  0.0940 -1.3349
 5783TIP3    H241545   0.030   5.095  11.290  2.1897 -1.9960  1.9757
 5784TIP3   OH241546   2.689   2.999  12.548  0.3677 -0.0350 -0.6721
 5784TIP3    H141547   2.759   2.934  12.543  0.2864 -0.1649 -0.0861
 5784TIP3    H241548   2.637   2.983  12.469 -2.0749 -3.4338  1.4102
 5785TIP3   OH241549   6.697   2.086   9.884  0.2182  0.0688  0.0776
 5785TIP3    H141550   6.709   1.995   9.914 -0.8023 -0.4996 -1.1599
 5785TIP3    H241551   6.607   2.108   9.909  0.6326  0.9595  0.8573
 5786TIP3   OH241552   0.197   6.545   9.875  0.0914  0.7304  0.7184
 5786TIP3    H141553   0.222   6.553   9.783  0.8827  0.1182  0.8751
 5786TIP3    H241554   0.102   6.559   9.875  0.1052  0.8796 -0.1652
 5787TIP3   OH241555   5.364   4.194  10.443 -0.1178  0.0804  0.0316
 5787TIP3    H141556   5.365   4.216  10.350  0.7921 -0.8013 -0.1764
 5787TIP3    H241557   5.427   4.254  10.482 -1.0724  0.9857  0.2216
 5788TIP3   OH241558   1.859   6.035  11.419  0.2141  0.3660 -0.0571
 5788TIP3    H141559   1.775   6.028  11.464 -1.0830  0.4611 -2.3566
 5788TIP3    H241560   1.909   6.098  11.471 -0.1930 -1.3874  2.6587
 5789TIP3   OH241561   0.622   4.140  10.913  0.1224 -0.2431  0.4586
 5789TIP3    H141562   0.595   4.081  10.842 -0.8867  1.3327 -0.5318
 5789TIP3    H241563   0.704   4.178  10.883  0.7676 -1.1019  1.0930
 5790TIP3   OH241564   0.547   2.243  10.424  0.1357 -0.0431 -0.4582
 5790TIP3    H141565   0.571   2.334  10.408  0.7646 -0.4418 -1.9708
 5790TIP3    H241566   0.562   2.199  10.340  0.4592 -1.6681  0.4019
 5791TIP3   OH241567   1.206   3.348  10.707 -0.1144 -0.5198  0.4702
 5791TIP3    H141568   1.211   3.253  10.719 -0.5839 -0.6774 -0.4474
 5791TIP3    H241569   1.196   3.383  10.795  0.6920 -1.2722  0.8768
 5792TIP3   OH241570   2.448   2.067  10.818 -0.1070 -0.2000  0.1243
 5792TIP3    H141571   2.391   2.023  10.881 -0.8472 -0.3305 -0.6167
 5792TIP3    H241572   2.452   2.158  10.849 -0.4456 -0.2659  0.3662
 5793TIP3   OH241573   5.642   6.471  11.995 -0.5075 -0.5268 -0.0364
 5793TIP3    H141574   5.548   6.482  11.985 -0.3757  0.4609 -0.3370
 5793TIP3    H241575   5.674   6.453  11.907 -0.6961 -3.5150  0.4187
 5794TIP3   OH241576   2.284   3.925  11.789  0.2116 -0.3187  0.2162
 5794TIP3    H141577   2.375   3.949  11.774  0.3515 -1.6145 -1.2320
 5794TIP3    H241578   2.288   3.858  11.858  0.2316  0.4700  0.9924
 5795TIP3   OH241579   1.084   2.971  12.032 -0.3948 -0.4511  0.0003
 5795TIP3    H141580   1.130   3.033  11.976 -0.9577 -0.9983 -1.0943
 5795TIP3    H241581   1.041   3.026  12.097  0.3001  0.1939 -0.0660
 5796TIP3   OH241582   5.581   4.819  12.108  0.6914 -0.0676  0.5304
 5796TIP3    H141583   5.533   4.862  12.179 -0.1831 -2.0235  1.1844
 5796TIP3    H241584   5.621   4.742  12.149  2.4916  0.2491 -0.5195
 5797TIP3   OH241585   6.141   5.929  12.062  0.2561  0.6615  0.1634
 5797TIP3    H141586   6.068   5.893  12.011  1.0587 -1.6450  0.5093
 5797TIP3    H241587   6.203   5.856  12.069  2.3532  2.3707  0.3626
 5798TIP3   OH241588   3.950   0.335   9.590 -0.4790  0.0050 -0.4271
 5798TIP3    H141589   3.985   0.249   9.613 -0.8985  0.2525  1.3289
 5798TIP3    H241590   3.887   0.318   9.521 -2.0543 -1.4349  1.2456
 5799TIP3   OH241591   3.896   6.451  10.324  0.2157  0.1122 -0.0762
 5799TIP3    H141592   3.818   6.395  10.324 -0.0649  0.5026  0.2680
 5799TIP3    H241593   3.864   6.537  10.350  0.4523  0.7029 -1.5852
 5800TIP3   OH241594   0.549   5.716  11.618  0.0964  0.4310 -0.1511
 5800TIP3    H141595   0.641   5.739  11.605  0.4644 -1.5650 -1.5310
 5800TIP3    H241596   0.552   5.630  11.661 -1.0416 -0.7350 -2.2212
 5801TIP3   OH241597   2.625   1.026  11.468  0.0106 -0.7756  0.1468
 5801TIP3    H141598   2.648   0.966  11.539 -1.9977 -0.0407  1.5016
 5801TIP3    H241599   2.538   0.999  11.441 -1.5943  2.2664  1.7545
 5802TIP3   OH241600   5.398   0.089  10.700  0.4443  0.1345  0.1051
 5802TIP3    H141601   5.423   0.178  10.724  2.9873 -0.7130  0.9005
 5802TIP3    H241602   5.421   0.035  10.776  0.6840 -1.4313 -1.0143
 5803TIP3   OH241603   1.330   4.170  11.344 -0.2895  0.1465  0.3742
 5803TIP3    H141604   1.417   4.209  11.350 -0.0805 -0.1476 -0.6101
 5803TIP3    H241605   1.346   4.077  11.331 -0.6869  0.3344 -1.8054
 5804TIP3   OH241606   2.286   3.562  10.012  0.2986 -0.1649  0.6361
 5804TIP3    H141607   2.217   3.562   9.946  1.6505  0.7207 -0.8456
 5804TIP3    H241608   2.266   3.636  10.068 -2.1227 -2.2153  2.7103
 5805TIP3   OH241609   5.097   2.041   9.890  0.0578 -0.0782  0.1770
 5805TIP3    H141610   5.079   1.959   9.843  3.5558 -0.1800 -1.2518
 5805TIP3    H241611   5.173   2.021   9.944 -0.7052  1.5355  1.9659
 5806TIP3   OH241612   5.518   5.847   9.835  0.5179 -0.3138  0.6660
 5806TIP3    H141613   5.578   5.779   9.804 -0.7350 -1.5335  0.8491
 5806TIP3    H241614   5.440   5.838   9.780  0.0697  0.5469  1.1387
 5807TIP3   OH241615   0.569   1.574   9.980  0.1246 -0.0699 -0.2720
 5807TIP3    H141616   0.509   1.518   9.931  0.1468  0.6442 -1.1199
 5807TIP3    H241617   0.594   1.520  10.056 -1.4312 -0.4496  0.0164
 5808TIP3   OH241618   5.208   5.652  10.603 -0.6473 -0.1265 -0.9907
 5808TIP3    H141619   5.136   5.686  10.550 -0.4423  0.7579 -0.7117
 5808TIP3    H241620   5.204   5.702  10.684  1.5898  1.5016 -1.7909
 5809TIP3   OH241621   4.512   3.370  11.113 -0.6798 -0.1502  0.4056
 5809TIP3    H141622   4.498   3.299  11.176 -1.0158 -0.5371 -0.0988
 5809TIP3    H241623   4.521   3.326  11.029  0.8833  0.2789  0.3205
 5810TIP3   OH241624   1.411   6.506   9.373  0.7337 -0.0490  0.3869
 5810TIP3    H141625   1.431   6.419   9.409  2.6224  0.7741  1.4914
 5810TIP3    H241626   1.493   6.554   9.381 -0.1066  1.6680 -0.7805
 5811TIP3   OH241627   0.363   0.153  10.253 -0.2182  0.5007 -0.7698
 5811TIP3    H141628   0.387   0.230  10.202 -1.7277  0.4090 -1.6439
 5811TIP3    H241629   0.305   0.186  10.321 -0.3090  0.2234 -0.7120
 5812TIP3   OH241630   0.105   5.913  10.829  0.1213  0.6259  0.1264
 5812TIP3    H141631   0.165   5.987  10.839  0.4008  0.2387  1.7664
 5812TIP3    H241632   0.082   5.889  10.919 -0.6263 -0.7400 -0.3942
 5813TIP3   OH241633   6.072   3.267  10.819 -0.6322  1.1017  0.1445
 5813TIP3    H141634   6.082   3.195  10.882 -0.0176  2.0178  1.1087
 5813TIP3    H241635   6.161   3.293  10.798 -0.8302  0.7932 -1.1528
 5814TIP3   OH241636   4.223   1.203  11.178  0.7343  0.0391  0.3649
 5814TIP3    H141637   4.217   1.298  11.187 -1.6003  0.1173 -1.3118
 5814TIP3    H241638   4.170   1.169  11.250 -1.1385  0.1586 -0.8835
 5815TIP3   OH241639   4.309   4.696  10.064  0.9282 -0.0502 -0.6200
 5815TIP3    H141640   4.322   4.646   9.983 -0.1954  0.8650 -1.4168
 5815TIP3    H241641   4.219   4.730  10.056  0.9246  0.3319  0.8631
 5816TIP3   OH241642   6.375   3.767   9.715  0.0952  0.2166  0.0463
 5816TIP3    H141643   6.287   3.732   9.730  0.3993 -1.3223 -1.4310
 5816TIP3    H241644   6.362   3.837   9.650 -0.0396 -0.0889 -0.2618
 5817TIP3   OH241645   0.051   1.806  10.674 -0.2745  0.4873 -0.3248
 5817TIP3    H141646   0.098   1.877  10.631  1.1590 -1.0428 -1.3952
 5817TIP3    H241647   0.118   1.762  10.727 -1.4644  0.8017  1.5694
 5818TIP3   OH241648   2.500   5.968  11.513  0.2872  0.4999  0.6367
 5818TIP3    H141649   2.505   5.893  11.454 -1.1527 -0.6984  1.9462
 5818TIP3    H241650   2.592   5.990  11.531  0.7984 -1.6809  1.0438
 5819TIP3   OH241651   0.162   1.875   9.053  0.3423 -0.6410  0.0802
 5819TIP3    H141652   0.255   1.884   9.032  0.3993 -0.2623  0.4790
 5819TIP3    H241653   0.151   1.782   9.072  0.6022 -0.7212 -0.1473
 5820TIP3   OH241654   5.370   5.273  12.730 -0.4084 -0.1964 -0.4634
 5820TIP3    H141655   5.435   5.233  12.672  0.7076  0.7252  0.1151
 5820TIP3    H241656   5.307   5.314  12.671  0.3682  0.1966 -1.0248
 5821TIP3   OH241657   6.663   0.488   9.947  0.2943 -0.1964  0.0892
 5821TIP3    H141658   6.757   0.469   9.956  0.1873 -1.0221 -0.4760
 5821TIP3    H241659   6.629   0.416   9.894 -0.5157  0.5233 -0.3793
 5822TIP3   OH241660   4.602   2.314  10.154  0.4591 -0.0476  0.2654
 5822TIP3    H141661   4.626   2.261  10.230 -1.6299 -0.6509  0.5714
 5822TIP3    H241662   4.518   2.353  10.177  0.4375  0.8758 -1.2128
 5823TIP3   OH241663   3.229   2.238   9.687 -0.0199  0.0488 -0.3374
 5823TIP3    H141664   3.216   2.289   9.766  0.3141 -0.7390  0.2378
 5823TIP3    H241665   3.173   2.280   9.621  0.1886  1.0919  0.1380
 5824TIP3   OH241666   6.180   0.113  10.291 -0.2422 -0.7574 -0.1798
 5824TIP3    H141667   6.150   0.054  10.360 -1.3836 -1.3748 -1.1620
 5824TIP3    H241668   6.260   0.152  10.326  1.2210 -3.7384  0.1016
 5825TIP3   OH241669   1.714   6.399  11.375  0.6788  0.8380 -0.4017
 5825TIP3    H141670   1.797   6.447  11.381  0.5942  1.1570 -1.5574
 5825TIP3    H241671   1.681   6.419  11.288 -0.1538 -0.0513 -0.3080
 5826TIP3   OH241672   3.108   0.862  10.484 -0.2407  0.6216 -0.6511
 5826TIP3    H141673   3.153   0.819  10.412 -0.6984  0.7618 -1.0254
 5826TIP3    H241674   3.035   0.804  10.506 -1.5582  1.7228 -1.9272
 5827TIP3   OH241675   5.383   5.825  11.745  0.8054 -0.4196  0.2078
 5827TIP3    H141676   5.390   5.783  11.831 -2.3486  0.6966  1.1583
 5827TIP3    H241677   5.349   5.756  11.687 -1.0056 -0.1910  0.9242
 5828TIP3   OH241678   0.341   2.219  10.674  0.4557 -0.9717  0.1718
 5828TIP3    H141679   0.400   2.220  10.599  0.7897 -0.5362  0.4351
 5828TIP3    H241680   0.399   2.221  10.751  0.1014  0.7526  0.4375
 5829TIP3   OH241681   2.154   1.950   9.360 -0.9329  0.5764 -0.0189
 5829TIP3    H141682   2.094   1.908   9.298 -0.0286 -1.4059  0.4036
 5829TIP3    H241683   2.098   2.009   9.410 -2.0438  0.7128 -1.3599
 5830TIP3   OH241684   5.401   4.507  10.503 -0.2235  0.3059  0.1856
 5830TIP3    H141685   5.405   4.535  10.412 -0.1417  0.8368  0.3477
 5830TIP3    H241686   5.348   4.574  10.546 -0.1011  0.1614  0.5639
 5831TIP3   OH241687   4.221   5.830  12.487 -0.1080 -0.5475 -0.0974
 5831TIP3    H141688   4.310   5.830  12.522 -0.3612  0.1517  0.5595
 5831TIP3    H241689   4.232   5.843  12.393  0.4555  0.5778  0.1048
 5832TIP3   OH241690   1.572   1.038  12.063 -0.1066  0.0972 -0.2128
 5832TIP3    H141691   1.608   1.104  12.122  1.0757 -1.4208  0.8627
 5832TIP3    H241692   1.595   0.955  12.104 -1.6068 -0.9959 -1.4754
 5833TIP3   OH241693   5.082   0.775   9.283  0.0349 -0.1865  0.4438
 5833TIP3    H141694   5.075   0.852   9.339  0.6902 -0.4540  0.9106
 5833TIP3    H241695   5.146   0.719   9.327  0.8483 -0.2413 -0.7692
 5834TIP3   OH241696   0.204   4.697  10.158  0.0890  0.0507 -0.7331
 5834TIP3    H141697   0.273   4.763  10.160  0.8967 -0.7915  0.3502
 5834TIP3    H241698   0.190   4.674  10.249 -1.1168 -0.3472 -0.9945
 5835TIP3   OH241699   3.288   0.394  11.077  0.5136  0.1937  0.2143
 5835TIP3    H141700   3.345   0.444  11.019  0.8734  0.4688  0.7936
 5835TIP3    H241701   3.209   0.447  11.085  0.4803  0.1754  0.0087
 5836TIP3   OH241702   5.950   1.042  11.278 -0.6362  0.1664 -0.1960
 5836TIP3    H141703   6.021   1.106  11.287  0.3109 -1.0271  1.5690
 5836TIP3    H241704   5.871   1.095  11.266  0.1681  1.6619  0.8028
 5837TIP3   OH241705   4.505   5.816   9.629 -0.2213  0.1257 -0.2192
 5837TIP3    H141706   4.410   5.820   9.618 -0.2379 -0.4546 -0.3521
 5837TIP3    H241707   4.518   5.804   9.723 -0.4367 -2.8067 -0.4508
 5838TIP3   OH241708   0.171   0.954   9.864  0.0230 -0.0492  0.0095
 5838TIP3    H141709   0.216   0.888   9.812  0.3640 -0.3863  0.7267
 5838TIP3    H241710   0.078   0.942   9.843 -0.0219 -1.4674  0.9316
 5839TIP3   OH241711   0.217   5.240  10.430 -0.0182  0.4207 -0.0787
 5839TIP3    H141712   0.186   5.320  10.388 -1.9949  0.7570  1.7914
 5839TIP3    H241713   0.169   5.237  10.513  0.6793 -2.2338  0.3292
 5840TIP3   OH241714   5.556   4.563   9.461 -0.2021 -0.3400 -0.3268
 5840TIP3    H141715   5.641   4.597   9.489 -0.1600 -1.8132  1.5414
 5840TIP3    H241716   5.498   4.578   9.536 -1.1293 -1.0169 -0.8822
 5841TIP3   OH241717   5.851   3.822   9.334  0.7267 -0.2142 -0.1151
 5841TIP3    H141718   5.883   3.736   9.306  1.8386 -0.1074  0.7584
 5841TIP3    H241719   5.817   3.862   9.254  0.7601 -1.2200 -0.6541
 5842TIP3   OH241720   3.557   0.892   9.201 -0.3103  0.1915  0.2553
 5842TIP3    H141721   3.631   0.852   9.246  0.2429 -0.3928 -1.1145
 5842TIP3    H241722   3.491   0.905   9.270  0.8251  0.1840  1.3836
 5843TIP3   OH241723   0.587   1.079   9.727  0.5532 -0.2704 -0.0867
 5843TIP3    H141724   0.657   1.110   9.670  0.6955 -1.1221 -0.3792
 5843TIP3    H241725   0.508   1.085   9.673  0.2190  1.5018  0.5064
 5844TIP3   OH241726   4.517   3.924   9.351  0.3437  1.1422 -0.0718
 5844TIP3    H141727   4.540   4.017   9.356 -0.5036  1.4500 -1.4089
 5844TIP3    H241728   4.580   3.887   9.290  1.7251  0.4444  1.6855
 5845TIP3   OH241729   4.603   3.858  10.973  0.3750  0.1157 -0.4780
 5845TIP3    H141730   4.537   3.803  11.014 -0.2757 -0.0004 -1.6549
 5845TIP3    H241731   4.666   3.796  10.935  0.5954  0.2131 -0.2772
 5846TIP3   OH241732   6.068   0.295  10.614  0.1571 -0.0992 -0.0488
 5846TIP3    H141733   6.006   0.326  10.679 -0.1476 -1.0103  0.0996
 5846TIP3    H241734   6.140   0.257  10.665 -0.1215 -0.8923 -0.2411
 5847TIP3   OH241735   0.537   4.535  10.068  0.4811  0.0254 -0.3463
 5847TIP3    H141736   0.568   4.579   9.989  0.2657  2.7500  0.9671
 5847TIP3    H241737   0.449   4.505  10.046  1.0108 -0.6469 -1.6022
 5848TIP3   OH241738   2.410   6.365  10.578  0.1196  0.2771 -0.5768
 5848TIP3    H141739   2.473   6.352  10.650 -1.6780 -0.8412  0.8734
 5848TIP3    H241740   2.366   6.447  10.599 -0.3236  0.0121 -0.4541
 5849TIP3   OH241741   2.123   1.466  11.315  0.1349 -0.2498  0.4793
 5849TIP3    H141742   2.161   1.391  11.359  0.0348 -0.4448  0.2344
 5849TIP3    H241743   2.197   1.510  11.273  0.4853  0.8352  2.1312
 5850TIP3   OH241744   4.784   6.476  12.418  0.1044 -0.2987 -0.2681
 5850TIP3    H141745   4.855   6.471  12.354  1.5413  0.2938  1.2108
 5850TIP3    H241746   4.755   6.386  12.428  1.0645 -0.6466 -0.4670
 5851TIP3   OH241747   6.527   3.373   9.475 -0.3267 -0.4028  0.1152
 5851TIP3    H141748   6.566   3.313   9.412  1.1065 -0.7506  1.2599
 5851TIP3    H241749   6.551   3.337   9.560 -0.6910  0.9914  0.8437
 5852TIP3   OH241750   2.781   4.558   9.896 -0.4127  0.2968 -0.0096
 5852TIP3    H141751   2.846   4.625   9.918 -0.9782  0.5105  1.1170
 5852TIP3    H241752   2.808   4.525   9.811 -0.5463  2.4970 -0.9835
 5853TIP3   OH241753   6.533   5.257   9.248 -0.2400  0.4901 -0.5621
 5853TIP3    H141754   6.581   5.211   9.179 -2.0342  0.0159 -1.5514
 5853TIP3    H241755   6.600   5.308   9.294  1.2979 -0.6504 -1.4426
 5854TIP3   OH241756   6.218   0.837  11.213 -1.2288  0.3147 -0.5769
 5854TIP3    H141757   6.280   0.910  11.218 -0.3224 -0.4881  0.3406
 5854TIP3    H241758   6.134   0.879  11.197 -0.5736  1.4812 -1.1664
 5855TIP3   OH241759   3.146   6.120  12.346 -0.2783 -0.5242 -0.0091
 5855TIP3    H141760   3.173   6.055  12.281  0.1562  2.1284 -2.7006
 5855TIP3    H241761   3.073   6.079  12.393  0.3535 -3.1188 -1.1432
 5856TIP3   OH241762   4.909   6.194   9.854 -0.5140 -0.4122  0.5076
 5856TIP3    H141763   4.982   6.184   9.792 -1.2075 -0.1837 -0.3647
 5856TIP3    H241764   4.891   6.288   9.855  0.3303 -0.2417  2.0638
 5857TIP3   OH241765   5.776   2.874  11.853 -0.3098 -0.5594 -0.3081
 5857TIP3    H141766   5.769   2.829  11.769  0.7627  0.0845 -0.7678
 5857TIP3    H241767   5.871   2.886  11.866 -0.4660 -0.5950  0.9616
 5858TIP3   OH241768   1.663   6.216   9.873 -0.1418 -0.2021 -0.1930
 5858TIP3    H141769   1.639   6.206   9.964  0.7539 -0.7941 -0.0053
 5858TIP3    H241770   1.759   6.206   9.872  0.0218  1.1222 -1.0069
 5859TIP3   OH241771   5.295   5.601   9.385 -0.0627  0.1558  0.5333
 5859TIP3    H141772   5.358   5.609   9.314  0.4934 -1.4141  0.7984
 5859TIP3    H241773   5.254   5.687   9.391  2.2332  1.3302  0.5292
 5860TIP3   OH241774   2.065   2.719   9.488 -0.1352 -0.4057  0.1360
 5860TIP3    H141775   2.064   2.803   9.441 -2.0026 -0.9477 -0.9325
 5860TIP3    H241776   2.112   2.660   9.429  1.6418 -0.0388  1.1227
 5861TIP3   OH241777   4.273   4.998  11.663  0.6463  0.3447  0.6353
 5861TIP3    H141778   4.210   5.032  11.726  0.9878  1.8100  0.2170
 5861TIP3    H241779   4.359   5.013  11.703  0.7716 -1.3178  1.0479
 5862TIP3   OH241780   3.909   3.185  10.302  0.1207 -0.1838  0.3812
 5862TIP3    H141781   3.927   3.210  10.211  1.1147 -0.9582  0.3473
 5862TIP3    H241782   3.909   3.268  10.350 -1.4552  0.3463 -0.4676
 5863TIP3   OH241783   4.489   4.630  10.252 -0.3269 -0.3260  0.2145
 5863TIP3    H141784   4.449   4.627  10.339 -0.0865 -1.6457  0.3043
 5863TIP3    H241785   4.416   4.646  10.192 -0.7191 -0.8743  0.5423
 5864TIP3   OH241786   3.332   0.683  10.061  0.0210 -0.0238  0.0139
 5864TIP3    H141787   3.359   0.597  10.095  0.1395  0.6778  1.8433
 5864TIP3    H241788   3.313   0.668   9.969  0.1053 -2.0027  0.2772
 5865TIP3   OH241789   0.711   0.873  11.651  0.6409 -0.1269  0.3860
 5865TIP3    H141790   0.801   0.866  11.683  0.1580 -0.5852  1.6968
 5865TIP3    H241791   0.697   0.791  11.603  0.2719 -1.0089  1.9435
 5866TIP3   OH241792   4.102   4.419   9.898 -0.6313 -0.3414  0.4786
 5866TIP3    H141793   4.192   4.450   9.904 -1.1644  1.7155 -1.2320
 5866TIP3    H241794   4.105   4.331   9.936  2.1588 -0.4853  0.1312
 5867TIP3   OH241795   2.433   4.343  11.383 -0.3041 -0.0659 -0.1160
 5867TIP3    H141796   2.517   4.350  11.429  0.1026  1.4441 -1.0100
 5867TIP3    H241797   2.370   4.322  11.452  0.8067 -1.3669  0.5578
 5868TIP3   OH241798   5.200   2.112  10.784 -0.0935  0.0375 -0.5451
 5868TIP3    H141799   5.167   2.106  10.874  1.8538  1.8007  0.3747
 5868TIP3    H241800   5.136   2.168  10.739 -0.4065  0.2165  0.1127
 5869TIP3   OH241801   0.322   2.068  12.123  0.7585  0.8173 -0.3198
 5869TIP3    H141802   0.364   2.152  12.106 -0.6718  1.5613 -0.2534
 5869TIP3    H241803   0.270   2.051  12.044 -0.6812  1.0824  0.5410
 5870TIP3   OH241804   4.290   5.706  10.726  0.1657  0.2307 -0.0455
 5870TIP3    H141805   4.270   5.685  10.635 -0.1129 -0.7891  0.2346
 5870TIP3    H241806   4.339   5.788  10.722 -0.7985  0.7829 -1.0268
 5871TIP3   OH241807   2.728   1.787  12.062 -0.4226 -0.1365 -0.2030
 5871TIP3    H141808   2.692   1.874  12.078  2.0388  0.9251  0.0357
 5871TIP3    H241809   2.680   1.730  12.122 -3.0516  0.7332 -1.3137
 5872TIP3   OH241810   0.096   4.923  12.901 -0.2923 -0.4039 -0.4914
 5872TIP3    H141811   0.064   5.005  12.937  0.1280 -0.4487 -0.0086
 5872TIP3    H241812   0.148   4.949  12.825  1.0507 -0.0986  0.4983
 5873TIP3   OH241813   0.871   3.159   9.453 -0.0836  0.3657  0.4134
 5873TIP3    H141814   0.854   3.251   9.433  1.6811  1.0432  1.7376
 5873TIP3    H241815   0.920   3.160   9.535  3.0425 -1.4550 -1.2018
 5874TIP3   OH241816   5.128   1.635   9.256 -0.4980  1.0183  0.0137
 5874TIP3    H141817   5.177   1.630   9.338 -0.7413 -1.9347  0.0967
 5874TIP3    H241818   5.194   1.647   9.188  0.2767 -1.2398  0.2816
 5875TIP3   OH241819   3.446   0.891   9.823 -0.1318 -0.4786  0.6037
 5875TIP3    H141820   3.425   0.800   9.803  0.4075 -0.5019  0.1042
 5875TIP3    H241821   3.476   0.889   9.914  2.8716 -1.3500 -0.2921
 5876TIP3   OH241822   0.641   6.367  11.153 -0.0829 -0.3634  0.0678
 5876TIP3    H141823   0.631   6.274  11.132 -2.1518  0.2430 -2.1866
 5876TIP3    H241824   0.729   6.389  11.125 -0.4746 -1.1292 -1.9526
 5877TIP3   OH241825   2.553   0.448  10.452 -0.0173 -0.1845 -0.2433
 5877TIP3    H141826   2.558   0.491  10.537 -0.4917 -0.0331 -0.2883
 5877TIP3    H241827   2.572   0.518  10.389  0.1471 -0.2552 -0.2750
 5878TIP3   OH241828   0.173   2.456  12.901  0.2215 -0.8147 -0.8113
 5878TIP3    H141829   0.158   2.381  12.843 -1.7877 -0.1520 -1.2071
 5878TIP3    H241830   0.103   2.518  12.879  0.7076  0.3707  0.8313
 5879TIP3   OH241831   3.387   5.971  10.906 -0.0889  0.1859  0.1036
 5879TIP3    H141832   3.311   6.013  10.866  2.7698  3.8353 -2.1307
 5879TIP3    H241833   3.395   6.013  10.992 -1.3691 -1.4189  1.0780
 5880TIP3   OH241834   5.221   6.044  10.062 -0.5116  0.5126 -0.1157
 5880TIP3    H141835   5.206   6.111   9.995 -2.0132  0.0237 -0.2875
 5880TIP3    H241836   5.243   6.094  10.141  0.0786  1.1346 -0.6656
 5881TIP3   OH241837   6.655   3.666  12.044 -0.1457 -0.1899  0.4459
 5881TIP3    H141838   6.660   3.730  12.115 -0.8587 -0.7017  0.9738
 5881TIP3    H241839   6.746   3.651  12.018  0.1588 -0.2478  1.4926
 5882TIP3   OH241840   5.746   4.305  11.025  0.0023 -0.7204 -0.4778
 5882TIP3    H141841   5.835   4.282  11.049  0.0170 -0.5360 -0.3619
 5882TIP3    H241842   5.693   4.280  11.100  0.3942  2.6860  1.1245
 5883TIP3   OH241843   1.276   6.032  11.908 -0.4563  0.4579  0.0945
 5883TIP3    H141844   1.311   5.946  11.884 -0.9473  0.5396 -0.9759
 5883TIP3    H241845   1.250   6.023  11.999 -0.5554 -0.5588 -0.0248
 5884TIP3   OH241846   2.781   4.646  12.529  0.5048 -0.5579 -0.0204
 5884TIP3    H141847   2.765   4.594  12.607 -1.0339 -1.5567 -0.9512
 5884TIP3    H241848   2.753   4.735  12.553  2.0139 -0.3780  1.1912
 5885TIP3   OH241849   3.202   3.538  10.599 -0.0646 -0.4631  0.4460
 5885TIP3    H141850   3.254   3.473  10.647 -0.0081  0.3490  1.5129
 5885TIP3    H241851   3.114   3.500  10.596 -0.5710  0.3298  3.0018
 5886TIP3   OH241852   3.687   4.375  10.138  0.2187  0.2303 -0.3581
 5886TIP3    H141853   3.737   4.327  10.205  0.2703  1.1170  0.2509
 5886TIP3    H241854   3.717   4.465  10.146  0.2451  0.3441 -1.6106
 5887TIP3   OH241855   6.556   1.504  10.956  0.2602  0.4374 -0.4856
 5887TIP3    H141856   6.598   1.490  10.871 -0.3154 -1.9944 -0.4534
 5887TIP3    H241857   6.586   1.430  11.009 -1.0594  0.7535  0.7424
 5888TIP3   OH241858   2.528   1.394   9.216 -0.7359 -0.0575  0.1070
 5888TIP3    H141859   2.603   1.335   9.219 -0.1630  0.6908  1.9269
 5888TIP3    H241860   2.558   1.469   9.166 -0.1038  0.4063  1.1470
 5889TIP3   OH241861   6.695   5.941  11.785  0.5335  0.4289  0.5366
 5889TIP3    H141862   6.737   5.879  11.725  0.9450  0.4378  0.8131
 5889TIP3    H241863   6.680   5.890  11.864 -0.6746  0.2055  0.1915
 5890TIP3   OH241864   5.107   6.644  11.542 -0.1423  0.1586 -0.2046
 5890TIP3    H141865   5.043   6.609  11.604 -1.3971 -0.3961 -1.7478
 5890TIP3    H241866   5.057   6.659  11.462  2.0645 -2.6331 -2.3052
 5891TIP3   OH241867   1.575   3.552  10.069 -0.4083  0.0081  0.0912
 5891TIP3    H141868   1.635   3.477  10.076  1.0046  0.9803 -1.0982
 5891TIP3    H241869   1.588   3.601  10.151  2.4414  1.5906 -1.1750
 5892TIP3   OH241870   5.535   3.475  12.020 -0.0015 -0.6833  0.5333
 5892TIP3    H141871   5.617   3.491  12.066  0.5517  1.3110 -1.0132
 5892TIP3    H241872   5.561   3.425  11.942 -0.4003 -0.8706  0.5189
 5893TIP3   OH241873   0.847   3.405   9.762  0.1298 -0.2091  0.3441
 5893TIP3    H141874   0.775   3.346   9.785 -0.3558  0.1435 -0.2583
 5893TIP3    H241875   0.808   3.492   9.763  0.9870  0.1844  1.8281
 5894TIP3   OH241876   1.342   5.138  11.576 -0.6749 -0.7300  0.4141
 5894TIP3    H141877   1.368   5.087  11.652  0.6984 -1.4886 -0.5270
 5894TIP3    H241878   1.378   5.091  11.501 -1.4987  0.2975 -0.6838
 5895TIP3   OH241879   6.487   1.431  11.278 -0.0814  0.4758  0.3547
 5895TIP3    H141880   6.440   1.370  11.336 -0.3957 -0.4678 -0.8428
 5895TIP3    H241881   6.541   1.374  11.223  2.7206  1.5236  1.8225
 5896TIP3   OH241882   2.535   5.577  12.783  0.4715  0.2565  0.0000
 5896TIP3    H141883   2.465   5.626  12.826  2.0048  1.9887  0.6414
 5896TIP3    H241884   2.583   5.535  12.854  2.2377  2.0713 -0.0346
 5897TIP3   OH241885   1.187   5.327  10.795 -0.0399 -0.5087 -0.3880
 5897TIP3    H141886   1.092   5.329  10.809  0.2930  0.1454  2.2479
 5897TIP3    H241887   1.208   5.234  10.789 -0.4872 -0.9232  2.7153
 5898TIP3   OH241888   4.313   4.203  10.243 -0.2805 -0.4590  0.4184
 5898TIP3    H141889   4.326   4.108  10.241  2.2030 -0.1900  0.4518
 5898TIP3    H241890   4.383   4.235  10.300 -0.1236  1.5076 -0.7901
 5899TIP3   OH241891   2.927   4.255   9.869  0.6305 -0.3532 -0.4388
 5899TIP3    H141892   2.900   4.326   9.811  2.0085 -0.3787 -1.1659
 5899TIP3    H241893   2.935   4.179   9.811  1.1293 -0.6026 -0.0556
 5900TIP3   OH241894   4.214   0.284  12.167 -0.1254 -0.0182  0.1369
 5900TIP3    H141895   4.125   0.299  12.200 -0.1941 -0.9874  0.4210
 5900TIP3    H241896   4.232   0.360  12.111 -1.8870 -0.7573 -1.5416
 5901TIP3   OH241897   1.471   5.183  11.242 -0.1535  0.1146 -0.2624
 5901TIP3    H141898   1.557   5.165  11.203 -0.0743 -0.5703  0.1961
 5901TIP3    H241899   1.420   5.105  11.224 -0.8752  0.7585 -1.0328
 5902TIP3   OH241900   3.468   2.632   9.894 -0.3695 -0.1250  0.2502
 5902TIP3    H141901   3.520   2.653   9.817  0.6138 -1.7248  0.4430
 5902TIP3    H241902   3.382   2.671   9.876  0.1610  0.4598 -1.1538
 5903TIP3   OH241903   4.765   6.041  11.465 -0.4443 -0.1803 -0.1589
 5903TIP3    H141904   4.859   6.037  11.483 -0.4820  0.0240  0.0893
 5903TIP3    H241905   4.732   5.957  11.497 -0.5555  0.2984  1.0395
 5904TIP3   OH241906   5.203   0.343  12.951 -0.5056  0.5976  0.1197
 5904TIP3    H141907   5.224   0.328  12.859  0.0566  3.5221 -0.3408
 5904TIP3    H241908   5.287   0.338  12.996 -0.6867 -0.1693  0.3859
 5905TIP3   OH241909   4.530   3.191  11.553 -0.1253  0.2755  0.7167
 5905TIP3    H141910   4.441   3.191  11.589  0.1124  0.7752  1.3197
 5905TIP3    H241911   4.528   3.259  11.485 -0.3802 -0.1797  0.2575
 5906TIP3   OH241912   6.379   2.628   9.517 -0.6243  0.4641  0.0443
 5906TIP3    H141913   6.402   2.710   9.473 -0.6764  0.3380 -0.2147
 5906TIP3    H241914   6.395   2.646   9.610  1.2605  0.1275 -0.1905
 5907TIP3   OH241915   0.962   0.905  11.466  0.6093  0.3169 -0.1742
 5907TIP3    H141916   0.897   0.974  11.455  0.1604 -0.0272  0.2950
 5907TIP3    H241917   0.964   0.888  11.560  0.5783 -0.4381 -0.3006
 5908TIP3   OH241918   4.900   2.619  10.009 -0.0528 -0.3146  0.2278
 5908TIP3    H141919   4.994   2.602  10.018 -0.0479 -1.5478 -1.6342
 5908TIP3    H241920   4.866   2.543   9.962 -1.9672  0.1873  0.7111
 5909TIP3   OH241921   0.059   3.104   9.543  0.1014  0.3514 -0.2996
 5909TIP3    H141922   0.034   3.139   9.457  0.4615  0.7588 -0.2447
 5909TIP3    H241923   0.155   3.111   9.544  0.0225  1.5288  0.6274
 5910TIP3   OH241924   6.561   4.547  11.984 -0.0798 -0.2191  0.3808
 5910TIP3    H141925   6.644   4.594  11.974  0.4622 -0.9585  1.2758
 5910TIP3    H241926   6.569   4.501  12.067 -1.4277 -0.2459  0.5243
 5911TIP3   OH241927   2.970   4.964  11.491  0.2945 -0.0801  0.7246
 5911TIP3    H141928   3.038   5.014  11.535  1.2274  0.3245 -1.0708
 5911TIP3    H241929   3.009   4.878  11.477 -0.0136 -0.2226  0.7320
 5912TIP3   OH241930   0.075   6.253  10.125  0.5130 -0.1290  0.0518
 5912TIP3    H141931   0.124   6.281  10.049  1.3909  1.2248  1.0815
 5912TIP3    H241932   0.081   6.157  10.124  3.1651 -0.0155  0.1189
 5913TIP3   OH241933   4.477   3.177   9.119  0.8050 -0.4763 -0.1317
 5913TIP3    H141934   4.439   3.261   9.093 -0.2400 -0.8623  0.0767
 5913TIP3    H241935   4.403   3.116   9.118  1.3516 -1.1827  0.6757
 5914TIP3   OH241936   5.523   1.068  11.974 -0.5226  0.1781 -0.0471
 5914TIP3    H141937   5.559   1.155  11.961 -0.2872  0.3826  1.6754
 5914TIP3    H241938   5.478   1.073  12.059  0.7544 -1.7360  0.8369
 5915TIP3   OH241939   1.885   0.966  12.187 -0.2123  0.0392  0.8969
 5915TIP3    H141940   1.888   0.954  12.092 -2.7716 -0.7054  0.8486
 5915TIP3    H241941   1.868   0.879  12.221  0.6349  0.3098  2.0774
 5916TIP3   OH241942   2.052   0.963  10.690 -0.1127  0.3916  0.8002
 5916TIP3    H141943   2.106   1.031  10.649  0.9128 -0.8267  0.0697
 5916TIP3    H241944   2.034   0.997  10.778  0.2544  1.6670  0.4056
 5917TIP3   OH241945   2.266   5.795  11.619 -0.2253 -0.1225  0.0606
 5917TIP3    H141946   2.225   5.786  11.705  1.7245  0.9674  1.1734
 5917TIP3    H241947   2.347   5.845  11.636  0.4900 -0.3575 -2.3188
 5918TIP3   OH241948   5.836   0.207  10.343 -0.0224 -0.2147 -0.4040
 5918TIP3    H141949   5.857   0.114  10.349  1.5807  0.1676  0.6367
 5918TIP3    H241950   5.783   0.225  10.421 -0.7196 -0.3450 -0.8467
 5919TIP3   OH241951   0.713   6.651  10.764  0.2320 -0.4708 -0.2792
 5919TIP3    H141952   0.619   6.671  10.765  0.1193 -0.9888 -0.0376
 5919TIP3    H241953   0.728   6.612  10.678  0.3723  0.2702 -0.5964
 5920TIP3   OH241954   0.795   5.158  10.231  0.4805  0.2663 -0.1184
 5920TIP3    H141955   0.770   5.193  10.145  2.0300  1.4751 -0.1349
 5920TIP3    H241956   0.881   5.198  10.249  1.0064 -1.3433  1.2085
 5921TIP3   OH241957   0.908   3.708   9.515 -0.7855 -0.3027  0.4130
 5921TIP3    H141958   0.958   3.789   9.505 -0.5260 -0.5587 -0.4410
 5921TIP3    H241959   0.857   3.722   9.595 -1.5270  1.1279 -0.2562
 5922TIP3   OH241960   2.123   2.331  10.369 -0.5354  0.4091 -0.1451
 5922TIP3    H141961   2.045   2.278  10.388 -0.8247  0.7798 -0.2768
 5922TIP3    H241962   2.088   2.416  10.343 -0.0747  0.6662  0.0653
 5923TIP3   OH241963   1.697   4.759  10.119 -0.1311 -0.4611 -0.4862
 5923TIP3    H141964   1.702   4.730  10.028  1.0119  2.3343 -1.4079
 5923TIP3    H241965   1.608   4.795  10.128 -0.2841 -0.8425 -0.4385
 5924TIP3   OH241966   1.125   5.866  10.125 -0.4258 -0.0445  0.3106
 5924TIP3    H141967   1.158   5.908  10.204 -1.1063  0.9797  0.0769
 5924TIP3    H241968   1.147   5.773  10.135  1.0956  0.3408  0.8636
 5925TIP3   OH241969   1.845   4.034  10.019  0.3786 -0.2681  0.7084
 5925TIP3    H141970   1.772   4.063   9.964  0.1769 -1.9705  0.0213
 5925TIP3    H241971   1.807   4.022  10.106  0.4627  1.3883  1.0144
 5926TIP3   OH241972   0.747   1.105  12.439 -0.2738 -0.1733  0.4003
 5926TIP3    H141973   0.838   1.083  12.420 -0.3496 -0.6587  0.5800
 5926TIP3    H241974   0.731   1.186  12.391  0.1748 -0.2276  0.1570
 5927TIP3   OH241975   1.242   6.590  10.295 -0.4499  0.1361  0.3139
 5927TIP3    H141976   1.310   6.581  10.361  0.5406  0.8466 -0.5736
 5927TIP3    H241977   1.201   6.504  10.289  0.0961 -0.1835  1.1520
 5928TIP3   OH241978   2.791   4.105  10.745 -0.2345 -0.4551  0.1664
 5928TIP3    H141979   2.707   4.108  10.791 -1.5049 -0.5566 -2.0210
 5928TIP3    H241980   2.778   4.043  10.674  1.9864 -1.0900  0.2137
 5929TIP3   OH241981   0.808   2.613  10.990 -0.5161  0.2776 -0.2750
 5929TIP3    H141982   0.902   2.611  11.010 -0.4689  2.2391 -0.0938
 5929TIP3    H241983   0.800   2.678  10.921 -1.6345 -0.7122 -1.1107
 5930TIP3   OH241984   4.507   1.799  10.509 -0.3029 -0.3126  0.5434
 5930TIP3    H141985   4.474   1.727  10.563  0.2694 -1.2651 -0.3380
 5930TIP3    H241986   4.519   1.871  10.570 -1.0622 -0.9036  1.4205
 5931TIP3   OH241987   3.907   1.847  10.033  0.4546 -0.4074  0.1148
 5931TIP3    H141988   3.889   1.931  10.076  0.7712 -0.4671  0.3742
 5931TIP3    H241989   3.928   1.870   9.943 -2.8509 -0.4832 -0.8155
 5932TIP3   OH241990   4.481   3.422  11.429  0.2299  0.2419  0.3322
 5932TIP3    H141991   4.562   3.471  11.442  0.7301 -0.4299 -0.1650
 5932TIP3    H241992   4.430   3.474  11.367 -0.4645  1.5039  1.8999
 5933TIP3   OH241993   2.731   5.324  10.255 -0.2985  0.1265 -0.1619
 5933TIP3    H141994   2.690   5.246  10.294  0.5068  0.1742  0.8222
 5933TIP3    H241995   2.657   5.378  10.229 -0.8813 -1.2085 -1.3991
 5934TIP3   OH241996   4.133   5.881  11.112 -0.0092 -0.2840 -0.0206
 5934TIP3    H141997   4.192   5.901  11.184 -0.3077 -0.0359  0.1557
 5934TIP3    H241998   4.164   5.936  11.039  0.8435 -1.1904 -0.3613
 5935TIP3   OH241999   3.148   0.719  12.342 -0.5288 -0.5015  0.1240
 5935TIP3    H142000   3.159   0.813  12.359 -0.7720 -0.2967 -0.7882
 5935TIP3    H242001   3.063   0.713  12.298  0.0277 -0.9974 -0.9176
 5936TIP3   OH242002   5.118   1.613  11.994  0.7037  0.1082  0.0998
 5936TIP3    H142003   5.073   1.628  12.077 -0.2053 -0.4098 -0.2729
 5936TIP3    H242004   5.112   1.697  11.948 -1.0175 -0.2568 -0.4414
 5937TIP3   OH242005   6.434   2.384  10.871  0.3232  0.2731 -0.9789
 5937TIP3    H142006   6.390   2.469  10.865  0.2244  0.1735 -1.7583
 5937TIP3    H242007   6.512   2.394  10.817 -0.2233 -0.4589 -1.9121
 5938TIP3   OH242008   1.062   4.772  10.731 -0.1913 -0.4541 -0.1963
 5938TIP3    H142009   1.003   4.732  10.667 -1.3986  1.5502 -0.4205
 5938TIP3    H242010   1.126   4.820  10.677  2.5707 -3.5345 -0.0233
 5939TIP3   OH242011   5.561   1.455  11.406 -0.0211 -0.0133  0.0672
 5939TIP3    H142012   5.650   1.481  11.430 -0.4054  0.4844  0.9959
 5939TIP3    H242013   5.562   1.453  11.310  0.6452  1.2457  0.0200
 5940TIP3   OH242014   5.721   2.874  10.412  0.3919  0.4871 -0.7162
 5940TIP3    H142015   5.734   2.836  10.499 -1.7869 -1.6211 -1.1704
 5940TIP3    H242016   5.663   2.949  10.426  0.5211  0.5056 -0.2853
 5941TIP3   OH242017   1.925   6.187  10.120 -0.0845  0.0028  1.1218
 5941TIP3    H142018   1.880   6.110  10.085  1.4830 -0.0841 -0.9020
 5941TIP3    H242019   2.015   6.158  10.134  0.6841  1.5788 -0.2378
 5942TIP3   OH242020   1.177   3.715  11.541  0.0187 -0.0122 -0.4211
 5942TIP3    H142021   1.089   3.747  11.525 -0.3701 -0.9086 -0.1297
 5942TIP3    H242022   1.217   3.781  11.598 -0.3607  0.5306 -0.7737
 5943TIP3   OH242023   3.476   5.722  12.245  0.2414  0.3755  0.9028
 5943TIP3    H142024   3.542   5.675  12.296  1.0835 -0.3172 -0.7172
 5943TIP3    H242025   3.400   5.664  12.245  0.8631 -0.4865 -0.0776
 5944TIP3   OH242026   1.209   0.763  12.687  0.0124  0.4579 -0.2937
 5944TIP3    H142027   1.155   0.737  12.762  1.1303 -0.8042  0.1200
 5944TIP3    H242028   1.296   0.775  12.724  0.6330 -0.4246 -1.4071
 5945TIP3   OH242029   5.869   3.186  11.760 -0.0110 -0.2662  0.1280
 5945TIP3    H142030   5.875   3.091  11.747  0.7322 -0.3688  1.1038
 5945TIP3    H242031   5.938   3.222  11.706  0.1217 -0.3370  0.2484
 5946TIP3   OH242032   0.093   0.908  11.815  0.1544 -0.3768  0.0272
 5946TIP3    H142033   0.180   0.946  11.805  0.0036 -0.1478 -0.4905
 5946TIP3    H242034   0.095   0.828  11.763  0.1620 -0.5532  0.2969
 5947TIP3   OH242035   1.762   2.500   9.461  0.2983  0.5038  0.7930
 5947TIP3    H142036   1.838   2.549   9.491  1.3725 -0.2827 -0.5247
 5947TIP3    H242037   1.722   2.556   9.394  1.3581 -0.2247 -0.5035
 5948TIP3   OH242038   1.953   1.528  10.763  0.3599  0.2307  0.4392
 5948TIP3    H142039   2.001   1.548  10.843  0.1960  0.6750  0.4319
 5948TIP3    H242040   1.864   1.559  10.780  0.5909  1.3595 -0.3159
 5949TIP3   OH242041   3.245   3.550   9.494 -0.7183  0.4440  0.3864
 5949TIP3    H142042   3.236   3.455   9.492  1.4996  0.1546  1.0027
 5949TIP3    H242043   3.213   3.575   9.581  0.9220 -0.1005  1.2026
 5950TIP3   OH242044   3.560   1.065  13.259 -0.0453 -0.3133 -0.3900
 5950TIP3    H142045   3.570   1.131  13.328  0.9153  1.0544 -1.7688
 5950TIP3    H242046   3.642   1.070  13.210 -0.8468 -0.9911 -1.8459
 5951TIP3   OH242047   3.891   2.788  10.746  0.5447  0.7283 -0.3868
 5951TIP3    H142048   3.836   2.712  10.769  0.1616  0.3318 -2.4480
 5951TIP3    H242049   3.847   2.862  10.788 -0.4296  0.1316 -0.3038
 5952TIP3   OH242050   3.800   5.598  11.543  0.2247  0.3121 -0.1823
 5952TIP3    H142051   3.741   5.615  11.470  0.0481  0.6607  0.0383
 5952TIP3    H242052   3.886   5.625  11.510 -0.0204  1.4543  0.0889
 5953TIP3   OH242053   5.595   2.542  10.187  0.5008 -0.4949  0.4244
 5953TIP3    H142054   5.565   2.624  10.146 -0.0459 -0.9252 -0.0507
 5953TIP3    H242055   5.678   2.566  10.229  0.5252  0.2240 -0.0041
 5954TIP3   OH242056   3.547   4.287  10.761 -0.4466 -0.4922 -0.3133
 5954TIP3    H142057   3.563   4.327  10.676 -0.4002 -0.6188 -0.3652
 5954TIP3    H242058   3.599   4.206  10.760 -2.0332 -1.5668 -0.9807
 5955TIP3   OH242059   1.185   6.278   9.907  0.7829 -0.2827 -0.2109
 5955TIP3    H142060   1.150   6.192   9.931 -0.8827  0.3918 -0.1116
 5955TIP3    H242061   1.265   6.287   9.959 -0.5212 -0.6025  1.9804
 5956TIP3   OH242062   4.803   2.704  19.578  0.5394  0.1968  0.6871
 5956TIP3    H142063   4.874   2.698  19.642  0.7191  0.0594  0.4757
 5956TIP3    H242064   4.806   2.794  19.546  0.4915  0.2468  0.8218
 5957TIP3   OH242065   4.097   2.531  12.206  0.1669  0.1228 -0.2797
 5957TIP3    H142066   4.135   2.550  12.120 -0.9602  0.6461 -0.6890
 5957TIP3    H242067   4.171   2.533  12.267  0.7008  1.7945 -0.9320
 5958TIP3   OH242068   0.217   1.210  12.855 -0.2454  0.2551  0.2591
 5958TIP3    H142069   0.241   1.221  12.763 -1.8105  2.4635  0.0437
 5958TIP3    H242070   0.150   1.141  12.853 -1.8774  1.7905 -0.6118
 5959TIP3   OH242071   5.794   6.511  13.140 -0.1576  0.3127  0.1840
 5959TIP3    H142072   5.743   6.488  13.062  1.2112 -0.6053 -0.4904
 5959TIP3    H242073   5.883   6.522  13.108  0.7747 -1.7414  1.8246
 5960TIP3   OH242074   4.957   4.882   9.742 -1.0577 -0.4787  0.3735
 5960TIP3    H142075   4.914   4.966   9.756 -1.6274 -0.2143 -2.4815
 5960TIP3    H242076   4.886   4.818   9.745 -1.2671 -0.3725 -1.3367
 5961TIP3   OH242077   2.749   5.672  12.026 -0.5738  0.2422  0.2264
 5961TIP3    H142078   2.702   5.691  12.107 -0.8285 -1.6162  0.5594
 5961TIP3    H242079   2.680   5.658  11.961 -0.6592 -2.8360  0.7921
 5962TIP3   OH242080   5.735   1.557  10.426  0.0728  0.1412 -0.2461
 5962TIP3    H142081   5.778   1.479  10.391  1.0986  0.3441  0.5088
 5962TIP3    H242082   5.797   1.628  10.410 -0.4693  0.6453 -0.1392
 5963TIP3   OH242083   4.408   4.946  10.217  0.1559  0.1927  0.0258
 5963TIP3    H142084   4.343   4.876  10.226 -2.1458  2.0958 -0.7117
 5963TIP3    H242085   4.397   5.000  10.295  0.4301  0.8743 -0.3907
 5964TIP3   OH242086   3.659   5.359  11.685 -0.0890  0.2700 -0.4909
 5964TIP3    H142087   3.664   5.294  11.755 -0.1168  2.1354  1.3449
 5964TIP3    H242088   3.721   5.328  11.619 -1.1016 -2.2924 -0.3270
 5965TIP3   OH242089   4.021   0.529   9.926  0.5196 -0.0291  0.4166
 5965TIP3    H142090   4.002   0.529   9.832  1.3355 -1.2084  0.2401
 5965TIP3    H242091   4.022   0.622   9.950  0.2078  0.2799 -0.7118
 5966TIP3   OH242092   3.214   3.896  12.544 -0.0934 -0.3168 -0.2500
 5966TIP3    H142093   3.276   3.924  12.478 -1.1865 -0.6222 -1.4457
 5966TIP3    H242094   3.266   3.846  12.607  0.7028 -1.4555 -1.7732
 5967TIP3   OH242095   2.105   6.331  11.238 -0.1294 -0.3287  0.2323
 5967TIP3    H142096   2.058   6.414  11.228 -0.0676 -0.3248 -0.0338
 5967TIP3    H242097   2.142   6.335  11.326  0.3840  0.1845 -0.0041
 5968TIP3   OH242098   1.201   1.170   9.129  0.2350  0.0414  0.6374
 5968TIP3    H142099   1.180   1.114   9.204 -0.5059  1.3234  1.4227
 5968TIP3    H242100   1.131   1.153   9.066  0.3961 -0.4261  0.5839
 5969TIP3   OH242101   3.361   1.915  11.866 -0.1889 -0.4610 -0.0035
 5969TIP3    H142102   3.350   2.009  11.850  0.0120 -0.4401 -0.0247
 5969TIP3    H242103   3.409   1.884  11.790 -0.5204 -0.6396 -0.1396
 5970TIP3   OH242104   0.303   2.340   9.164 -0.5306  1.2652 -1.1036
 5970TIP3    H142105   0.231   2.289   9.126 -0.5539 -1.3697  1.9769
 5970TIP3    H242106   0.378   2.281   9.161  0.3168  2.2646 -0.2569
 5971TIP3   OH242107   4.525   4.024  10.460  0.0137 -0.1680  0.4551
 5971TIP3    H142108   4.546   4.108  10.500  1.3490  0.4181 -1.3255
 5971TIP3    H242109   4.548   3.959  10.527 -0.9114  0.8469  1.8107
 5972TIP3   OH242110   0.545   3.145  10.054  0.7878  0.3893 -0.2255
 5972TIP3    H142111   0.560   3.109   9.967 -1.3391 -2.2866  0.3672
 5972TIP3    H242112   0.619   3.115  10.106  0.7882 -0.1929 -0.5493
 5973TIP3   OH242113   5.569   1.089  10.903  0.0971 -0.0659  0.0461
 5973TIP3    H142114   5.622   1.010  10.895 -0.8267 -0.5716 -1.2812
 5973TIP3    H242115   5.616   1.154  10.849 -0.6347 -0.5368 -1.1967
 5974TIP3   OH242116   4.351   3.108  10.408 -0.4047  0.3697 -0.4694
 5974TIP3    H142117   4.327   3.026  10.366 -1.9286  1.1562 -1.2244
 5974TIP3    H242118   4.278   3.126  10.468  0.3806  0.6965  0.4069
 5975TIP3   OH242119   6.170   1.083   9.255 -0.2150  0.9919  0.5977
 5975TIP3    H142120   6.179   1.172   9.219  0.4322  0.2403 -1.2073
 5975TIP3    H242121   6.137   1.097   9.344 -0.1719  3.0365  0.3517
 5976TIP3   OH242122   4.164   1.185  12.775 -0.2170 -0.1663  0.4517
 5976TIP3    H142123   4.201   1.210  12.691  0.5519 -0.3202  0.7344
 5976TIP3    H242124   4.146   1.092  12.767  0.6243 -0.3558  0.7310
 5977TIP3   OH242125   3.925   4.678  10.914 -0.1959  0.0851  0.0260
 5977TIP3    H142126   3.901   4.723  10.832 -0.2760 -0.6364 -0.3567
 5977TIP3    H242127   3.933   4.748  10.978 -0.4014  0.6395 -0.5399
 5978TIP3   OH242128   6.562   5.404  10.051 -0.2065  1.0843  0.0427
 5978TIP3    H142129   6.513   5.453   9.985 -0.3756  1.3183  0.3372
 5978TIP3    H242130   6.649   5.394  10.014 -0.7382 -0.2094 -0.9294
 5979TIP3   OH242131   0.003   6.078  12.526 -0.2083  0.4750 -0.1207
 5979TIP3    H142132   0.010   6.103  12.618 -0.2436 -0.6475  0.1943
 5979TIP3    H242133   0.056   6.143  12.479 -0.5368  1.3074  0.6370
 5980TIP3   OH242134   1.339   1.629   9.765  0.0825  0.7099 -0.6932
 5980TIP3    H142135   1.254   1.593   9.790 -0.0847  1.1643 -0.5981
 5980TIP3    H242136   1.369   1.573   9.694 -0.5145  0.8373 -1.0449
 5981TIP3   OH242137   4.192   2.030  11.131  0.2872  0.4652 -0.8236
 5981TIP3    H142138   4.286   2.034  11.146  0.3075  3.0276 -1.0577
 5981TIP3    H242139   4.183   2.013  11.037  0.6509  2.7344 -1.3308
 5982TIP3   OH242140   1.570   6.234   9.623  0.3346  0.0129  0.3156
 5982TIP3    H142141   1.635   6.286   9.575 -1.5748  2.0937 -0.2257
 5982TIP3    H242142   1.606   6.226   9.712  1.8833 -0.0360 -0.2817
 5983TIP3   OH242143   6.346   1.051   9.881  0.3858  0.4654 -0.1503
 5983TIP3    H142144   6.255   1.019   9.881  0.7026 -0.4848  0.4206
 5983TIP3    H242145   6.392   0.990   9.938  1.4673  0.7091 -0.7466
 5984TIP3   OH242146   0.428   2.305  11.020 -0.2215  0.1112  0.1021
 5984TIP3    H142147   0.484   2.383  11.012 -2.2850  1.6742  0.1319
 5984TIP3    H242148   0.418   2.292  11.114 -1.3767  0.9943  0.1233
 5985TIP3   OH242149   4.244   4.056   9.331  0.2791 -0.6170 -0.1854
 5985TIP3    H142150   4.326   4.017   9.301  0.0687 -0.6188 -0.7550
 5985TIP3    H242151   4.206   3.989   9.388  1.5651  0.0941  1.6337
 5986TIP3   OH242152   5.287   0.750  12.388 -0.4406  0.1585  0.0568
 5986TIP3    H142153   5.206   0.779  12.430 -0.8916 -0.8594 -0.0553
 5986TIP3    H242154   5.270   0.760  12.294 -0.5265 -0.2470  0.0249
 5987TIP3   OH242155   0.074   1.537  11.566 -0.6024  0.0466  0.0521
 5987TIP3    H142156  -0.021   1.538  11.550 -0.8993  0.1314  1.6183
 5987TIP3    H242157   0.086   1.599  11.638  0.8152  0.9013 -0.8842
 5988TIP3   OH242158   3.686   0.134  11.895 -0.0325  0.4517 -0.3825
 5988TIP3    H142159   3.712   0.048  11.862 -3.0496 -0.1416 -1.5962
 5988TIP3    H242160   3.767   0.185  11.898  1.4160 -1.5340 -2.4342
 5989TIP3   OH242161   4.800   1.548  11.894 -0.4570 -0.7379 -0.1924
 5989TIP3    H142162   4.837   1.503  11.819  1.2779 -2.1117  1.4014
 5989TIP3    H242163   4.861   1.531  11.965 -0.9952  2.1568  1.1028
 5990TIP3   OH242164   5.684   1.343   9.260 -0.8783  0.4404 -0.2149
 5990TIP3    H142165   5.649   1.345   9.349  2.5919  0.3444  1.3122
 5990TIP3    H242166   5.644   1.419   9.217 -0.4020  2.3885  2.4584
 5991TIP3   OH242167   0.351   4.477  12.337 -0.4032  0.6655  0.2096
 5991TIP3    H142168   0.335   4.540  12.407  1.4908 -0.9823  2.2838
 5991TIP3    H242169   0.443   4.490  12.314  0.1969 -1.5655  1.0641
 5992TIP3   OH242170   5.253   6.102  11.369 -0.0337 -0.5793  0.2752
 5992TIP3    H142171   5.191   6.050  11.421 -0.0476  0.0172  0.8557
 5992TIP3    H242172   5.207   6.118  11.287 -0.8114  0.1794  0.8439
 5993TIP3   OH242173   3.468   2.354  11.455  0.0574 -0.3751  0.3602
 5993TIP3    H142174   3.413   2.337  11.531 -1.0061 -0.1204 -0.3201
 5993TIP3    H242175   3.553   2.378  11.491 -0.5340  0.1157  1.4769
 5994TIP3   OH242176   0.826   2.929  10.397  0.5109  0.5869  0.0126
 5994TIP3    H142177   0.738   2.893  10.410  0.8721 -0.8045 -1.0526
 5994TIP3    H242178   0.847   2.974  10.478 -0.5308 -0.5089  0.9185
 5995TIP3   OH242179   2.888   0.400   9.651  0.0470 -0.1805  0.0125
 5995TIP3    H142180   2.840   0.394   9.568  1.3888 -1.6384 -0.7296
 5995TIP3    H242181   2.825   0.372   9.718 -0.3880 -1.2970 -0.8274
 5996TIP3   OH242182   0.487   6.043  10.094 -0.3916  0.1830 -0.5230
 5996TIP3    H142183   0.482   6.072  10.185  1.1540  0.5850 -0.5321
 5996TIP3    H242184   0.456   5.953  10.095 -0.0796  0.0775  0.4546
 5997TIP3   OH242185   0.977   4.638  10.029  0.4399 -0.4416 -0.2765
 5997TIP3    H142186   0.954   4.731  10.028  2.6302  0.1393 -0.3890
 5997TIP3    H242187   0.993   4.617   9.937  0.1205 -0.9121 -0.2311
 5998TIP3   OH242188   5.692   1.077   9.254  0.1379 -0.2737 -0.1092
 5998TIP3    H142189   5.735   1.162   9.257  0.4331 -0.4430  1.6314
 5998TIP3    H242190   5.603   1.097   9.223  0.6204  0.4619 -1.0591
 5999TIP3   OH242191   2.455   5.388  10.922  0.3408 -0.1640 -1.0373
 5999TIP3    H142192   2.444   5.296  10.946 -2.5156  0.5046  0.6362
 5999TIP3    H242193   2.535   5.415  10.968  0.7959 -1.6084 -0.9324
 6000TIP3   OH242194   5.042   0.893  10.941 -0.0933  0.3788 -0.1649
 6000TIP3    H142195   5.029   0.825  10.876 -1.3331  1.0704 -0.6794
 6000TIP3    H242196   5.137   0.895  10.956  0.1094 -0.4250 -1.2519
 6001TIP3   OH242197   1.140   1.286  10.602  0.3729  0.2198  0.0372
 6001TIP3    H142198   1.089   1.249  10.530 -0.1070  1.6805 -0.4194
 6001TIP3    H242199   1.201   1.346  10.560 -1.7614  3.2397  0.9218
 6002TIP3   OH242200   4.390   4.021   9.820 -0.0811 -0.0030  0.5159
 6002TIP3    H142201   4.435   3.995   9.740 -0.2482  0.6370  0.2105
 6002TIP3    H242202   4.340   3.943   9.845 -0.7288  0.0666 -0.4931
 6003TIP3   OH242203   2.083   5.389  10.426  0.3292  0.3499  0.2126
 6003TIP3    H142204   2.177   5.376  10.435  0.2567 -0.8891 -0.6385
 6003TIP3    H242205   2.046   5.349  10.505  0.3471 -1.8375 -0.8232
 6004TIP3   OH242206   4.908   2.361  10.418 -0.6206  0.1279  0.0892
 6004TIP3    H142207   4.993   2.396  10.445 -0.5602  0.5735 -0.6497
 6004TIP3    H242208   4.864   2.434  10.376 -1.3967 -0.0876  0.5079
 6005TIP3   OH242209   2.314   5.977   9.311  0.0385 -0.5590  0.2912
 6005TIP3    H142210   2.335   5.958   9.403  1.0112 -1.0729 -0.0261
 6005TIP3    H242211   2.378   5.927   9.261  0.0587  0.3754 -0.6514
 6006TIP3   OH242212   1.846   5.968  13.701 -0.9085  0.0873 -0.3179
 6006TIP3    H142213   1.922   6.025  13.715 -1.0158 -0.1998  1.6581
 6006TIP3    H242214   1.869   5.916  13.624  0.8471  0.0917  0.1633
 6007TIP3   OH242215   5.988   1.482   9.682 -0.5514  0.4647 -0.6949
 6007TIP3    H142216   5.983   1.479   9.778  0.1750  1.1610 -0.6228
 6007TIP3    H242217   6.082   1.486   9.663 -0.7235  1.5380 -1.3878
 6008TIP3   OH242218   4.714   0.353  10.477 -1.0033 -0.0299  0.5936
 6008TIP3    H142219   4.719   0.330  10.570  1.4999 -0.7351  0.3648
 6008TIP3    H242220   4.768   0.433  10.470  0.5332 -1.1055 -0.4936
 6009TIP3   OH242221   5.037   0.451  12.324  0.3319 -0.6166  0.2778
 6009TIP3    H142222   5.011   0.543  12.325 -0.3037 -0.7974  0.4657
 6009TIP3    H242223   4.979   0.410  12.260 -0.5838 -1.2216  1.4494
 6010TIP3   OH242224   4.220   3.141  11.405  0.2102 -0.3234  0.2615
 6010TIP3    H142225   4.125   3.152  11.406 -0.1811 -3.0457  0.9202
 6010TIP3    H242226   4.245   3.129  11.496  0.9091 -1.4096 -0.0492
 6011TIP3   OH242227   5.826   4.948  10.408 -0.2430 -0.1525 -0.4162
 6011TIP3    H142228   5.816   5.007  10.483  2.3872 -1.6956  1.3169
 6011TIP3    H242229   5.920   4.948  10.391 -0.3366 -2.7607 -1.2505
 6012TIP3   OH242230   0.311   1.891  10.914  0.2133  0.0164  0.1023
 6012TIP3    H142231   0.238   1.915  10.970 -0.3351 -0.0247 -0.5914
 6012TIP3    H242232   0.377   1.959  10.929 -0.4192  0.6808 -0.1318
 6013TIP3   OH242233   4.987   3.325  11.443  1.1461 -0.2800  0.1147
 6013TIP3    H142234   5.033   3.287  11.518  1.5663  0.5140  0.2655
 6013TIP3    H242235   4.973   3.416  11.467 -4.0397 -1.1585  1.8496
 6014TIP3   OH242236   3.669   3.740  11.148  0.1936 -0.1138  0.3694
 6014TIP3    H142237   3.756   3.769  11.121  0.6714 -0.6582  1.2513
 6014TIP3    H242238   3.664   3.648  11.121 -1.8630  0.9738 -3.7175
 6015TIP3   OH242239   5.242   2.478  11.633 -0.8666 -0.0353  0.4781
 6015TIP3    H142240   5.269   2.405  11.577  0.6983 -0.3419  1.5410
 6015TIP3    H242241   5.206   2.436  11.711 -1.3777  0.3613  0.4582
 6016TIP3   OH242242   4.232   0.957  10.259  0.4499 -0.5244  0.2887
 6016TIP3    H142243   4.302   0.984  10.199  2.3322 -1.8715  1.7741
 6016TIP3    H242244   4.198   1.040  10.294 -0.7531  0.3208 -2.5471
 6017TIP3   OH242245   3.697   1.879   9.095 -0.8630 -0.6500  0.4822
 6017TIP3    H142246   3.702   1.788   9.126  1.4026 -0.9500 -0.6118
 6017TIP3    H242247   3.700   1.931   9.175  0.3292 -1.5100  1.0286
 6018TIP3   OH242248   2.984   2.729  11.304 -0.4795  0.0682  0.1713
 6018TIP3    H142249   2.889   2.743  11.306 -0.4025  0.7188  2.7861
 6018TIP3    H242250   3.020   2.814  11.279 -0.5126  0.7695  2.3644
 6019TIP3   OH242251   0.186   1.251  10.648 -0.0602 -0.1001  0.1390
 6019TIP3    H142252   0.096   1.219  10.633  0.3433 -0.1705 -2.7630
 6019TIP3    H242253   0.228   1.181  10.698 -1.5053 -0.1672  1.3540
 6020TIP3   OH242254   2.962   5.842  10.812  0.4363 -0.1014  0.1160
 6020TIP3    H142255   2.997   5.931  10.822 -0.5977  0.3982 -0.5543
 6020TIP3    H242256   3.009   5.791  10.877  1.3744  0.8427  0.2085
 6021TIP3   OH242257   4.304   0.695  11.123  0.5747 -0.2999 -0.1518
 6021TIP3    H142258   4.345   0.617  11.087  0.9090 -0.6575  0.9375
 6021TIP3    H242259   4.297   0.756  11.050  1.1260 -1.0225 -0.8138
 6022TIP3   OH242260   1.316   3.963  12.036 -0.1785 -0.2293  0.1855
 6022TIP3    H142261   1.286   3.915  12.113  1.0489 -2.4252 -0.6292
 6022TIP3    H242262   1.256   3.937  11.966 -0.5297  0.7765  0.0958
 6023TIP3   OH242263   2.341   1.550  10.047 -0.2479 -0.2128 -0.1519
 6023TIP3    H142264   2.435   1.572  10.051 -0.5407  1.0142  0.9374
 6023TIP3    H242265   2.314   1.575   9.959 -0.0066  1.6396  0.2419
 6024TIP3   OH242266   4.249   0.568  12.248  0.0047  0.1576 -0.4146
 6024TIP3    H142267   4.272   0.518  12.327  1.7487  1.2188 -0.1827
 6024TIP3    H242268   4.333   0.603  12.217 -0.4786 -0.9984 -3.3149
 6025TIP3   OH242269   6.530   6.014  12.786 -0.6164 -0.1412 -0.5813
 6025TIP3    H142270   6.596   6.083  12.789  0.4142 -0.9554 -2.4464
 6025TIP3    H242271   6.491   6.013  12.874  0.9606  1.2227  0.1810
 6026TIP3   OH242272   1.238   2.606  11.324 -0.1415 -0.0126  0.1831
 6026TIP3    H142273   1.307   2.557  11.277 -0.4712 -0.4903  0.1847
 6026TIP3    H242274   1.260   2.698  11.310 -0.9539 -0.0732 -2.0810
 6027TIP3   OH242275   3.186   1.571  12.636 -0.1695  0.6165  0.1270
 6027TIP3    H142276   3.168   1.504  12.702 -0.6774 -0.2184 -0.8323
 6027TIP3    H242277   3.282   1.581  12.637 -0.2206  1.1783  1.5035
 6028TIP3   OH242278   0.780   3.611  11.369 -0.0379 -0.2332  0.5643
 6028TIP3    H142279   0.836   3.673  11.416  3.4757 -0.1109 -3.1436
 6028TIP3    H242280   0.725   3.666  11.313 -0.7068 -0.4374  1.0114
 6029TIP3   OH242281   0.003   2.509  13.194  0.1809  0.0721 -0.1190
 6029TIP3    H142282   0.091   2.484  13.168  1.1576  3.4319 -0.4792
 6029TIP3    H242283  -0.046   2.518  13.112  0.7321  2.0447 -0.2963
 6030TIP3   OH242284   3.849   0.982  12.606 -0.1497  0.5336 -0.1372
 6030TIP3    H142285   3.938   0.950  12.618 -0.8531 -1.6361 -0.2370
 6030TIP3    H242286   3.794   0.916  12.648 -1.7935  0.7322 -1.8249
 6031TIP3   OH242287   3.484   5.950  11.227 -0.1315  0.2621  0.3092
 6031TIP3    H142288   3.468   6.003  11.305  1.5391  2.0582 -0.4887
 6031TIP3    H242289   3.579   5.946  11.218 -0.2285 -1.6472 -0.5346
 6032TIP3   OH242290   6.053   1.541  11.037 -0.3793  0.1630 -0.4148
 6032TIP3    H142291   6.143   1.571  11.025 -0.2183 -0.3808 -0.6016
 6032TIP3    H242292   6.047   1.460  10.985 -1.4180  0.9892 -1.6358
 6033TIP3   OH242293   3.000   5.787  12.076 -0.2108  0.0610 -0.9812
 6033TIP3    H142294   2.913   5.750  12.061 -1.0897  1.7107 -0.2169
 6033TIP3    H242295   3.038   5.731  12.144 -1.8985  1.0330  0.8726
 6034TIP3   OH242296   0.239   1.604   9.082 -0.3083 -0.3010  0.1981
 6034TIP3    H142297   0.322   1.564   9.058 -0.7374  0.2419 -2.5756
 6034TIP3    H242298   0.190   1.534   9.125  0.5806 -1.4366 -0.5910
 6035TIP3   OH242299   2.747   5.886  12.882 -0.1190  0.3750  0.5524
 6035TIP3    H142300   2.744   5.867  12.976  0.7664 -2.3861  0.0933
 6035TIP3    H242301   2.793   5.812  12.844  2.6474  3.0145 -1.7081
 6036TIP3   OH242302   2.874   1.469  12.832  0.5400 -0.4538 -0.1746
 6036TIP3    H142303   2.959   1.427  12.819 -0.2361 -1.5557 -2.1264
 6036TIP3    H242304   2.886   1.557  12.794  0.4149 -1.1412 -1.9110
 6037TIP3   OH242305   5.900   3.980  11.853 -0.1244 -0.1386 -0.5285
 6037TIP3    H142306   5.943   3.970  11.938  0.0618 -0.9223 -0.7123
 6037TIP3    H242307   5.890   4.075  11.843  0.1278 -0.0237  0.2280
 6038TIP3   OH242308   6.313   1.147  11.780  0.2240 -0.4295 -0.0695
 6038TIP3    H142309   6.273   1.135  11.866 -0.9218  0.2439 -0.4923
 6038TIP3    H242310   6.402   1.177  11.799 -0.0426 -0.2120  0.8840
 6039TIP3   OH242311   6.082   2.787  10.465 -0.4141  0.5476  0.3320
 6039TIP3    H142312   6.081   2.693  10.482 -0.5335  0.5313  0.2395
 6039TIP3    H242313   6.056   2.794  10.373  1.8315  0.5148 -0.3756
 6040TIP3   OH242314   6.366   0.553  11.556  0.4087  0.3399 -0.1250
 6040TIP3    H142315   6.274   0.526  11.564  0.9993 -1.9630 -0.3769
 6040TIP3    H242316   6.379   0.562  11.462  0.1935  1.7321 -0.0402
 6041TIP3   OH242317   2.470   6.292  11.492  0.0311 -0.1645  0.2818
 6041TIP3    H142318   2.480   6.269  11.399  0.6847 -2.2880  0.8182
 6041TIP3    H242319   2.381   6.328  11.499 -0.2048 -0.4396 -1.0731
 6042TIP3   OH242320   4.415   2.584   9.384  0.3377  0.2129 -0.5242
 6042TIP3    H142321   4.426   2.489   9.378 -0.0492  0.2135 -1.4130
 6042TIP3    H242322   4.350   2.596   9.453  0.6218 -0.1545 -0.1907
 6043TIP3   OH242323   6.067   5.994   9.814  0.3935  0.4169 -0.2983
 6043TIP3    H142324   5.982   5.953   9.828  1.5274 -2.2516 -0.5620
 6043TIP3    H242325   6.057   6.043   9.733 -0.4562 -1.2792 -1.2788
 6044TIP3   OH242326   6.354   4.940  12.312 -0.0713 -0.4438  0.1172
 6044TIP3    H142327   6.307   4.881  12.253 -1.4783 -1.4413  2.1129
 6044TIP3    H242328   6.441   4.901  12.322 -0.0429 -0.6231 -0.7412
 6045TIP3   OH242329   4.472   1.787  11.635  0.0953  0.1217  1.0612
 6045TIP3    H142330   4.410   1.860  11.640  0.4042  0.4711  0.0835
 6045TIP3    H242331   4.476   1.752  11.724  0.1400  1.4630  1.6022
 6046TIP3   OH242332   0.097   6.373  12.405 -0.0247 -0.7294  0.2934
 6046TIP3    H142333   0.187   6.399  12.382 -0.9468  1.6388 -0.9837
 6046TIP3    H242334   0.089   6.395  12.498  0.0366  1.4235 -0.1504
 6047TIP3   OH242335   0.135   5.575  11.116  0.1626  0.1170  0.3774
 6047TIP3    H142336   0.202   5.639  11.091 -0.4150  1.7549  2.7238
 6047TIP3    H242337   0.185   5.500  11.149  0.8280 -0.3845 -1.5869
 6048TIP3   OH242338   3.398   3.993  11.163  0.4418 -0.1905 -0.6396
 6048TIP3    H142339   3.358   3.916  11.204  0.5735 -0.9241 -1.8331
 6048TIP3    H242340   3.374   3.986  11.070  0.9593  0.8892 -0.8733
 6049TIP3   OH242341   5.177   1.452  12.288 -0.0953  0.1615  0.5770
 6049TIP3    H142342   5.204   1.539  12.318 -0.6849  0.2171  0.9603
 6049TIP3    H242343   5.206   1.448  12.197 -1.5840  1.4278 -0.0003
 6050TIP3   OH242344   4.177   5.392  11.667  0.0821 -0.4722 -0.3863
 6050TIP3    H142345   4.257   5.352  11.634  1.1157  0.4913  0.8284
 6050TIP3    H242346   4.184   5.484  11.642  0.3243  0.0319  1.3960
 6051TIP3   OH242347   2.741   0.909   9.337  0.3238 -0.2707  0.0148
 6051TIP3    H142348   2.678   0.937   9.404  1.3031 -0.1475  0.9195
 6051TIP3    H242349   2.764   0.819   9.362  0.3899 -0.3638 -0.3839
 6052TIP3   OH242350   6.107   6.549   9.860 -0.2334 -0.4289 -0.0408
 6052TIP3    H142351   6.142   6.567   9.773  1.0295 -0.2667  0.4826
 6052TIP3    H242352   6.172   6.493   9.902 -0.5727 -0.1070  0.9693
 6053TIP3   OH242353   5.852   5.412  10.445  0.1946 -0.2127  0.4674
 6053TIP3    H142354   5.886   5.499  10.422 -0.5493  0.0120  0.2130
 6053TIP3    H242355   5.930   5.356  10.445  0.9936  0.8121  2.5467
 6054TIP3   OH242356   2.288   5.170  10.845  0.0417  0.3632  0.5883
 6054TIP3    H142357   2.221   5.108  10.816 -0.8120  1.2923  0.5558
 6054TIP3    H242358   2.359   5.160  10.781 -0.2574 -0.2644  0.3456
 6055TIP3   OH242359   2.970   4.760   9.937 -0.3195  0.1463  0.1973
 6055TIP3    H142360   3.062   4.757   9.963 -0.5840 -2.0582  1.1387
 6055TIP3    H242361   2.942   4.849   9.957  1.0848  0.2700  1.8854
 6056TIP3   OH242362   6.147   6.534   9.337  0.1284 -0.2854  0.1540
 6056TIP3    H142363   6.062   6.492   9.339 -0.4691  0.8257 -0.7014
 6056TIP3    H242364   6.194   6.492   9.265 -1.4180  2.1334 -2.4608
 6057TIP3   OH242365   5.331   5.369   9.520 -0.3475  0.4526  0.1677
 6057TIP3    H142366   5.332   5.461   9.494 -1.5662  0.3207 -0.4094
 6057TIP3    H242367   5.362   5.370   9.610 -1.6545  1.6147  0.6541
 6058TIP3   OH242368   2.644   1.604   9.062  0.1642 -0.1300  0.0984
 6058TIP3    H142369   2.708   1.655   9.110 -0.8978  0.4871  0.9020
 6058TIP3    H242370   2.693   1.566   8.989  1.1963  1.2538  0.0295
 6059TIP3   OH242371   2.702   6.709   9.752 -0.1292  0.2074  0.5153
 6059TIP3    H142372   2.644   6.670   9.818 -1.6903  1.4659 -0.0220
 6059TIP3    H242373   2.642   6.739   9.683  1.2977  0.5227 -0.6252
 6060TIP3   OH242374   6.676   3.926  11.831  0.1536 -0.2083  0.3762
 6060TIP3    H142375   6.663   3.835  11.858  1.1456 -0.3651  0.3800
 6060TIP3    H242376   6.604   3.944  11.772 -0.5858 -0.6999  1.0980
 6061TIP3   OH242377   4.380   4.511   9.876  0.0835 -0.5603  0.2773
 6061TIP3    H142378   4.415   4.536   9.791 -1.1811 -1.5581 -0.5813
 6061TIP3    H242379   4.428   4.432   9.900 -0.6434 -1.1856 -0.2828
 6062TIP3   OH242380   4.643   5.530   9.604 -0.2363 -0.0983 -0.2905
 6062TIP3    H142381   4.608   5.525   9.692 -2.2187 -1.2246 -1.0739
 6062TIP3    H242382   4.657   5.624   9.588 -0.1666  0.1377  1.0773
 6063TIP3   OH242383   3.360   3.262  10.997  0.3079  0.1696  0.0984
 6063TIP3    H142384   3.413   3.187  11.024 -0.8102 -0.3310  0.9870
 6063TIP3    H242385   3.400   3.337  11.041  1.8977  0.2575 -1.3952
 6064TIP3   OH242386   3.908   5.371  12.033 -0.0624 -0.0481  0.1847
 6064TIP3    H142387   3.908   5.276  12.045  0.1508 -0.1435 -0.4994
 6064TIP3    H242388   3.997   5.391  12.004  0.4966  0.6282  2.1818
 6065TIP3   OH242389   0.875   1.225  10.906  0.6362 -0.0338 -0.1057
 6065TIP3    H142390   0.843   1.181  10.984 -0.7742  1.6090  0.3247
 6065TIP3    H242391   0.827   1.184  10.834  0.8187 -0.5313  0.0527
 6066TIP3   OH242392   5.014   6.177  10.891 -0.7580  0.4843  0.5422
 6066TIP3    H142393   5.046   6.173  10.981 -0.6255  0.3180  0.4868
 6066TIP3    H242394   5.091   6.201  10.839 -0.3060 -1.5578  0.1871
 6067TIP3   OH242395   5.330   2.839  11.908  0.7855  0.4162  0.2300
 6067TIP3    H142396   5.403   2.889  11.871  1.1050 -0.0164  0.2751
 6067TIP3    H242397   5.328   2.864  12.000  0.9038  0.3918  0.2383
 6068TIP3   OH242398   4.962   1.648   9.986  0.2227  0.1839  0.1018
 6068TIP3    H142399   4.920   1.652   9.900  1.5537  0.5834 -0.5581
 6068TIP3    H242400   4.894   1.675  10.047 -1.4251 -2.2355 -0.5431
 6069TIP3   OH242401   0.826   5.132   9.935 -0.1369 -0.0251 -0.0545
 6069TIP3    H142402   0.860   5.218   9.912 -0.6853  1.1170  2.9401
 6069TIP3    H242403   0.767   5.109   9.863  0.5738  1.7394 -1.2607
 6070TIP3   OH242404   4.489   5.990  12.536 -0.2069  0.0057  0.2283
 6070TIP3    H142405   4.544   5.987  12.614 -1.0727  0.0497  0.8590
 6070TIP3    H242406   4.522   5.918  12.481  1.1508  0.6908  0.1003
 6071TIP3   OH242407   3.626   2.990   9.332  0.2551  0.4157  0.2281
 6071TIP3    H142408   3.686   2.934   9.283  1.2903  1.4282  0.3042
 6071TIP3    H242409   3.654   2.982   9.423  1.3684  2.1435  0.0818
 6072TIP3   OH242410   6.193   5.456  10.116  0.2723  0.2781 -1.4807
 6072TIP3    H142411   6.275   5.485  10.157 -0.5813 -0.4936  0.9668
 6072TIP3    H242412   6.207   5.364  10.096 -0.1989 -0.0638 -0.3432
 6073TIP3   OH242413   5.887   4.369  10.702  0.1985 -0.3166  0.1539
 6073TIP3    H142414   5.807   4.419  10.688  1.5648  1.6226 -1.3337
 6073TIP3    H242415   5.857   4.279  10.717 -2.2840  0.6084  1.2383
 6074TIP3   OH242416   2.350   0.215   9.944 -0.5258 -0.4917  0.4160
 6074TIP3    H142417   2.282   0.280   9.927  1.5544  1.1751 -2.5099
 6074TIP3    H242418   2.419   0.264   9.989  0.1226 -1.2991  0.3251
 6075TIP3   OH242419   0.383   1.794  11.961 -0.2798 -0.0626  0.1384
 6075TIP3    H142420   0.411   1.880  11.932 -2.0153  0.7143  0.6812
 6075TIP3    H242421   0.424   1.733  11.899  0.6657  1.1516 -0.4625
 6076TIP3   OH242422   2.013   0.674   9.747 -0.6078 -0.6739  0.3521
 6076TIP3    H142423   1.951   0.718   9.688  1.1684  2.2636  0.4852
 6076TIP3    H242424   2.099   0.709   9.722  0.6259 -2.1442  2.2828
 6077TIP3   OH242425   5.430   5.295   9.269 -0.3182 -0.0192 -0.2560
 6077TIP3    H142426   5.382   5.337   9.340 -2.2403 -0.0056 -1.5196
 6077TIP3    H242427   5.383   5.213   9.252  0.1491 -0.0560 -1.4878
 6078TIP3   OH242428   0.537   0.096   9.839 -0.1130 -0.2353 -0.5888
 6078TIP3    H142429   0.604   0.154   9.875  0.6670 -1.5432  0.1786
 6078TIP3    H242430   0.462   0.152   9.822  1.5905  1.5281 -2.6888
 6079TIP3   OH242431   1.863   3.602  10.435 -0.7086 -0.2270 -0.2594
 6079TIP3    H142432   1.926   3.567  10.498 -1.3079 -0.0849  0.4335
 6079TIP3    H242433   1.780   3.561  10.458 -1.3205  1.2159  0.2465
 6080TIP3   OH242434   0.888   3.667  11.863 -0.3584  0.1489 -0.5801
 6080TIP3    H142435   0.823   3.597  11.863  0.8456 -1.0057 -1.3043
 6080TIP3    H242436   0.932   3.659  11.948 -0.2020  0.0106 -0.6743
 6081TIP3   OH242437   0.007   2.437  12.492  0.0070 -0.8984  0.0030
 6081TIP3    H142438  -0.036   2.483  12.564 -0.0273 -0.7559 -0.1069
 6081TIP3    H242439  -0.060   2.433  12.423 -0.3253 -1.9956  0.3679
 6082TIP3   OH242440   4.263   1.307  10.076  0.5168 -0.1867  0.5464
 6082TIP3    H142441   4.290   1.225  10.034 -1.0378 -0.8264  0.7416
 6082TIP3    H242442   4.338   1.331  10.131  1.7958 -0.3772 -1.0526
 6083TIP3   OH242443   5.258   6.702   9.075 -0.7905  0.0138  0.2336
 6083TIP3    H142444   5.350   6.693   9.098 -0.1593  0.1779 -1.9670
 6083TIP3    H242445   5.237   6.621   9.028 -1.2409  0.7344 -0.8419
 6084TIP3   OH242446   2.511   3.854   9.367 -0.0518  0.1777  0.2543
 6084TIP3    H142447   2.567   3.838   9.291  1.4261 -1.2179  1.5736
 6084TIP3    H242448   2.567   3.902   9.429 -0.8494  0.2361  0.9473
 6085TIP3   OH242449   3.045   6.346  10.266 -0.1424  0.6024 -0.3938
 6085TIP3    H142450   2.984   6.394  10.210  1.8165  1.2818 -2.0566
 6085TIP3    H242451   3.098   6.414  10.307  1.1745 -0.0105 -1.0030
 6086TIP3   OH242452   0.869   1.087  11.290  0.5190 -0.1579 -0.7629
 6086TIP3    H142453   0.926   1.038  11.230  0.6309  0.2762 -1.0145
 6086TIP3    H242454   0.793   1.110  11.236 -0.6585 -2.0786 -0.0328
 6087TIP3   OH242455   1.475   0.165  11.423  0.8431  0.2266  0.4775
 6087TIP3    H142456   1.558   0.200  11.456  1.5727 -2.1989  1.3853
 6087TIP3    H242457   1.497   0.078  11.389 -0.6283  0.9787 -2.8768
 6088TIP3   OH242458   6.492   6.101  10.180  0.3111 -0.0132  0.0208
 6088TIP3    H142459   6.466   6.051  10.258 -0.2475  2.3641  1.4642
 6088TIP3    H242460   6.585   6.119  10.193  0.5357 -0.7133 -0.5482
 6089TIP3   OH242461   3.123   4.059  10.785 -0.1923  0.0913  0.1857
 6089TIP3    H142462   3.147   4.064  10.692  0.1467 -0.0682  0.2616
 6089TIP3    H242463   3.038   4.016  10.786  0.4996 -1.3121  0.0451
 6090TIP3   OH242464   0.518   3.515  10.053  0.1642 -0.1879 -0.0147
 6090TIP3    H142465   0.466   3.469   9.988 -0.2069 -2.9000  2.0270
 6090TIP3    H242466   0.608   3.486  10.038  0.1560 -0.3920  0.3172
 6091TIP3   OH242467   5.034   5.028  11.059  0.0046  0.2610 -0.1806
 6091TIP3    H142468   4.991   5.052  10.977  2.1918 -0.2783 -1.5675
 6091TIP3    H242469   5.103   5.094  11.069 -0.4560  0.5327  1.4489
 6092TIP3   OH242470   2.440   4.121   9.679  0.2521 -0.3015 -0.0279
 6092TIP3    H142471   2.345   4.125   9.693  0.2442  1.2285 -0.3927
 6092TIP3    H242472   2.473   4.203   9.715  1.2999 -0.2828 -0.9825
 6093TIP3   OH242473   3.688   6.596  10.537  0.0256 -0.2961  0.3686
 6093TIP3    H142474   3.608   6.543  10.535 -0.4935  0.4791  0.2957
 6093TIP3    H242475   3.718   6.591  10.628 -0.8508  0.5057  0.7072
 6094TIP3   OH242476   4.397   2.097   9.608  0.4894 -0.4727 -0.1315
 6094TIP3    H142477   4.335   2.027   9.589 -0.9078  0.7692 -0.3511
 6094TIP3    H242478   4.469   2.083   9.546 -0.3923 -0.9513 -1.0746
 6095TIP3   OH242479   5.065   6.182  10.351  0.0563  0.0115  0.3274
 6095TIP3    H142480   5.009   6.229  10.290  1.5921  1.8127  0.2076
 6095TIP3    H242481   5.151   6.180  10.308  0.1904 -2.5095  0.5645
 6096TIP3   OH242482   6.468   4.838  11.544 -0.5250  0.4816 -0.1415
 6096TIP3    H142483   6.477   4.890  11.464 -0.2632 -0.6719 -0.8850
 6096TIP3    H242484   6.547   4.856  11.594  0.0693 -0.0040 -0.8897
 6097TIP3   OH242485   5.715   1.623   9.597  0.1945 -0.0876  0.5300
 6097TIP3    H142486   5.768   1.695   9.560  0.3599  0.3742  1.6206
 6097TIP3    H242487   5.780   1.561   9.630  0.0525 -0.8177 -0.4996
 6098TIP3   OH242488   2.987   3.780  11.308  0.0149 -0.3069  0.6842
 6098TIP3    H142489   2.984   3.875  11.323  1.6972 -0.2816  1.0683
 6098TIP3    H242490   3.047   3.770  11.235  0.5985 -1.1341  1.2628
 6099TIP3   OH242491   3.702   4.957  12.562 -0.2823 -0.4171 -0.5998
 6099TIP3    H142492   3.759   5.028  12.593  0.2800 -0.2888 -1.8681
 6099TIP3    H242493   3.614   4.982  12.592  0.0927  0.2020  0.0063
 6100TIP3   OH242494   0.681   1.540   9.279 -0.3670  0.6721 -0.4812
 6100TIP3    H142495   0.731   1.459   9.291 -1.2887  0.1537 -0.0168
 6100TIP3    H242496   0.742   1.610   9.301  0.4557  0.1072 -0.9152
 6101TIP3   OH242497   2.988   0.433  12.048  0.5568  0.6280  0.6021
 6101TIP3    H142498   3.077   0.444  12.081  1.8533 -0.6988 -2.1379
 6101TIP3    H242499   2.975   0.505  11.987  0.6335 -0.3851 -0.6482
 6102TIP3   OH242500   6.199   0.103  11.843  0.3563  0.3551 -0.4861
 6102TIP3    H142501   6.179   0.111  11.750 -1.1318  1.2955 -0.1123
 6102TIP3    H242502   6.144   0.031  11.874  1.8402 -0.8726 -0.5684
 6103TIP3   OH242503   0.652   3.482   9.371 -0.1243 -0.0338 -0.1579
 6103TIP3    H142504   0.746   3.498   9.377 -0.0081 -0.9646  0.8603
 6103TIP3    H242505   0.645   3.390   9.346 -0.7752  0.2922 -1.2401
 6104TIP3   OH242506   4.006   1.255  13.015  0.0588 -0.0933 -0.4334
 6104TIP3    H142507   3.983   1.348  13.017 -1.9000 -0.3842 -3.2763
 6104TIP3    H242508   4.064   1.247  12.939 -1.0897 -1.3745 -1.2252
 6105TIP3   OH242509   4.089   4.477  10.573  0.5950  0.1392 -0.2494
 6105TIP3    H142510   4.009   4.524  10.598  1.2238  1.0027  0.1948
 6105TIP3    H242511   4.081   4.391  10.615 -0.5789 -0.1771 -1.0866
 6106TIP3   OH242512   0.725   3.970  11.682 -0.2415  0.0412 -0.2002
 6106TIP3    H142513   0.677   4.013  11.611 -0.5019  0.1396  0.0341
 6106TIP3    H242514   0.735   4.037  11.749 -1.2442 -0.4254  0.4539
 6107TIP3   OH242515   4.246   1.867   9.558  0.1643  0.0912 -0.0675
 6107TIP3    H142516   4.217   1.909   9.477 -0.8445  1.1639  0.8040
 6107TIP3    H242517   4.257   1.775   9.536  0.4036  0.4571 -1.5341
 6108TIP3   OH242518   3.777   0.195  11.588  0.3110  0.1868 -0.3480
 6108TIP3    H142519   3.713   0.131  11.620  1.7546 -0.4177  1.4777
 6108TIP3    H242520   3.737   0.280  11.607 -1.1146 -0.1305 -1.7318
 6109TIP3   OH242521   3.413   2.335   8.908 -0.0572 -0.0475 -0.0881
 6109TIP3    H142522   3.444   2.258   8.956  1.8572 -0.1313 -1.3324
 6109TIP3    H242523   3.328   2.310   8.873 -0.9988 -0.3782  2.2270
 6110TIP3   OH242524   3.132   3.798   9.427 -0.3971 -0.3813  0.7204
 6110TIP3    H142525   3.170   3.714   9.454 -0.7100 -0.0974  2.0754
 6110TIP3    H242526   3.207   3.857   9.418 -0.4136 -0.0298  2.6434
 6111TIP3   OH242527   5.771   4.245  10.044  0.3734 -0.3405  0.0045
 6111TIP3    H142528   5.699   4.285  10.092  0.0764  2.2806 -2.3344
 6111TIP3    H242529   5.850   4.285  10.081  0.5392 -1.6913  1.2012
 6112TIP3   OH242530   2.721   2.791   9.762  0.1410  0.1893 -0.5223
 6112TIP3    H142531   2.745   2.720   9.702 -1.2828  0.2020 -1.1567
 6112TIP3    H242532   2.627   2.777   9.778  0.8367 -1.2265  3.5949
 6113TIP3   OH242533   0.836   6.323   9.342  0.1446  0.0116  0.4742
 6113TIP3    H142534   0.889   6.291   9.269 -2.4219  2.5156 -2.8160
 6113TIP3    H242535   0.883   6.401   9.373  0.0201  0.3829 -0.2503
 6114TIP3   OH242536   5.238   6.408  11.047  0.3002  0.1295 -0.2587
 6114TIP3    H142537   5.238   6.489  10.995 -1.6434  0.1832 -0.2516
 6114TIP3    H242538   5.147   6.379  11.045  1.1203 -2.7128 -1.2144
 6115TIP3   OH242539   5.357   5.319  11.671  0.7415 -0.4833 -0.1277
 6115TIP3    H142540   5.376   5.235  11.628  1.7315  1.4160 -3.8250
 6115TIP3    H242541   5.360   5.299  11.765 -1.2506 -4.9875 -0.7537
 6116TIP3   OH242542   2.777   0.420  10.722  0.6308  0.0028  0.1737
 6116TIP3    H142543   2.748   0.377  10.802 -0.1753  0.3996  0.1075
 6116TIP3    H242544   2.767   0.354  10.654  2.5546 -0.7681  0.5770
 6117TIP3   OH242545   4.478   3.641  11.137 -0.0632  0.2358 -0.1472
 6117TIP3    H142546   4.384   3.654  11.152 -0.3386 -1.9684  0.2771
 6117TIP3    H242547   4.487   3.547  11.120  2.0773  0.4154 -0.2340
 6118TIP3   OH242548   1.528   4.156   9.536  0.0575  0.1276 -0.0544
 6118TIP3    H142549   1.595   4.106   9.490 -1.7149 -0.9394 -1.6443
 6118TIP3    H242550   1.460   4.092   9.557 -0.4426  1.1378  1.6000
 6119TIP3   OH242551   0.183   6.646   9.595 -0.3847  0.2498 -0.2157
 6119TIP3    H142552   0.168   6.741   9.591 -0.9921  0.1680  0.0365
 6119TIP3    H242553   0.096   6.607   9.583 -0.9337 -0.1796  3.8096
 6120TIP3   OH242554   4.914   6.382  10.525 -0.3574 -0.2234  0.1588
 6120TIP3    H142555   4.986   6.318  10.522  0.0098  0.2200 -0.7515
 6120TIP3    H242556   4.956   6.463  10.555 -0.2960  0.2543 -1.1658
 6121TIP3   OH242557   5.780   5.493  12.233 -0.5878 -0.0554 -0.5210
 6121TIP3    H142558   5.770   5.398  12.235 -1.0035 -0.0074 -0.2172
 6121TIP3    H242559   5.868   5.507  12.196 -0.0552 -0.5870  0.5046
 6122TIP3   OH242560   2.166   3.932   9.433 -0.2835  0.3468 -0.6636
 6122TIP3    H142561   2.189   3.979   9.353  0.2426  0.4229 -0.4753
 6122TIP3    H242562   2.250   3.898   9.465 -0.0903  2.2785  1.1217
 6123TIP3   OH242563   3.017   2.293  12.145 -0.4078  0.0926  0.4661
 6123TIP3    H142564   3.094   2.326  12.192  0.1046  0.2293 -0.4439
 6123TIP3    H242565   3.031   2.198  12.140 -2.3353 -0.5597  3.9115
 6124TIP3   OH242566   5.458   3.837  10.039 -0.4600 -0.1866  0.3525
 6124TIP3    H142567   5.440   3.922  10.078  0.1592  1.3450 -2.4350
 6124TIP3    H242568   5.545   3.813  10.069  0.7849  1.8487 -1.3765
 6125TIP3   OH242569   4.903   0.831  10.269 -0.1793 -0.5905  0.8355
 6125TIP3    H142570   4.874   0.906  10.217 -0.3772 -0.9268  0.4542
 6125TIP3    H242571   4.822   0.785  10.291  0.0632 -1.9955 -0.9373
 6126TIP3   OH242572   5.392   4.668   9.968  0.0664  0.3851 -0.0414
 6126TIP3    H142573   5.318   4.710  10.010 -0.5859 -0.0402 -0.7449
 6126TIP3    H242574   5.370   4.665   9.875 -0.6373 -2.7727  0.0896
 6127TIP3   OH242575   3.121   2.960  11.314  0.2457 -0.7105  0.0868
 6127TIP3    H142576   3.132   3.039  11.261  0.0736 -0.8323 -0.1305
 6127TIP3    H242577   3.169   2.979  11.395  0.5058 -0.5232 -0.1096
 6128TIP3   OH242578   1.518   6.597  11.423 -0.0190 -1.0978  0.0502
 6128TIP3    H142579   1.582   6.529  11.445  0.7248  0.0111  1.4539
 6128TIP3    H242580   1.437   6.569  11.464  0.5255 -0.6904  1.4383
 6129TIP3   OH242581   3.095   4.695  10.204  0.2540 -0.2527  0.3003
 6129TIP3    H142582   3.009   4.717  10.169  1.0440  1.8865 -0.4938
 6129TIP3    H242583   3.157   4.738  10.144  1.7891  0.2016  2.1135
 6130TIP3   OH242584   3.718   3.673   9.737 -0.2582  0.1129  0.2497
 6130TIP3    H142585   3.666   3.650   9.660  2.8002  2.8809 -2.9628
 6130TIP3    H242586   3.792   3.612   9.735 -0.0805  0.2948  0.9244
 6131TIP3   OH242587   5.987   5.695   9.597 -0.2820  0.5801 -0.0779
 6131TIP3    H142588   5.965   5.686   9.504  1.2213  1.5430 -0.5651
 6131TIP3    H242589   5.993   5.789   9.611  0.8167  0.4188  0.6482
 6132TIP3   OH242590   1.395   3.673  10.701  0.8644 -0.1248 -0.2642
 6132TIP3    H142591   1.361   3.602  10.647  1.0091 -0.7903  0.4925
 6132TIP3    H242592   1.433   3.735  10.639 -0.1925 -0.1957 -1.0057
 6133TIP3   OH242593   5.276   2.380  11.239 -0.1963 -0.5451  0.2670
 6133TIP3    H142594   5.264   2.351  11.329 -1.4954  0.7468  0.5531
 6133TIP3    H242595   5.340   2.319  11.202 -1.3403 -2.5097  1.3655
 6134TIP3   OH242596   1.574   5.779  12.013  0.2143  0.0457 -0.2536
 6134TIP3    H142597   1.578   5.837  12.089  2.7154  0.1669 -0.3842
 6134TIP3    H242598   1.576   5.691  12.049  0.4266  0.0947 -0.1436
 6135TIP3   OH242599   3.848   6.197   9.413 -0.0278  0.0186  0.1873
 6135TIP3    H142600   3.788   6.270   9.403  0.1997  0.2861  0.7401
 6135TIP3    H242601   3.793   6.119   9.406 -0.8319  0.2579  2.7881
 6136TIP3   OH242602   1.107   6.083  12.997  0.0806  0.0246 -0.5702
 6136TIP3    H142603   1.177   6.099  13.060 -0.0585 -0.7603 -0.2102
 6136TIP3    H242604   1.100   6.165  12.948 -0.8483  1.2032  1.4301
 6137TIP3   OH242605   6.468   5.995  11.396 -0.1423  0.0681  0.5381
 6137TIP3    H142606   6.464   5.902  11.373 -2.1378 -0.1177  1.4812
 6137TIP3    H242607   6.493   6.038  11.314  0.6092 -1.2577  0.0330
 6138TIP3   OH242608   2.576   3.027  10.331  0.4427  0.4235  0.2767
 6138TIP3    H142609   2.541   3.116  10.338 -0.3973  0.1290 -0.0823
 6138TIP3    H242610   2.671   3.039  10.329  0.3284  1.4936 -2.1126
 6139TIP3   OH242611   5.822   2.615  11.267 -0.0236  0.0153  0.0771
 6139TIP3    H142612   5.822   2.631  11.173 -0.1244  0.2084  0.1088
 6139TIP3    H242613   5.748   2.666  11.300 -0.1948 -0.3146  0.2140
 6140TIP3   OH242614   4.625   4.805  10.457  0.3416  0.3516  0.4673
 6140TIP3    H142615   4.603   4.824  10.366 -0.5361  0.7853  0.7613
 6140TIP3    H242616   4.601   4.885  10.504  0.3636 -0.0440  1.1483
 6141TIP3   OH242617   6.637   4.372  11.213 -0.6153 -0.9171  0.4613
 6141TIP3    H142618   6.569   4.307  11.192 -2.0176  0.5575  0.2394
 6141TIP3    H242619   6.603   4.454  11.177  1.5018 -0.1943 -0.0223
 6142TIP3   OH242620   5.454   5.594  11.904 -0.4138 -0.2965 -0.0559
 6142TIP3    H142621   5.465   5.613  11.997 -0.9828 -1.5645  0.2984
 6142TIP3    H242622   5.361   5.573  11.895 -0.0980 -1.5483 -0.6302
 6143TIP3   OH242623   5.544   5.636  12.148  0.1980  0.6481  0.0868
 6143TIP3    H142624   5.482   5.665  12.215 -2.8870  0.9287 -2.6254
 6143TIP3    H242625   5.598   5.571  12.192 -1.4998  0.9576  2.8963
 6144TIP3   OH242626   1.696   4.452  12.934  0.2040  0.5343 -0.3498
 6144TIP3    H142627   1.705   4.361  12.905 -2.3730  0.3428 -0.7282
 6144TIP3    H242628   1.778   4.493  12.908 -0.3465 -0.5500 -4.5415
 6145TIP3   OH242629   3.187   3.772  11.688 -0.1285 -0.2792  0.4085
 6145TIP3    H142630   3.252   3.749  11.755 -1.2709 -1.7306  1.0937
 6145TIP3    H242631   3.131   3.694  11.682 -3.2859  1.6848  1.6331
 6146TIP3   OH242632   6.468   3.456  10.574 -0.4215 -0.4175 -0.0572
 6146TIP3    H142633   6.407   3.393  10.613 -0.4225 -0.2414  0.2257
 6146TIP3    H242634   6.542   3.403  10.545 -0.9769 -0.7191 -0.9676
 6147TIP3   OH242635   1.097   1.074  11.120  0.2890 -0.0042  0.2927
 6147TIP3    H142636   1.157   1.127  11.068 -1.1714  0.7132 -0.7022
 6147TIP3    H242637   1.116   0.984  11.094 -1.0996  0.3823 -2.3180
 6148TIP3   OH242638   1.730   0.909  11.130 -0.3416  0.2338  0.0793
 6148TIP3    H142639   1.715   0.824  11.088 -0.8182  0.4090 -0.1095
 6148TIP3    H242640   1.757   0.967  11.058  3.3584 -0.5294  0.6386
 6149TIP3   OH242641   2.790   0.295  11.307 -0.6012 -0.2341  0.1886
 6149TIP3    H142642   2.701   0.287  11.275 -1.0493 -1.2818  1.5928
 6149TIP3    H242643   2.783   0.353  11.383 -0.0746 -0.2618  0.2643
 6150TIP3   OH242644   3.390   4.311  12.484 -0.2270 -0.0429 -0.3268
 6150TIP3    H142645   3.299   4.334  12.465 -0.0651  0.3582 -0.6439
 6150TIP3    H242646   3.439   4.393  12.471 -0.0175  0.1140  1.2853
 6151TIP3   OH242647   1.963   3.482  11.466  0.0520 -0.3543 -0.3449
 6151TIP3    H142648   2.027   3.476  11.537 -0.1405 -0.4532 -0.1776
 6151TIP3    H242649   1.901   3.549  11.495 -0.8987 -1.4545  0.2987
 6152TIP3   OH242650   1.959   5.264  10.646 -0.3698 -0.2830 -0.5745
 6152TIP3    H142651   1.864   5.275  10.642 -0.2046  1.6230 -0.5591
 6152TIP3    H242652   1.984   5.304  10.729  0.5270  0.2140 -1.0603
 6153TIP3   OH242653   2.707   2.438  10.452 -0.3827 -0.2134 -0.0683
 6153TIP3    H142654   2.681   2.475  10.368  0.0912  0.6159  0.1388
 6153TIP3    H242655   2.791   2.479  10.472 -0.5772 -0.2604  0.8979
 6154TIP3   OH242656   2.470   5.878  11.887  0.4336 -0.2404  0.0754
 6154TIP3    H142657   2.379   5.899  11.908  0.3997  0.1517 -0.4526
 6154TIP3    H242658   2.487   5.796  11.934 -0.6109 -1.0567 -0.8996
 6155TIP3   OH242659   1.937   1.570  11.507 -0.2952  0.2299 -0.0906
 6155TIP3    H142660   2.014   1.548  11.559 -1.8512 -1.0465  1.7556
 6155TIP3    H242661   1.966   1.557  11.416  1.5429 -0.5550  0.5581
 6156TIP3   OH242662   2.745   3.778   9.940  0.3458  0.0883  0.0502
 6156TIP3    H142663   2.762   3.865   9.978 -1.0186 -0.2959  1.7050
 6156TIP3    H242664   2.654   3.784   9.909  0.4117 -0.5973 -0.2767
 6157TIP3   OH242665   1.944   6.286  12.124 -0.0383  0.6959 -0.3600
 6157TIP3    H142666   1.880   6.228  12.081  0.1572  0.5058 -0.3965
 6157TIP3    H242667   1.898   6.369  12.134 -0.4868  0.3993  0.1114
 6158TIP3   OH242668   4.159   2.457   9.278 -0.1599  0.5496 -0.2691
 6158TIP3    H142669   4.169   2.445   9.373  1.0373  3.0431  0.0037
 6158TIP3    H242670   4.224   2.397   9.240 -1.9949 -1.9717  0.2925
 6159TIP3   OH242671   3.443   2.896  10.533 -0.2548  0.0308  0.4389
 6159TIP3    H142672   3.497   2.915  10.610 -1.2589  2.1462  0.6905
 6159TIP3    H242673   3.507   2.882  10.463  0.6452  0.1005  1.2143
 6160TIP3   OH242674   4.320   2.320  11.919 -0.1478 -0.3592 -0.5366
 6160TIP3    H142675   4.398   2.271  11.895  0.8648  0.9439 -0.0209
 6160TIP3    H242676   4.260   2.254  11.954  1.8628 -1.0719  1.9262
 6161TIP3   OH242677   2.785   6.175  11.453  0.2282 -0.4186 -0.1749
 6161TIP3    H142678   2.834   6.093  11.454 -0.4215 -0.8197  0.9821
 6161TIP3    H242679   2.738   6.175  11.370  1.1616 -0.6409 -0.7152
 6162TIP3   OH242680   5.275   1.442  12.581  0.8746 -0.0524 -0.2441
 6162TIP3    H142681   5.239   1.412  12.497  0.3985  2.9072 -1.2100
 6162TIP3    H242682   5.370   1.431  12.572  0.6810 -2.3395 -0.0148
 6163TIP3   OH242683   2.505   3.488  11.329 -0.2461  0.7659 -0.0034
 6163TIP3    H142684   2.413   3.469  11.311 -0.4141  1.6310 -0.1066
 6163TIP3    H242685   2.516   3.470  11.422 -0.0554 -1.1066 -0.3586
 6164TIP3   OH242686   1.634   2.312  10.093 -0.5514 -0.0768 -0.3384
 6164TIP3    H142687   1.620   2.227  10.134 -1.9987 -0.9437 -2.4752
 6164TIP3    H242688   1.568   2.369  10.134  0.1953 -0.0371  0.8492
 6165TIP3   OH242689   2.364   5.309  10.048  0.6135 -0.4474  0.1352
 6165TIP3    H142690   2.321   5.390  10.019  0.7202 -0.7987 -1.0685
 6165TIP3    H242691   2.397   5.329  10.135 -1.0112  0.1892  0.6371
 6166TIP3   OH242692   6.553   0.632  11.763  0.3355 -0.2600  0.3125
 6166TIP3    H142693   6.489   0.600  11.699  0.2214  1.0104 -0.2470
 6166TIP3    H242694   6.613   0.685  11.711  1.2084 -0.5462  1.0174
 6167TIP3   OH242695   6.343   4.170  11.262  0.1507  0.9462 -0.1427
 6167TIP3    H142696   6.263   4.220  11.279  1.0571  2.0591  1.0553
 6167TIP3    H242697   6.370   4.198  11.175 -1.8815 -1.0697 -1.5201
 6168TIP3   OH242698   3.778   6.478   9.737  0.5162  0.2582 -0.0624
 6168TIP3    H142699   3.792   6.488   9.831 -1.6470 -0.4903  0.3747
 6168TIP3    H242700   3.728   6.556   9.712 -0.5682 -0.4691 -0.1977
 6169TIP3   OH242701   3.593   3.118  19.615 -0.1304  0.5020  0.2230
 6169TIP3    H142702   3.525   3.102  19.681  0.4875 -0.1282  0.7340
 6169TIP3    H242703   3.545   3.134  19.534 -0.9565 -2.9929 -0.1632
 6170TIP3   OH242704   1.470   2.974  11.578 -0.5499 -0.2131  0.0551
 6170TIP3    H142705   1.505   3.062  11.565 -0.6329  0.0904  1.6688
 6170TIP3    H242706   1.501   2.949  11.665 -1.6789 -1.2114  0.1911
 6171TIP3   OH242707   5.408   2.492  10.968  0.3049  0.0173  0.2543
 6171TIP3    H142708   5.464   2.417  10.990  0.3635 -0.1717 -0.5374
 6171TIP3    H242709   5.458   2.568  10.999  0.2851 -0.2517  0.9822
 6172TIP3   OH242710   4.257   5.960  10.187  0.0194 -0.7597  0.3298
 6172TIP3    H142711   4.211   5.984  10.268 -0.7399 -0.1630 -0.2661
 6172TIP3    H242712   4.335   6.015  10.188  0.1339 -0.9249  0.7729
 6173TIP3   OH242713   0.437   6.157  10.343 -0.5491  0.1436  0.1280
 6173TIP3    H142714   0.388   6.225  10.296  0.6882  0.4658 -0.7536
 6173TIP3    H242715   0.369   6.101  10.382 -1.5977  1.2018 -0.1057
 6174TIP3   OH242716   6.677   5.890   9.131 -0.1576 -0.1897  0.0102
 6174TIP3    H142717   6.663   5.797   9.150  0.3175  0.1565  2.4174
 6174TIP3    H242718   6.761   5.892   9.085  0.5750 -0.8961  1.2394
 6175TIP3   OH242719   6.123   5.229  11.375 -0.3931  0.1497  0.0686
 6175TIP3    H142720   6.060   5.255  11.442 -0.6104  1.1067 -0.4773
 6175TIP3    H242721   6.075   5.241  11.292 -0.2483 -1.3158 -0.2595
 6176TIP3   OH242722   5.676   5.985  11.508  0.1137  0.0818 -0.2718
 6176TIP3    H142723   5.603   5.922  11.508  0.3227 -0.2345  1.7742
 6176TIP3    H242724   5.734   5.955  11.438 -1.4571  0.0598 -1.6324
 6177TIP3   OH242725   4.956   1.126   9.933 -0.2682 -0.1900 -0.3802
 6177TIP3    H142726   4.915   1.093  10.013 -0.9637  0.3307 -0.5124
 6177TIP3    H242727   4.958   1.050   9.875  0.6668 -0.6907  0.2884
 6178TIP3   OH242728   2.830   3.134  11.791  0.3421  0.9167 -0.2733
 6178TIP3    H142729   2.842   3.040  11.783  2.7576  1.0973  0.4769
 6178TIP3    H242730   2.738   3.145  11.817  0.8971 -1.4685  3.3831
 6179TIP3   OH242731   0.925   1.123   9.698  0.0990  0.2372  0.0593
 6179TIP3    H142732   0.900   1.213   9.679 -0.7598 -0.3652 -2.0119
 6179TIP3    H242733   0.872   1.070   9.638 -0.5795 -1.7842  2.2642
 6180TIP3   OH242734   2.310   5.119   9.814  0.2131 -0.2798 -0.1954
 6180TIP3    H142735   2.396   5.090   9.845  0.9292  2.7065  0.9505
 6180TIP3    H242736   2.327   5.158   9.728 -0.1152 -0.2987 -0.2713
 6181TIP3   OH242737   0.570   0.960  10.886  0.1981 -0.8687  0.5554
 6181TIP3    H142738   0.497   1.009  10.923  0.5832  0.2362 -0.0954
 6181TIP3    H242739   0.576   0.989  10.795  0.8709 -1.6235  0.3408
 6182TIP3   OH242740   0.954   5.151  11.244  0.4875  0.4204 -0.3958
 6182TIP3    H142741   0.886   5.105  11.195 -0.6263  0.7734  0.7691
 6182TIP3    H242742   0.979   5.224  11.187 -0.9307  0.9459 -0.3831
 6183TIP3   OH242743   3.254   4.985  10.788  0.8927  0.9568 -0.1264
 6183TIP3    H142744   3.235   5.019  10.876  0.9519  1.2185 -0.2153
 6183TIP3    H242745   3.340   5.019  10.767  1.0661  0.5365 -0.1118
 6184TIP3   OH242746   3.023   0.677  10.011 -0.0292  0.2197 -0.3852
 6184TIP3    H142747   3.058   0.764   9.995 -1.3106  1.2455  1.8730
 6184TIP3    H242748   3.099   0.623  10.031  0.6589  1.1998 -0.3160
 6185TIP3   OH242749   0.294   6.382  10.271 -0.4222  0.2315 -0.1216
 6185TIP3    H142750   0.327   6.472  10.271  1.1723 -0.2913 -1.3682
 6185TIP3    H242751   0.210   6.388  10.226 -2.3969  1.6460  3.3800
 6186TIP3   OH242752   3.516   2.453  10.168 -0.3152  0.1164 -0.3295
 6186TIP3    H142753   3.524   2.533  10.116  0.2730  1.3880  1.6014
 6186TIP3    H242754   3.460   2.478  10.242 -1.6686 -1.8084 -0.6437
 6187TIP3   OH242755   3.051   5.246  10.252 -0.3957 -0.1038 -0.1126
 6187TIP3    H142756   3.027   5.302  10.326  0.9161 -1.6203  1.5510
 6187TIP3    H242757   2.977   5.186  10.243  0.0792 -0.9076  1.0447
 6188TIP3   OH242758   1.491   5.070   9.990  0.5116 -0.1980 -0.2739
 6188TIP3    H142759   1.416   5.097   9.938 -0.9326 -0.2198  1.6549
 6188TIP3    H242760   1.555   5.038   9.927 -1.1759 -0.3389 -1.9794
 6189TIP3   OH242761   1.350   0.810  10.432  0.0898  0.1732 -0.1071
 6189TIP3    H142762   1.365   0.797  10.338 -1.8087 -1.1112 -0.2844
 6189TIP3    H242763   1.435   0.793  10.472  0.5465 -0.9308 -1.4666
 6190TIP3   OH242764   5.268   5.033  12.869  0.4776  0.0275  0.1439
 6190TIP3    H142765   5.274   5.115  12.820  0.7757 -0.6827 -1.0541
 6190TIP3    H242766   5.330   5.044  12.941  0.5244  0.8426 -0.0091
 6191TIP3   OH242767   6.151   3.666  10.277 -0.5578  0.4113  0.0946
 6191TIP3    H142768   6.245   3.674  10.292 -1.1230  2.1384  3.7888
 6191TIP3    H242769   6.129   3.579  10.309 -0.1650 -0.3635 -1.6345
 6192TIP3   OH242770   6.404   0.697  12.749  0.0826 -0.1800  0.5637
 6192TIP3    H142771   6.369   0.709  12.661 -0.8190 -0.0506  0.9311
 6192TIP3    H242772   6.421   0.603  12.755  2.4040  0.0859 -0.5514
 6193TIP3   OH242773   6.149   0.188  11.566 -0.1150 -0.4588 -0.1234
 6193TIP3    H142774   6.157   0.155  11.476 -0.3152  2.2353 -1.2404
 6193TIP3    H242775   6.164   0.283  11.557  0.3261 -0.1781  2.7814
 6194TIP3   OH242776   0.425   3.547  12.121 -0.4952 -0.0803 -0.3658
 6194TIP3    H142777   0.396   3.539  12.030 -0.8484 -0.1477 -0.2486
 6194TIP3    H242778   0.368   3.487  12.170  1.0325 -1.6518 -0.3868
 6195TIP3   OH242779   4.961   4.004  10.270  0.5310  0.2452 -0.1658
 6195TIP3    H142780   4.983   4.068  10.202  1.4572  0.7419  0.5778
 6195TIP3    H242781   5.042   3.995  10.321 -0.0629 -0.3386  0.6919
 6196TIP3   OH242782   2.866   6.458  10.939  0.1996 -0.1712  0.3592
 6196TIP3    H142783   2.848   6.492  10.852  1.3664  0.4264  0.3399
 6196TIP3    H242784   2.779   6.441  10.976 -0.4759  2.7233  0.3169
 6197TIP3   OH242785   4.691   5.596  11.246 -0.3558  0.2411  0.1203
 6197TIP3    H142786   4.698   5.573  11.153 -0.1599  0.3557  0.1074
 6197TIP3    H242787   4.731   5.683  11.252  0.9829 -0.3778  0.5676
 6198TIP3   OH242788   6.655   1.826   9.715 -0.3747 -0.0597  0.0170
 6198TIP3    H142789   6.681   1.856   9.802  0.8542  1.2198 -0.7607
 6198TIP3    H242790   6.641   1.732   9.726  1.4233 -0.2312  1.2252
 6199TIP3   OH242791   1.120   1.978  11.586 -0.6690  0.1078  0.6596
 6199TIP3    H142792   1.044   2.034  11.571 -0.9475  0.2171  2.2987
 6199TIP3    H242793   1.164   2.018  11.661  0.7954 -0.1840 -0.0119
 6200TIP3   OH242794   0.840   4.345  10.981 -0.1718 -0.0647 -0.5547
 6200TIP3    H142795   0.881   4.341  11.067 -0.6522  1.4135 -0.2147
 6200TIP3    H242796   0.766   4.405  10.993 -0.9729 -0.7906 -1.7171
 6201TIP3   OH242797   1.011   3.124  12.627 -0.0572 -0.2287 -0.6382
 6201TIP3    H142798   1.061   3.043  12.637 -0.0630 -0.2344 -0.6558
 6201TIP3    H242799   1.064   3.177  12.568  1.3552  0.9158  1.4940
 6202TIP3   OH242800   0.049   0.540  11.012  0.5238 -0.8314  0.1761
 6202TIP3    H142801   0.053   0.515  10.920 -2.2077 -0.7688 -0.0302
 6202TIP3    H242802  -0.011   0.477  11.052 -0.1423  0.5240  1.3997
 6203TIP3   OH242803   4.718   3.821  11.608 -0.4103  0.3990  0.5545
 6203TIP3    H142804   4.692   3.860  11.691 -0.3217 -0.2514  0.8941
 6203TIP3    H242805   4.638   3.782  11.573 -0.3816  0.3952  0.4925
 6204TIP3   OH242806   3.511   0.817  12.257 -0.1090  0.7848 -0.2662
 6204TIP3    H142807   3.480   0.830  12.347 -1.3265  2.2657 -0.8534
 6204TIP3    H242808   3.605   0.835  12.262 -0.0230  0.1470  0.8223
 6205TIP3   OH242809   1.113   0.387  12.552 -0.3422  0.1993  0.3845
 6205TIP3    H142810   1.026   0.425  12.541 -0.6847 -0.5373  0.4994
 6205TIP3    H242811   1.137   0.407  12.642 -1.1723 -1.1312  0.9415
 6206TIP3   OH242812   2.259   0.772   9.634 -0.0992  0.3703  0.3872
 6206TIP3    H142813   2.339   0.816   9.663  1.5369 -0.9742 -1.7418
 6206TIP3    H242814   2.241   0.809   9.547 -1.4655  0.2201  0.5805
 6207TIP3   OH242815   2.129   0.153  10.708  0.4132 -0.2262 -0.1966
 6207TIP3    H142816   2.169   0.226  10.755  2.0292 -0.1374 -1.6378
 6207TIP3    H242817   2.155   0.166  10.617 -1.8960 -0.8833 -1.0113
 6208TIP3   OH242818   4.382   2.381  12.564  0.2519 -0.7856  0.0451
 6208TIP3    H142819   4.459   2.416  12.610  0.0811 -0.4637  0.0927
 6208TIP3    H242820   4.363   2.447  12.498  0.6056 -1.3308 -0.6132
 6209TIP3   OH242821   5.295   0.909  11.489 -0.4593 -0.5017 -0.3688
 6209TIP3    H142822   5.317   0.841  11.425  2.1657  0.5825 -0.7367
 6209TIP3    H242823   5.321   0.871  11.573 -1.5378 -0.9571 -0.2291
 6210TIP3   OH242824   3.439   5.129  11.710  0.2924  0.5922  0.1410
 6210TIP3    H142825   3.473   5.043  11.686  1.2202  1.5434 -2.3089
 6210TIP3    H242826   3.483   5.151  11.792 -0.0062 -1.2290  0.8403
 6211TIP3   OH242827   4.006   4.943  12.361 -0.4913  0.3231  1.4298
 6211TIP3    H142828   3.925   4.988  12.337 -0.0613 -0.0813 -0.9936
 6211TIP3    H242829   4.075   5.008  12.346  0.0640 -0.7801 -1.4048
 6212TIP3   OH242830   0.497   3.425  10.823 -0.0519  0.1095  0.4344
 6212TIP3    H142831   0.540   3.424  10.908 -0.2397 -0.6420  0.5274
 6212TIP3    H242832   0.569   3.430  10.760  0.2053 -1.1941  0.5855
 6213TIP3   OH242833   6.383   3.569  12.021 -0.4220  0.5563  0.4210
 6213TIP3    H142834   6.460   3.575  11.965  1.7462 -1.0567  2.9885
 6213TIP3    H242835   6.409   3.609  12.104 -2.0016 -0.8193  1.6747
 6214TIP3   OH242836   4.983   4.615  11.300 -0.3736  0.5077 -0.2977
 6214TIP3    H142837   4.911   4.678  11.308 -0.5702  0.1746  0.8019
 6214TIP3    H242838   5.052   4.663  11.255 -1.3340  0.7820 -1.5238
 6215TIP3   OH242839   0.739   5.302  12.502 -0.5511 -0.2202  0.2844
 6215TIP3    H142840   0.705   5.391  12.488 -0.5601 -0.2360  0.2033
 6215TIP3    H242841   0.689   5.268  12.576 -0.5973 -0.1826  0.2709
 6216TIP3   OH242842   1.733   3.918  12.355  0.3395 -0.2092 -0.1407
 6216TIP3    H142843   1.789   3.969  12.414 -0.5771  0.8639 -0.1795
 6216TIP3    H242844   1.729   3.971  12.275  0.3341 -0.9235 -0.6195
 6217TIP3   OH242845   0.980   2.140  10.794 -0.2727  0.3400 -0.0150
 6217TIP3    H142846   0.920   2.192  10.741 -0.8078 -0.4848 -0.2298
 6217TIP3    H242847   0.923   2.095  10.857  0.1346 -0.3012 -0.0998
 6218TIP3   OH242848   1.804   4.574  12.619 -0.0800  0.3792 -0.2017
 6218TIP3    H142849   1.807   4.500  12.679  0.9213  0.6452  0.1149
 6218TIP3    H242850   1.895   4.585  12.591 -0.2993  1.1638 -0.6362
 6219TIP3   OH242851   1.031   5.030  10.958  0.3594  0.1184  0.2937
 6219TIP3    H142852   0.984   5.048  10.876  0.4177 -2.1867 -0.3011
 6219TIP3    H242853   1.121   5.054  10.939  0.4710 -0.8826 -0.5290
 6220TIP3   OH242854   2.451   5.635  12.024  0.2239 -0.0740 -0.1552
 6220TIP3    H142855   2.499   5.555  12.044 -1.3036 -0.7577  0.9493
 6220TIP3    H242856   2.372   5.630  12.077 -1.4449  0.6721 -2.4192
 6221TIP3   OH242857   1.002   1.636  11.646  0.0131 -0.3049 -0.0155
 6221TIP3    H142858   1.018   1.563  11.705 -0.1869 -0.6513 -0.3830
 6221TIP3    H242859   0.957   1.701  11.700 -0.0922 -0.5825  0.2328
 6222TIP3   OH242860   4.980   5.997  11.277  0.3078  0.2162  0.3714
 6222TIP3    H142861   4.922   5.933  11.317  1.9945 -1.4751  0.2702
 6222TIP3    H242862   5.064   5.952  11.270  2.0535  2.9678  1.7854
 6223TIP3   OH242863   2.810   2.265   9.624  0.5417  0.6962  0.0860
 6223TIP3    H142864   2.729   2.230   9.661  0.8911  0.9724  1.1569
 6223TIP3    H242865   2.807   2.240   9.532 -0.6166  0.4407  0.1725
 6224TIP3   OH242866   4.857   4.206  11.006  0.7314 -0.5364  1.1089
 6224TIP3    H142867   4.845   4.276  10.943 -0.9447 -1.6731  0.0572
 6224TIP3    H242868   4.909   4.140  10.959  0.0841 -1.0779  1.1259
 6225TIP3   OH242869   5.113   5.788  10.327 -0.0429 -0.3909  0.4303
 6225TIP3    H142870   5.054   5.846  10.375  0.0682  0.4344 -0.4107
 6225TIP3    H242871   5.059   5.753  10.256  0.2609 -0.2523  0.1307
 6226TIP3   OH242872   2.354   1.465  10.908 -0.1532 -0.2569 -0.3429
 6226TIP3    H142873   2.404   1.467  10.989 -2.1512 -0.2232  0.9676
 6226TIP3    H242874   2.281   1.406  10.926 -1.7966  1.3378 -1.3617
 6227TIP3   OH242875   5.458   4.539  10.218 -0.4658 -0.4171  0.0496
 6227TIP3    H142876   5.455   4.594  10.140 -1.0024 -1.3116 -0.5680
 6227TIP3    H242877   5.551   4.523  10.232 -0.2145  1.3882  0.7889
 6228TIP3   OH242878   0.561   3.846   9.916 -0.4059 -0.7562 -0.7137
 6228TIP3    H142879   0.469   3.825   9.901 -0.3875 -1.1519 -0.3067
 6228TIP3    H242880   0.570   3.938   9.888 -1.1508 -0.4072  0.1397
 6229TIP3   OH242881   0.219   3.741  11.941 -0.2315  0.0248  0.5262
 6229TIP3    H142882   0.193   3.790  11.863  0.0772 -2.0347 -0.9469
 6229TIP3    H242883   0.258   3.660  11.907 -0.1012 -0.9537  2.8281
 6230TIP3   OH242884   1.949   0.401  11.400 -0.2376  0.3025 -0.5491
 6230TIP3    H142885   1.997   0.411  11.482 -2.0714 -1.0695  0.7800
 6230TIP3    H242886   2.012   0.364  11.339  0.6679 -0.5284  0.8414
 6231TIP3   OH242887   2.240   2.258   9.397 -0.1165 -0.3527 -0.5724
 6231TIP3    H142888   2.273   2.197   9.331  1.3479 -0.8866  0.5855
 6231TIP3    H242889   2.158   2.218   9.428  0.8861 -1.8768  0.2744
 6232TIP3   OH242890   2.247   1.329  12.537 -0.2492 -0.2711 -0.2070
 6232TIP3    H142891   2.335   1.365  12.527 -0.1059 -0.0350  1.5673
 6232TIP3    H242892   2.189   1.405  12.541 -0.1824 -0.2670  1.4522
 6233TIP3   OH242893   5.318   2.787  10.169  0.2045 -0.0610  0.0860
 6233TIP3    H142894   5.279   2.872  10.150 -0.2352  0.3311  2.4449
 6233TIP3    H242895   5.395   2.782  10.112 -0.1113  1.6374 -0.5265
 6234TIP3   OH242896   4.695   5.058   9.600 -0.1332  0.3376  0.5941
 6234TIP3    H142897   4.768   5.005   9.566 -0.2477 -0.0220  0.9066
 6234TIP3    H242898   4.654   5.095   9.522 -0.5600 -0.7008  0.3179
 6235TIP3   OH242899   2.438   3.831  10.603  0.4049 -0.3392  0.4107
 6235TIP3    H142900   2.345   3.828  10.580  0.7441 -1.5003 -0.9666
 6235TIP3    H242901   2.451   3.755  10.658  0.5491 -0.1608  0.6248
 6236TIP3   OH242902   2.935   1.077  10.205 -0.0279 -0.2497  1.0790
 6236TIP3    H142903   2.955   1.040  10.291  1.5138  0.3374  1.0063
 6236TIP3    H242904   2.908   1.002  10.152  0.8362 -0.9269  1.5628
 6237TIP3   OH242905   3.950   4.819  10.687  0.0074 -0.1770  1.0778
 6237TIP3    H142906   3.923   4.742  10.637  0.0357  1.6051 -1.9592
 6237TIP3    H242907   4.046   4.818  10.682 -0.0154  0.3584  0.5181
 6238TIP3   OH242908   4.686   0.166  12.608 -0.0437  0.0108  0.0837
 6238TIP3    H142909   4.691   0.081  12.650  1.7307 -1.0174 -1.9793
 6238TIP3    H242910   4.742   0.158  12.530  0.4451  3.1458 -0.0537
 6239TIP3   OH242911   4.547   1.994  10.690  0.0750  0.2217 -0.1040
 6239TIP3    H142912   4.452   2.000  10.701  0.1873  0.1610  1.0582
 6239TIP3    H242913   4.576   1.945  10.767  0.7266 -2.5532 -1.9737
 6240TIP3   OH242914   6.337   4.663  11.876 -0.1799 -0.2562  0.0185
 6240TIP3    H142915   6.309   4.734  11.934 -1.7889 -0.2325 -0.7406
 6240TIP3    H242916   6.404   4.617  11.926 -1.5529 -0.2793  1.9673
 6241TIP3   OH242917   3.110   1.932  11.678  0.1365  0.0228 -0.1361
 6241TIP3    H142918   3.116   1.955  11.585  0.9891 -0.8192 -0.3051
 6241TIP3    H242919   3.187   1.877  11.694  0.8479  1.3801  1.4348
 6242TIP3   OH242920   2.412   1.236  12.835 -0.1426 -0.0371  0.2546
 6242TIP3    H142921   2.446   1.323  12.856  0.5496 -0.7750  2.5772
 6242TIP3    H242922   2.433   1.223  12.743 -0.5428  2.3442 -0.2447
 6243TIP3   OH242923   3.370   1.266   9.177  0.1206  0.6925 -0.6554
 6243TIP3    H142924   3.311   1.198   9.209  1.3453 -0.1399 -0.1010
 6243TIP3    H242925   3.392   1.238   9.088  0.3146  0.5769 -0.5705
 6244TIP3   OH242926   5.308   0.304  12.688 -0.5765 -0.3328  0.1546
 6244TIP3    H142927   5.350   0.389  12.701  2.2615 -1.7191  0.9065
 6244TIP3    H242928   5.373   0.252  12.641 -1.8361 -2.3771  0.5442
 6245TIP3   OH242929   5.009   2.962  10.814  0.0097  0.1092  0.4222
 6245TIP3    H142930   5.040   2.979  10.725 -1.7019 -0.7935 -0.3838
 6245TIP3    H242931   5.012   2.867  10.823  0.7872  0.2203  1.5945
 6246TIP3   OH242932   1.137   3.963  12.283 -0.1263 -0.5009 -0.0737
 6246TIP3    H142933   1.141   4.041  12.338  1.2229 -1.0245  0.6206
 6246TIP3    H242934   1.144   3.890  12.345 -0.5485 -1.1570 -0.7859
 6247TIP3   OH242935   1.470   2.628  10.452  0.1621  0.1213  0.1234
 6247TIP3    H142936   1.491   2.554  10.509  0.2196  0.0580  0.0202
 6247TIP3    H242937   1.535   2.694  10.473  0.6516 -0.1819 -0.4042
 6248TIP3   OH242938   1.821   2.037  10.883 -0.6042 -0.3089 -0.1494
 6248TIP3    H142939   1.746   2.070  10.932 -0.4288 -0.5784  0.2997
 6248TIP3    H242940   1.835   2.102  10.815  0.3719  1.0801  1.3265
 6249TIP3   OH242941   4.852   5.899  10.489  0.7386  0.4364 -0.0129
 6249TIP3    H142942   4.882   5.946  10.567  1.9769  1.1764 -0.8788
 6249TIP3    H242943   4.795   5.961  10.445 -0.4911 -0.2255  0.6147
 6250TIP3   OH242944   0.010   3.215  10.922 -0.1588  0.2766 -0.1633
 6250TIP3    H142945   0.086   3.241  10.973  0.0180 -0.1096 -0.2262
 6250TIP3    H242946   0.020   3.120  10.910 -1.5496 -0.1176  1.3451
 6251TIP3   OH242947   0.687   2.525  10.342 -0.3987 -0.3761 -0.1849
 6251TIP3    H142948   0.776   2.492  10.327 -1.8043 -4.2369 -1.2629
 6251TIP3    H242949   0.648   2.531  10.255 -1.5850 -0.0043  0.3473
 6252TIP3   OH242950   1.715   4.258  12.481 -0.3502  0.1419 -0.0069
 6252TIP3    H142951   1.631   4.227  12.514  0.4382 -3.3694 -0.8633
 6252TIP3    H242952   1.694   4.333  12.426 -2.7741 -0.0343  0.5761
 6253TIP3   OH242953   4.196   0.470  11.291 -0.4885 -0.3830 -0.1189
 6253TIP3    H142954   4.202   0.500  11.381  1.8472 -1.0901  0.0270
 6253TIP3    H242955   4.173   0.549  11.241  1.4938  0.8351  0.7331
 6254TIP3   OH242956   0.743   6.043  11.632 -0.5902  0.0143  0.0471
 6254TIP3    H142957   0.775   6.041  11.722  1.8311  0.4502 -0.7335
 6254TIP3    H242958   0.664   6.096  11.636  0.2090  1.1693  1.7103
 6255TIP3   OH242959   3.488   4.222  11.314  0.1121  0.4058  0.7033
 6255TIP3    H142960   3.446   4.140  11.289 -1.4574  0.9728  1.3385
 6255TIP3    H242961   3.433   4.290  11.276  2.1274  1.2068 -0.9729
 6256TIP3   OH242962   5.395   6.670   9.892 -0.4059 -0.2447 -0.4529
 6256TIP3    H142963   5.418   6.639   9.804  1.7103  1.2198 -0.5078
 6256TIP3    H242964   5.447   6.615   9.951  0.3526  0.5708 -0.3300
 6257TIP3   OH242965   1.759   5.984  10.963  0.1420 -0.3687 -0.4847
 6257TIP3    H142966   1.780   5.914  10.901 -1.6087  0.5168 -2.1793
 6257TIP3    H242967   1.844   6.012  10.996  1.0563 -1.7216 -1.5479
 6258TIP3   OH242968   4.014   5.687  10.726  0.0238  0.4117  0.2185
 6258TIP3    H142969   4.107   5.708  10.719  0.4595 -1.7168 -1.7055
 6258TIP3    H242970   3.983   5.740  10.799  3.0482  0.2030  1.8443
 6259TIP3   OH242971   1.452   1.059   9.201 -0.2530  0.4902  0.2185
 6259TIP3    H142972   1.527   1.115   9.181 -0.9071  1.5392  0.6364
 6259TIP3    H242973   1.375   1.113   9.183 -0.9174 -0.4337  0.1721
 6260TIP3   OH242974   5.332   5.197  10.502 -0.5782 -0.1458 -0.2138
 6260TIP3    H142975   5.360   5.276  10.454 -0.6014 -1.0201 -1.7475
 6260TIP3    H242976   5.311   5.228  10.590  2.5354  1.0312  0.2328
 6261TIP3   OH242977   3.059   2.902  12.579  0.2663 -0.1698  0.0903
 6261TIP3    H142978   3.147   2.864  12.587  0.9911  0.9617 -1.6862
 6261TIP3    H242979   3.075   2.989  12.541 -1.6043  0.1939  0.0800
 6262TIP3   OH242980   3.714   6.574  11.528 -0.1274 -0.8164 -0.3933
 6262TIP3    H142981   3.625   6.563  11.561 -1.0466  0.3115 -2.3646
 6262TIP3    H242982   3.764   6.504  11.570 -1.8173 -1.1627  1.1322
 6263TIP3   OH242983   6.183   3.505   9.441  0.0631 -0.1177  0.4452
 6263TIP3    H142984   6.266   3.460   9.457  0.2341 -0.5075 -1.2742
 6263TIP3    H242985   6.122   3.466   9.503  0.7877 -1.0234  0.6071
 6264TIP3   OH242986   4.833   2.400   9.849  0.0776  0.0234  0.1651
 6264TIP3    H142987   4.743   2.395   9.816  0.6473 -3.0902 -1.2815
 6264TIP3    H242988   4.845   2.319   9.898  2.3421 -0.0760 -0.4308
 6265TIP3   OH242989   0.592   3.200  11.068  0.2054  0.4332 -0.1709
 6265TIP3    H142990   0.618   3.286  11.101 -0.7296  1.3797 -1.7544
 6265TIP3    H242991   0.526   3.169  11.130  1.0427  0.5270  0.7878
 6266TIP3   OH242992   2.584   5.357   9.889 -0.4266  0.9309  0.3411
 6266TIP3    H142993   2.510   5.358   9.950  0.4250  0.3275  1.4371
 6266TIP3    H242994   2.633   5.279   9.914  0.9408  1.6890  0.0821
 6267TIP3   OH242995   4.628   1.160   9.956 -0.3490  0.5384 -0.4748
 6267TIP3    H142996   4.583   1.238   9.923  0.4765  0.1314 -2.6973
 6267TIP3    H242997   4.605   1.091   9.893  0.9492 -0.3984  0.0465
 6268TIP3   OH242998   6.393   5.755  11.319  0.6398  0.2690  0.1135
 6268TIP3    H142999   6.459   5.706  11.269  0.6088 -0.2841  0.5988
 6268TIP3    H243000   6.351   5.812  11.255  0.9311 -0.0764 -0.3894
 6269TIP3   OH243001   4.153   6.212  11.200  0.1671 -0.1257  0.1043
 6269TIP3    H143002   4.242   6.245  11.203  0.0925  0.0756  0.0749
 6269TIP3    H243003   4.160   6.123  11.235  0.7391 -0.9146 -1.8571
 6270TIP3   OH243004   4.630   2.293   9.194 -0.3216  0.3697  0.3321
 6270TIP3    H143005   4.696   2.237   9.152 -1.0356 -0.4058  0.2309
 6270TIP3    H243006   4.681   2.355   9.246  0.4442 -1.4533  1.8435
 6271TIP3   OH243007   3.448   4.800  11.737  0.1227  0.0874  0.1967
 6271TIP3    H143008   3.406   4.864  11.794  0.7675  1.1338 -0.4646
 6271TIP3    H243009   3.542   4.813  11.752  0.2620 -0.8930  0.2435
 6272TIP3   OH243010   0.926   6.571   9.433 -0.1359  0.4269  0.3435
 6272TIP3    H143011   1.005   6.606   9.392 -0.0998  0.1461  0.1739
 6272TIP3    H243012   0.938   6.589   9.527  0.5439 -0.4121  0.4330
 6273TIP3   OH243013   4.808   4.637   9.999 -0.5291  0.4422 -0.1077
 6273TIP3    H143014   4.818   4.657   9.906  0.4547  0.8051  0.0589
 6273TIP3    H243015   4.718   4.662  10.019 -1.4359 -1.5609 -1.4078
 6274TIP3   OH243016   5.551   5.574   9.248  0.9562 -0.2495 -0.5045
 6274TIP3    H143017   5.602   5.571   9.329 -1.4833 -1.1902  1.1108
 6274TIP3    H243018   5.537   5.482   9.224 -1.8554 -0.1581  0.4500
 6275TIP3   OH243019   2.309   1.802  11.313  0.0686 -1.0394 -0.1626
 6275TIP3    H143020   2.260   1.749  11.249 -0.0706 -1.7329  0.5013
 6275TIP3    H243021   2.401   1.788  11.290  0.0278 -1.4654 -0.0859
 6276TIP3   OH243022   2.734   1.542  12.543  0.2700 -0.0826  0.0058
 6276TIP3    H143023   2.786   1.462  12.545  0.4656  0.0447  0.0338
 6276TIP3    H243024   2.797   1.612  12.559 -0.2617 -0.0898  2.5075
 6277TIP3   OH243025   0.916   6.291   9.670  0.6101  0.5314 -0.2509
 6277TIP3    H143026   0.982   6.278   9.602  2.4828  0.1098  1.5477
 6277TIP3    H243027   0.960   6.345   9.736 -0.7453 -0.0098  1.1596
 6278TIP3   OH243028   3.744   3.288  10.069  0.1745  0.5642  0.1471
 6278TIP3    H143029   3.759   3.382  10.078  1.5603  0.4175 -0.3640
 6278TIP3    H243030   3.665   3.271  10.121 -1.1097  2.2781 -1.1558
 6279TIP3   OH243031   3.703   4.927  11.663 -0.0001  0.1389 -0.2541
 6279TIP3    H143032   3.794   4.930  11.633 -0.2662 -1.4969 -1.3454
 6279TIP3    H243033   3.710   4.920  11.758  0.8852  3.9029  0.1122
 6280TIP3   OH243034   5.926   2.683  10.989 -0.0035 -0.2759  0.4036
 6280TIP3    H143035   5.968   2.757  11.032  0.3517 -0.6322  0.6745
 6280TIP3    H243036   5.964   2.680  10.901 -0.3932  0.1704  0.2157
 6281TIP3   OH243037   3.870   5.617  10.150  0.0986 -0.3045  0.0471
 6281TIP3    H143038   3.940   5.589  10.091 -0.6806 -0.0280 -1.0203
 6281TIP3    H243039   3.866   5.548  10.217  2.8156  0.6874  1.3961
 6282TIP3   OH243040   5.816   3.975  10.196 -0.7289  0.1455 -0.7692
 6282TIP3    H143041   5.803   4.053  10.141 -0.6857  0.1992 -0.7035
 6282TIP3    H243042   5.911   3.974  10.213 -0.8760  0.7140  0.1721
 6283TIP3   OH243043   1.690   1.469  12.870 -0.4212  0.3785 -0.3027
 6283TIP3    H143044   1.676   1.561  12.893 -0.1334  0.1782  0.7133
 6283TIP3    H243045   1.662   1.462  12.779  0.1027  1.6050 -0.5747
 6284TIP3   OH243046   0.299   5.836  10.002 -0.1726 -0.1001  0.0503
 6284TIP3    H143047   0.308   5.740   9.998 -0.0817 -0.1053 -3.6303
 6284TIP3    H243048   0.298   5.863   9.910  3.3312  3.7959  0.8686
 6285TIP3   OH243049   0.158   6.011   9.582 -0.4028  0.4709  0.6685
 6285TIP3    H143050   0.212   5.980   9.509 -0.0215 -0.8677  1.4894
 6285TIP3    H243051   0.152   6.105   9.568  0.2568  0.3390 -0.6973
 6286TIP3   OH243052   4.359   0.440  11.013  0.0665  0.5161  0.4309
 6286TIP3    H143053   4.450   0.414  11.003  0.7313  2.4975  0.8415
 6286TIP3    H243054   4.310   0.358  11.013  1.7089 -0.5234 -1.0330
 6287TIP3   OH243055   1.562   5.447  11.345 -0.0918  0.3084  0.0486
 6287TIP3    H143056   1.516   5.365  11.329  0.4430 -0.2366  1.1930
 6287TIP3    H243057   1.508   5.514  11.303 -0.3219 -0.6622 -1.2620
 6288TIP3   OH243058   5.457   0.488  11.180  0.1823 -0.0895  0.2472
 6288TIP3    H143059   5.474   0.478  11.086 -0.3570 -1.4715  0.2750
 6288TIP3    H243060   5.383   0.430  11.197 -1.0220  1.6477  1.1592
 6289TIP3   OH243061   4.137   3.826  11.747 -0.1141  0.8111  0.7462
 6289TIP3    H143062   4.197   3.826  11.821 -0.5441  3.0520  1.1699
 6289TIP3    H243063   4.071   3.761  11.770  0.7870  0.0994  1.4174
 6290TIP3   OH243064   6.479   6.040   9.267 -0.1253  0.0173 -0.4135
 6290TIP3    H143065   6.548   5.988   9.227  0.7431 -2.3126  3.5204
 6290TIP3    H243066   6.526   6.102   9.323 -1.1997  0.2071  0.3021
 6291TIP3   OH243067   2.968   4.351  10.790  0.2117 -0.6356 -0.0729
 6291TIP3    H143068   3.018   4.353  10.708  0.5275  1.8322  0.1239
 6291TIP3    H243069   2.896   4.291  10.772  0.1631  0.0055 -2.2365
 6292TIP3   OH243070   5.180   3.970  10.466  0.4331 -0.0721 -0.2495
 6292TIP3    H143071   5.268   3.987  10.501  0.0336 -0.3022  0.9011
 6292TIP3    H243072   5.169   3.875  10.474 -0.3505  0.0892  0.6658
 6293TIP3   OH243073   1.993   5.422  12.019  0.7052  0.0104  0.6934
 6293TIP3    H143074   1.907   5.396  11.985  1.7298 -3.7495  0.4758
 6293TIP3    H243075   1.974   5.458  12.106 -1.1693  0.2793  0.2164
 6294TIP3   OH243076   1.285   2.519  10.792 -0.1940  0.3704 -0.5309
 6294TIP3    H143077   1.246   2.496  10.708  0.6588 -2.1020 -0.3380
 6294TIP3    H243078   1.218   2.499  10.857 -0.0061 -0.1504 -0.4842
 6295TIP3   OH243079   4.183   1.362   9.615 -0.0429  0.3800 -0.2284
 6295TIP3    H143080   4.110   1.405   9.571  1.5107  1.4306 -1.9052
 6295TIP3    H243081   4.168   1.268   9.601 -0.4150  0.6323 -1.6371
 6296TIP3   OH243082   4.568   5.580  10.763 -0.5368  0.0468  0.1903
 6296TIP3    H143083   4.519   5.636  10.702  1.2763  1.0623 -0.3976
 6296TIP3    H243084   4.659   5.610  10.755  0.4354 -2.6739  0.2142
 6297TIP3   OH243085   3.606   3.960  10.952 -0.1124  0.5495  0.4016
 6297TIP3    H143086   3.619   3.891  11.018 -0.2151 -0.2403 -0.3893
 6297TIP3    H243087   3.623   4.042  10.999 -1.1090  0.0675  1.6723
 6298TIP3   OH243088   0.159   6.259   9.315  0.0112  0.2180 -0.8829
 6298TIP3    H143089   0.220   6.187   9.295 -0.3534  0.0638 -1.4488
 6298TIP3    H243090   0.216   6.332   9.339  0.4920  0.4487 -2.5845
 6299TIP3   OH243091   0.254   2.714   9.922  0.0087 -0.1022  0.1121
 6299TIP3    H143092   0.255   2.762  10.005  0.2689 -0.8217  0.5370
 6299TIP3    H243093   0.278   2.625   9.946  0.0843 -0.3205 -0.7421
 6300TIP3   OH243094   6.082   4.013  11.446 -0.0132 -0.2024 -0.4491
 6300TIP3    H143095   6.086   4.103  11.415 -0.1738 -0.3618 -0.9428
 6300TIP3    H243096   6.070   3.961  11.367  2.8022 -0.8984 -0.5469
 6301TIP3   OH243097   1.757   3.130   9.507  0.4136  0.2260  0.3761
 6301TIP3    H143098   1.680   3.085   9.473  0.3560  0.7329 -0.2018
 6301TIP3    H243099   1.799   3.067   9.564  0.7442 -0.8339 -0.9761
 6302TIP3   OH243100   2.300   6.705  11.180  0.0517  0.5104 -0.6201
 6302TIP3    H143101   2.348   6.661  11.251  1.4757  0.0219 -1.8447
 6302TIP3    H243102   2.230   6.752  11.225  0.4332 -0.4113  1.0451
 6303TIP3   OH243103   4.406   1.731  10.819  0.3360 -0.7432  0.3502
 6303TIP3    H143104   4.490   1.710  10.860 -0.0588 -1.8178  0.6223
 6303TIP3    H243105   4.384   1.655  10.767  0.0201 -0.0458 -0.5628
 6304TIP3   OH243106   5.427   3.698  10.350  0.3003 -0.5846  0.0310
 6304TIP3    H143107   5.469   3.782  10.367  0.2948 -0.7481  0.9519
 6304TIP3    H243108   5.364   3.716  10.280  0.6227  0.0694 -0.0963
 6305TIP3   OH243109   1.367   0.553   9.564  0.1568 -0.5567  0.2150
 6305TIP3    H143110   1.286   0.557   9.514  2.3366  1.0423 -3.5768
 6305TIP3    H243111   1.366   0.631   9.619  0.2502  1.0676 -1.9477
 6306TIP3   OH243112   0.727   2.921   9.430  0.1573 -0.0976 -0.4009
 6306TIP3    H143113   0.763   3.010   9.426 -0.6782  0.3119  0.4809
 6306TIP3    H243114   0.770   2.882   9.506 -0.6785  0.1445  0.2167
 6307TIP3   OH243115   2.580   3.106  11.925  0.1060  0.4684  0.5210
 6307TIP3    H143116   2.524   3.066  11.991  0.5096  1.2862  1.3813
 6307TIP3    H243117   2.522   3.163  11.875 -0.2204 -0.2271  0.0940
 6308TIP3   OH243118   1.760   2.942  11.126  0.1235 -0.5326  0.1970
 6308TIP3    H143119   1.670   2.909  11.121  0.0088 -0.0281 -3.1316
 6308TIP3    H243120   1.810   2.869  11.162 -1.4613 -1.0376  1.5228
 6309TIP3   OH243121   6.074   6.486  13.072  0.1423 -0.1935  0.6489
 6309TIP3    H143122   6.151   6.543  13.072  0.2172 -0.1811 -1.8340
 6309TIP3    H243123   6.107   6.400  13.098  1.3966 -0.5566 -1.8419
 6310TIP3   OH243124   5.768   1.180  12.204 -0.6576  0.0643 -0.8368
 6310TIP3    H143125   5.818   1.179  12.122 -0.3134  2.0800 -0.6807
 6310TIP3    H243126   5.735   1.090  12.212  0.4671 -0.5406 -2.4550
 6311TIP3   OH243127   4.748   4.683   9.730  0.6045  0.6185  0.0918
 6311TIP3    H143128   4.660   4.715   9.714  0.7308  0.1224 -1.9404
 6311TIP3    H243129   4.744   4.589   9.709  1.6266  0.6290 -0.2498
 6312TIP3   OH243130   0.457   0.323  10.809  0.4333 -0.2700  0.2632
 6312TIP3    H143131   0.453   0.257  10.878  1.8899 -0.6438  0.0226
 6312TIP3    H243132   0.419   0.401  10.849 -0.8823 -1.0907  0.7034
 6313TIP3   OH243133   6.198   1.652   9.275 -0.2211  0.1607  0.2103
 6313TIP3    H143134   6.227   1.730   9.323  2.0461 -1.3346  1.4173
 6313TIP3    H243135   6.112   1.632   9.312 -1.2420  2.4743 -0.6885
 6314TIP3   OH243136   5.433   0.031  11.685 -0.1501  0.7062  0.0795
 6314TIP3    H143137   5.495  -0.026  11.730 -1.3836  0.0067  0.9444
 6314TIP3    H243138   5.485   0.108  11.661  1.2749 -0.2766 -0.1071
 6315TIP3   OH243139   4.037   0.780   9.994 -0.1051 -0.4044 -0.2370
 6315TIP3    H143140   4.083   0.856   9.957  1.0238 -1.1458 -0.3800
 6315TIP3    H243141   3.951   0.814  10.018 -0.0149  0.6646 -1.3392
 6316TIP3   OH243142   5.954   1.420   9.309 -0.0673  0.4391 -0.2773
 6316TIP3    H143143   5.862   1.393   9.297  0.1894  0.1012 -1.7056
 6316TIP3    H243144   5.948   1.512   9.333 -0.7971  0.3364 -0.0182
 6317TIP3   OH243145   1.436   5.416  11.820  0.5545  0.3616  0.0130
 6317TIP3    H143146   1.475   5.334  11.789  1.1595  0.9671 -0.8667
 6317TIP3    H243147   1.422   5.401  11.914  0.5718 -0.7729 -0.1406
 6318TIP3   OH243148   2.576   1.294  11.587 -0.7793  0.0548  0.0213
 6318TIP3    H143149   2.597   1.210  11.547  1.0569  0.9309 -1.0247
 6318TIP3    H243150   2.481   1.297  11.588 -0.8843 -1.7238 -0.5797
 6319TIP3   OH243151   0.427   2.298  11.319 -0.4562 -0.0999  0.7203
 6319TIP3    H143152   0.335   2.291  11.344 -0.2918 -1.4684  1.0518
 6319TIP3    H243153   0.453   2.208  11.298  0.3827  0.4854 -0.9438
 6320TIP3   OH243154   1.645   5.618  12.272  0.6130 -0.3493 -0.1356
 6320TIP3    H143155   1.604   5.633  12.357  1.2326  0.3125  0.0612
 6320TIP3    H243156   1.589   5.554  12.229  1.3189 -2.1738  1.5365
 6321TIP3   OH243157   4.737   2.539  10.736 -0.2395  0.6881 -0.3694
 6321TIP3    H143158   4.736   2.450  10.701  0.3807  0.7540 -0.5702
 6321TIP3    H243159   4.757   2.595  10.661  1.4670  0.8025  0.1219
 6322TIP3   OH243160   4.895   4.441   9.469  0.8299 -0.5956 -0.3737
 6322TIP3    H143161   4.883   4.426   9.562  0.1278 -0.9184 -0.5112
 6322TIP3    H243162   4.975   4.494   9.463  1.0624 -0.8559  0.3801
 6323TIP3   OH243163   5.546   2.032  12.205  0.8050 -0.4897  0.2258
 6323TIP3    H143164   5.558   2.010  12.298  1.4290 -0.1158  0.2402
 6323TIP3    H243165   5.451   2.041  12.195  0.7838  0.4904  1.0714
 6324TIP3   OH243166   0.930   4.264  11.252 -0.0865 -0.2185  0.5875
 6324TIP3    H143167   0.892   4.177  11.264 -1.3048 -0.0150 -1.3942
 6324TIP3    H243168   0.864   4.324  11.287 -0.6373  0.0114 -0.7521
 6325TIP3   OH243169   0.553   1.228   9.458 -0.1538 -0.2379 -0.0617
 6325TIP3    H143170   0.468   1.192   9.483 -1.4434  2.9554  0.5801
 6325TIP3    H243171   0.543   1.251   9.365  0.4719 -0.9701 -0.3228
 6326TIP3   OH243172   5.194   2.199  12.870 -0.0684 -0.3532 -0.1460
 6326TIP3    H143173   5.162   2.231  12.786 -3.6001 -1.7841  0.4349
 6326TIP3    H243174   5.179   2.104  12.867 -0.3055 -0.4451  2.0473
 6327TIP3   OH243175   4.861   1.237   9.633 -0.1036 -0.2411 -0.1711
 6327TIP3    H143176   4.852   1.173   9.704 -1.0643  0.7655  0.6430
 6327TIP3    H243177   4.924   1.301   9.667  0.5276 -0.4971 -0.8168
 6328TIP3   OH243178   6.673   6.487  11.824  0.1010  0.1653  0.3085
 6328TIP3    H143179   6.686   6.393  11.839 -1.9660  0.0191  1.5362
 6328TIP3    H243180   6.594   6.491  11.770 -1.6171  1.2373  2.7408
 6329TIP3   OH243181   0.334   5.779  11.073  0.2486  0.5246  0.3841
 6329TIP3    H143182   0.302   5.868  11.087  1.1637  0.8782  0.2664
 6329TIP3    H243183   0.419   5.777  11.116  0.8703  0.1334 -0.8394
 6330TIP3   OH243184   5.706   6.343  12.931 -0.7874  0.0408  0.5017
 6330TIP3    H143185   5.702   6.253  12.899 -0.1046 -0.3165  1.3675
 6330TIP3    H243186   5.614   6.367  12.945 -0.9358 -0.9564  1.3970
 6331TIP3   OH243187   1.265   0.096  10.572 -0.4054 -0.2945  0.0142
 6331TIP3    H143188   1.311   0.172  10.536 -0.4979  0.2467  1.0026
 6331TIP3    H243189   1.317   0.021  10.544  0.5361  0.2452  0.2650
 6332TIP3   OH243190   1.325   4.471   9.391  0.1729 -0.1769 -0.5443
 6332TIP3    H143191   1.359   4.551   9.431 -1.0101  0.0793 -0.0071
 6332TIP3    H243192   1.393   4.405   9.408  0.4709  0.3468  0.3595
 6333TIP3   OH243193   6.592   1.317   9.619 -0.1337 -0.0305 -0.3370
 6333TIP3    H143194   6.527   1.301   9.687  1.2008  1.1942  1.3063
 6333TIP3    H243195   6.644   1.236   9.617  0.3836  0.2467  0.8001
 6334TIP3   OH243196   3.862   6.133   9.711  0.3892  0.2945  0.5980
 6334TIP3    H143197   3.890   6.081   9.636 -0.1830  0.4285  0.2836
 6334TIP3    H243198   3.776   6.167   9.686 -0.6560 -1.1367  2.0377
 6335TIP3   OH243199   3.614   6.314  11.813 -0.1067  1.3526  0.0351
 6335TIP3    H143200   3.647   6.245  11.871 -0.5513  1.6861  0.6993
 6335TIP3    H243201   3.652   6.294  11.728 -1.0869 -0.3419 -0.0409
 6336TIP3   OH243202   1.978   2.297  10.999 -0.2710  0.3015 -0.0886
 6336TIP3    H143203   1.961   2.214  10.954 -1.0463 -1.3154  2.9316
 6336TIP3    H243204   2.038   2.275  11.070 -0.1948  2.4140  0.5860
 6337TIP3   OH243205   5.877   0.571  10.690  0.8553 -0.5546  0.8409
 6337TIP3    H143206   5.921   0.654  10.708 -0.9686  0.6758 -0.0323
 6337TIP3    H243207   5.893   0.554  10.597  1.4514 -1.3561  1.0745
 6338TIP3   OH243208   2.832   0.686   9.479 -0.0456 -0.8195 -0.4103
 6338TIP3    H143209   2.777   0.609   9.465 -0.7489 -0.5133  0.5262
 6338TIP3    H243210   2.865   0.675   9.568  0.1921 -0.2489 -0.4278
 6339TIP3   OH243211   5.642   4.525  10.900 -0.6887  0.1254 -0.9885
 6339TIP3    H143212   5.643   4.528  10.804 -2.2222 -0.7453 -1.0713
 6339TIP3    H243213   5.670   4.437  10.922 -0.2841  0.3404 -0.6240
 6340TIP3   OH243214   5.915   1.697   9.348 -0.4123 -0.6082 -0.5413
 6340TIP3    H143215   5.972   1.769   9.322  1.4272 -1.4379  0.9976
 6340TIP3    H243216   5.828   1.736   9.352  0.5758  1.6416  0.6651
 6341TIP3   OH243217   2.947   5.778  12.426  0.0012 -0.0212 -0.2435
 6341TIP3    H143218   2.975   5.812  12.511 -1.2527 -0.3528  0.3288
 6341TIP3    H243219   3.024   5.734  12.391  0.8368  0.9964  0.2516
 6342TIP3   OH243220   0.461   0.106  12.791  0.2465  0.2720  0.1938
 6342TIP3    H143221   0.554   0.128  12.793  0.4585 -0.6566  0.7742
 6342TIP3    H243222   0.438   0.084  12.881 -0.0966 -1.2464 -0.2289
 6343TIP3   OH243223   4.213   2.461  10.274  0.0157 -0.4938  0.2877
 6343TIP3    H143224   4.239   2.553  10.273 -0.4663 -0.3544  0.1709
 6343TIP3    H243225   4.120   2.462  10.294 -1.2097 -0.6178 -4.3448
 6344TIP3   OH243226   4.657   0.555   9.399  0.1665  0.3693  0.2925
 6344TIP3    H143227   4.738   0.570   9.447 -0.6758 -0.7395  2.1811
 6344TIP3    H243228   4.627   0.470   9.429 -2.3665  1.3122  0.6799
 6345TIP3   OH243229   2.279   2.046  11.068  0.0831  0.1539  0.3808
 6345TIP3    H143230   2.253   2.032  11.159  0.4847  1.3971  0.7092
 6345TIP3    H243231   2.300   1.959  11.035 -1.4551 -0.4964  1.0273
 6346TIP3   OH243232   2.947   1.293  12.214 -0.0707 -0.0921  0.6478
 6346TIP3    H143233   2.986   1.356  12.153  0.8786  0.1711  1.4965
 6346TIP3    H243234   2.866   1.265  12.171  0.7336 -0.1883 -0.9102
 6347TIP3   OH243235   5.211   1.857   8.969 -0.0654 -0.6769  0.0941
 6347TIP3    H143236   5.234   1.949   8.954 -1.0899 -0.3638  0.4138
 6347TIP3    H243237   5.120   1.858   8.996  0.9233 -1.4017  4.0828
 6348TIP3   OH243238   4.137   0.962  11.363 -0.2515 -0.3729 -0.1610
 6348TIP3    H143239   4.119   0.903  11.289  0.0667  1.4783 -1.8168
 6348TIP3    H243240   4.062   1.022  11.364 -0.2124 -0.3243  1.0059
 6349TIP3   OH243241   0.586   5.722  10.241  0.0758  0.0299  0.4732
 6349TIP3    H143242   0.637   5.642  10.253  2.2998  1.0775 -1.3520
 6349TIP3    H243243   0.649   5.786  10.209 -2.1809  1.7296 -0.8286
 6350TIP3   OH243244   0.120   3.155  10.268 -0.4868  0.0966 -0.1359
 6350TIP3    H143245   0.167   3.107  10.337 -0.6570  1.2713  0.8280
 6350TIP3    H243246   0.028   3.152  10.295 -0.2472  3.5500  1.7243
 6351TIP3   OH243247   0.952   3.060   9.895  0.2636 -0.2146 -0.0529
 6351TIP3    H143248   1.008   3.135   9.873 -0.1893  0.0540 -0.3048
 6351TIP3    H243249   0.935   3.069   9.988 -0.3161  0.3619 -0.2071
 6352TIP3   OH243250   3.955   3.774  11.062  0.7747  0.0316 -0.1859
 6352TIP3    H143251   3.926   3.825  10.986 -0.3480  0.7491  0.6749
 6352TIP3    H243252   4.033   3.728  11.032 -0.1301 -0.3912 -2.0298
 6353TIP3   OH243253   4.531   1.361  10.205  0.5028 -0.3134  0.2003
 6353TIP3    H143254   4.576   1.375  10.122 -0.3419  0.5250 -0.1354
 6353TIP3    H243255   4.516   1.448  10.240 -1.7631 -0.4694 -0.2229
 6354TIP3   OH243256   2.508   5.599  10.453  0.0340 -0.5924  0.0114
 6354TIP3    H143257   2.587   5.548  10.471 -0.3667 -0.8618  1.0243
 6354TIP3    H243258   2.441   5.561  10.509 -0.1680  1.3414  1.1709
 6355TIP3   OH243259   0.578   1.942  12.184 -0.2897 -0.2260  0.2915
 6355TIP3    H143260   0.614   1.952  12.272  0.2024 -1.1037  0.2015
 6355TIP3    H243261   0.484   1.954  12.195 -0.1631  0.3303  0.8211
 6356TIP3   OH243262   2.838   0.543  10.165 -0.5196  0.0594  0.8089
 6356TIP3    H143263   2.891   0.559  10.086 -0.8605  0.0593  0.5760
 6356TIP3    H243264   2.758   0.503  10.131 -1.0040  0.7786  1.0741
 6357TIP3   OH243265   1.836   3.827  11.342  0.9057  0.0885  0.1244
 6357TIP3    H143266   1.931   3.829  11.335  0.8991 -0.7730 -0.3461
 6357TIP3    H243267   1.806   3.892  11.279  1.1875  0.7242  0.6312
 6358TIP3   OH243268   1.768   5.873   9.815 -0.6223 -0.3652 -0.3372
 6358TIP3    H143269   1.779   5.936   9.744 -0.5302 -0.2410 -0.2111
 6358TIP3    H243270   1.720   5.800   9.775 -3.3283  1.0051  0.2142
 6359TIP3   OH243271   4.411   3.132  11.225  0.0289  0.0669  0.3989
 6359TIP3    H143272   4.372   3.073  11.161 -0.6551  2.0421 -1.1118
 6359TIP3    H243273   4.346   3.138  11.295 -0.6763  0.3439 -0.2657
 6360TIP3   OH243274   3.343   3.173  11.305  0.1059  0.6834  0.5550
 6360TIP3    H143275   3.324   3.167  11.212 -1.1552  0.0476  0.8320
 6360TIP3    H243276   3.428   3.130  11.315 -1.3929 -2.7172  0.1729
 6361TIP3   OH243277   4.359   2.975   9.626 -0.3973  0.0457  0.3087
 6361TIP3    H143278   4.429   2.942   9.682 -0.9724 -1.8374  0.0005
 6361TIP3    H243279   4.315   3.041   9.678  0.7501  0.2609  1.0346
 6362TIP3   OH243280   5.290   0.223  10.005 -0.5385 -0.5144 -0.3830
 6362TIP3    H143281   5.285   0.220  10.101  1.6263  0.1540 -0.2000
 6362TIP3    H243282   5.289   0.131   9.978  0.6835 -0.7968  0.4427
 6363TIP3   OH243283   5.892   6.136  10.740 -0.0536 -0.1921  0.0614
 6363TIP3    H143284   5.810   6.093  10.713 -0.0917 -1.0878  1.4654
 6363TIP3    H243285   5.927   6.174  10.660  1.1831 -4.7849 -1.9523
 6364TIP3   OH243286   4.131   1.663  10.859 -0.0590  0.2452  0.2191
 6364TIP3    H143287   4.092   1.665  10.946  1.7291  1.0437  1.0671
 6364TIP3    H243288   4.196   1.593  10.863  0.1902  0.4340 -0.3860
 6365TIP3   OH243289   5.759   3.683  10.021 -0.4107  0.4325 -0.0147
 6365TIP3    H143290   5.817   3.754  10.049  1.3398 -0.2591 -1.6890
 6365TIP3    H243291   5.761   3.621  10.093  0.8884  0.4636 -0.0066
 6366TIP3   OH243292   6.546   4.494  10.475  0.1912 -0.0042 -0.3071
 6366TIP3    H143293   6.616   4.490  10.411 -0.2417 -0.4199 -0.7654
 6366TIP3    H243294   6.584   4.540  10.550  1.4125 -1.4845  0.0344
 6367TIP3   OH243295   5.500   3.430  10.246 -0.1170 -0.0898  0.4270
 6367TIP3    H143296   5.459   3.505  10.287 -0.0109  0.1761  0.0529
 6367TIP3    H243297   5.554   3.391  10.314 -0.4143 -0.0099  0.7083
 6368TIP3   OH243298   3.413   1.074   8.977 -0.5581  0.2452 -0.2233
 6368TIP3    H143299   3.331   1.045   8.936 -0.4384 -0.2046 -0.1506
 6368TIP3    H243300   3.458   0.993   8.999 -0.6522  0.4864  0.8719
 6369TIP3   OH243301   6.419   0.219  11.974  0.2125  0.1696  0.2922
 6369TIP3    H143302   6.335   0.188  11.942  0.5529 -1.1723  0.6292
 6369TIP3    H243303   6.478   0.143  11.964  1.3618  1.0541  0.1191
 6370TIP3   OH243304   2.248   3.563  10.370 -0.3510  0.8871 -0.2288
 6370TIP3    H143305   2.238   3.468  10.357  0.0914  0.9463 -1.0713
 6370TIP3    H243306   2.281   3.595  10.286 -0.5240  1.7979  0.0430
 6371TIP3   OH243307   6.625   0.950  12.599 -0.4921 -0.0186  0.2643
 6371TIP3    H143308   6.532   0.962  12.582  0.1661  2.7440 -2.2023
 6371TIP3    H243309   6.661   0.922  12.515  1.0527 -0.0363  0.8995
 6372TIP3   OH243310   1.466   4.482  10.192  0.1241  0.2692  0.0340
 6372TIP3    H143311   1.550   4.461  10.233 -0.5774 -1.3970  0.7259
 6372TIP3    H243312   1.486   4.553  10.132  2.0671 -0.1991  0.0451
 6373TIP3   OH243313   2.769   5.999  10.463 -0.1756 -0.0651 -0.0845
 6373TIP3    H143314   2.855   6.039  10.475 -0.1971  0.3544 -1.2483
 6373TIP3    H243315   2.736   5.986  10.552  0.9240  0.1193  0.3630
 6374TIP3   OH243316   0.917   1.129   9.331 -0.2061  0.3785 -0.3391
 6374TIP3    H143317   0.898   1.210   9.378  0.9482 -0.5759  1.9389
 6374TIP3    H243318   1.006   1.107   9.357 -0.3368 -1.3967 -1.2691
 6375TIP3   OH243319   4.422   0.659  10.832  0.0513  0.5582 -0.2446
 6375TIP3    H143320   4.394   0.571  10.858  0.7084  0.3136 -0.3452
 6375TIP3    H243321   4.358   0.685  10.766 -0.3110  0.2663 -0.0135
 6376TIP3   OH243322   5.783   2.759  10.643 -0.4322 -0.2411  0.2516
 6376TIP3    H143323   5.786   2.814  10.721 -0.5993  1.9730 -1.2015
 6376TIP3    H243324   5.824   2.677  10.670 -1.3134  0.1005  2.8841
 6377TIP3   OH243325   3.607   3.034   9.817  0.7542 -0.0829  0.3227
 6377TIP3    H143326   3.524   2.986   9.806  1.5966 -1.7565  0.8538
 6377TIP3    H243327   3.627   3.067   9.730  0.3739 -1.1488 -0.1946
 6378TIP3   OH243328   3.412   1.029   9.481  0.2568 -0.4140  0.1021
 6378TIP3    H143329   3.352   1.036   9.555 -0.1105  0.2290 -0.2460
 6378TIP3    H243330   3.484   1.088   9.503 -1.0624  1.7927 -1.1615
 6379TIP3   OH243331   3.702   4.891  11.926  0.2463  0.1999 -0.1031
 6379TIP3    H143332   3.631   4.930  11.976  0.5453 -0.0038  0.4908
 6379TIP3    H243333   3.738   4.824  11.984  2.0658  1.4748  0.3389
 6380TIP3   OH243334   3.894   2.584   9.324 -0.2786 -0.1155  0.1718
 6380TIP3    H143335   3.819   2.538   9.288 -0.0280 -1.8041  1.6542
 6380TIP3    H243336   3.962   2.517   9.332  0.2600  0.5747  1.9763
 6381TIP3   OH243337   1.465   1.326  10.510 -0.1497 -0.5709  0.1373
 6381TIP3    H143338   1.420   1.242  10.511 -1.0757 -0.0866  0.1816
 6381TIP3    H243339   1.555   1.306  10.536  0.4344 -1.9857 -2.5571
 6382TIP3   OH243340   0.431   5.483   9.215  0.0536  0.0468  0.4825
 6382TIP3    H143341   0.378   5.515   9.289  1.5220  1.3079  1.0457
 6382TIP3    H243342   0.518   5.519   9.231  0.6804 -0.5837 -1.3077
 6383TIP3   OH243343   6.409   0.771  12.373  0.0353  0.2270 -0.4560
 6383TIP3    H143344   6.384   0.683  12.403 -0.0452  0.2831 -0.3626
 6383TIP3    H243345   6.387   0.829  12.445  0.8316  0.2213 -0.1927
 6384TIP3   OH243346   4.551   4.602  10.651  0.2399 -0.4683 -0.0098
 6384TIP3    H143347   4.514   4.645  10.728 -0.9953 -0.6100 -0.4924
 6384TIP3    H243348   4.580   4.674  10.595 -2.4355 -0.1199 -1.1208
 6385TIP3   OH243349   1.968   2.977  10.546  0.2844  0.5862  0.4868
 6385TIP3    H143350   2.043   3.018  10.590  0.1399  0.0675  1.2217
 6385TIP3    H243351   1.897   2.983  10.609  0.8989 -3.1859  1.7987
 6386TIP3   OH243352   3.007   1.585  11.144  0.0751  0.4553  0.9017
 6386TIP3    H143353   2.973   1.498  11.166 -1.4182  0.3468 -1.4261
 6386TIP3    H243354   3.101   1.573  11.135 -0.1737 -1.0979  0.0039
 6387TIP3   OH243355   2.358   6.532   9.309  0.4553  0.2555  0.1490
 6387TIP3    H143356   2.265   6.554   9.316  0.0800 -0.8412 -0.8917
 6387TIP3    H243357   2.361   6.437   9.324  1.6470  0.5180  1.8461
 6388TIP3   OH243358   2.829   2.545   9.685 -0.2368  0.2248  0.0807
 6388TIP3    H143359   2.884   2.589   9.621 -1.7197  0.1677 -1.3002
 6388TIP3    H243360   2.848   2.452   9.674 -1.1295  0.1423 -0.9580
 6389TIP3   OH243361   0.224   2.171  11.733 -0.1523 -0.5116  0.0702
 6389TIP3    H143362   0.279   2.246  11.711 -0.6927 -0.2211 -0.3279
 6389TIP3    H243363   0.217   2.121  11.651  0.4560 -1.1661  0.4086
 6390TIP3   OH243364   2.523   5.370  12.035  0.2960  0.7167 -0.3552
 6390TIP3    H143365   2.490   5.288  12.073 -0.5364  1.7736  1.3088
 6390TIP3    H243366   2.552   5.345  11.947  0.3241 -1.4101  0.2023
 6391TIP3   OH243367   5.304   1.538   8.994  0.3787  0.6884  0.0183
 6391TIP3    H143368   5.284   1.597   8.921  1.6600 -1.3614 -2.1021
 6391TIP3    H243369   5.386   1.496   8.970 -0.0441 -1.3523  1.8355
 6392TIP3   OH243370   5.038   4.521   9.768 -0.0517  0.5015  0.4020
 6392TIP3    H143371   5.127   4.511   9.735 -0.6957 -0.1802 -1.2394
 6392TIP3    H243372   5.046   4.583   9.841  1.7142  0.6059  0.1602
 6393TIP3   OH243373   2.293   3.186  11.502  0.2162  0.2839  0.1164
 6393TIP3    H143374   2.363   3.122  11.513  1.2699  1.3159 -0.3980
 6393TIP3    H243375   2.277   3.218  11.590 -0.5964 -0.9415  0.4404
 6394TIP3   OH243376   0.257   0.399   9.887  0.5615  0.3025 -0.2725
 6394TIP3    H143377   0.324   0.360   9.832 -0.2927 -0.2303 -0.9739
 6394TIP3    H243378   0.254   0.491   9.860  0.4354  0.1358 -0.8352
 6395TIP3   OH243379   0.491   1.361  12.305 -0.0635  0.4999 -0.3735
 6395TIP3    H143380   0.483   1.425  12.375 -2.5240 -0.6037  0.4659
 6395TIP3    H243381   0.428   1.391  12.239 -0.2922 -0.3263 -0.5389
 6396TIP3   OH243382   1.937   2.343  20.280 -0.4636 -0.2729  0.0730
 6396TIP3    H143383   1.971   2.419  20.234 -1.7392  0.5201  0.3943
 6396TIP3    H243384   1.966   2.356  20.371 -1.6430  0.4658  0.3723
 6397TIP3   OH243385   6.116   0.462  11.567  0.7716  0.8410 -0.4752
 6397TIP3    H143386   6.060   0.501  11.499  0.1369 -0.4093 -0.6965
 6397TIP3    H243387   6.096   0.512  11.646 -0.5393  0.5402 -0.5975
 6398TIP3   OH243388   0.487   2.138   9.196  0.3796  0.3272 -0.0739
 6398TIP3    H143389   0.458   2.072   9.259  0.0824  1.0818  0.5936
 6398TIP3    H243390   0.547   2.194   9.245  0.9381  0.3207 -0.7433
 6399TIP3   OH243391   5.615   1.299  11.884  1.3861 -0.0122 -0.3328
 6399TIP3    H143392   5.618   1.287  11.790  0.3727 -0.4918 -0.3231
 6399TIP3    H243393   5.578   1.386  11.897  1.1002 -0.1253 -0.3821
 6400TIP3   OH243394   0.176   4.597  11.938 -0.9554 -0.1075  0.1046
 6400TIP3    H143395   0.256   4.638  11.905  0.2125 -0.7585  1.9952
 6400TIP3    H243396   0.165   4.520  11.882  1.2002 -1.4048  1.3299
 6401TIP3   OH243397   1.619   2.222  11.226  0.1970 -0.2554 -0.1066
 6401TIP3    H143398   1.588   2.132  11.219  0.6307 -0.6366  2.1762
 6401TIP3    H243399   1.704   2.215  11.270  0.5333  1.2313 -0.4657
 6402TIP3   OH243400   4.142   5.228  10.524 -0.4058  0.4348  0.2301
 6402TIP3    H143401   4.105   5.230  10.612  0.5663 -0.6562  0.7001
 6402TIP3    H243402   4.181   5.314  10.511  0.7472  0.1258  1.4772
 6403TIP3   OH243403   0.122   5.758  11.635  0.2821 -0.1474 -0.2323
 6403TIP3    H143404   0.188   5.706  11.589  1.3532 -0.7148  1.8384
 6403TIP3    H243405   0.079   5.696  11.694 -1.3391  0.4664 -0.7287
 6404TIP3   OH243406   5.649   2.426  11.083  0.1170  0.5495  0.1590
 6404TIP3    H143407   5.671   2.519  11.087 -0.2828  0.6112  3.0529
 6404TIP3    H243408   5.685   2.396  11.000 -0.6662  3.4789 -1.3377
 6405TIP3   OH243409   6.144   2.481   9.753 -0.1937 -0.4748 -0.3428
 6405TIP3    H143410   6.172   2.548   9.815  0.4867 -0.1219 -1.0159
 6405TIP3    H243411   6.224   2.458   9.705 -0.7811 -0.4456 -1.3710
 6406TIP3   OH243412   3.046   3.001   9.770  0.4926  0.2835  0.0747
 6406TIP3    H143413   3.021   2.976   9.859  0.2636  0.0885 -0.0431
 6406TIP3    H243414   3.055   3.096   9.774  0.7757  0.2458  0.3786
 6407TIP3   OH243415   2.340   4.202  11.622  0.3453  0.8471 -0.5631
 6407TIP3    H143416   2.414   4.144  11.640 -0.2768 -0.2740 -1.4995
 6407TIP3    H243417   2.294   4.161  11.549 -2.9512 -0.1333  1.8495
 6408TIP3   OH243418   4.365   2.612   9.964 -0.2218  0.0604 -0.1788
 6408TIP3    H143419   4.369   2.545   9.895  0.9833  1.9656 -2.0711
 6408TIP3    H243420   4.293   2.669   9.937  1.7935  2.2204 -1.3176
 6409TIP3   OH243421   2.540   2.016   9.895  0.2106 -0.1743 -0.0402
 6409TIP3    H143422   2.548   2.102   9.936  1.9234  0.1277 -0.9132
 6409TIP3    H243423   2.452   2.016   9.856  1.4473  2.7941 -3.3745
 6410TIP3   OH243424   1.473   2.045  10.107 -0.4018  0.2232  0.2198
 6410TIP3    H143425   1.439   2.067  10.020  1.4693 -1.5279 -1.0727
 6410TIP3    H243426   1.513   1.959  10.095 -0.5889 -0.3302  3.0054
 6411TIP3   OH243427   4.757   4.689  11.148 -0.4535  0.3026  0.3368
 6411TIP3    H143428   4.796   4.612  11.107 -0.1801  0.4651  0.2921
 6411TIP3    H243429   4.676   4.656  11.188  1.5300 -0.9400  3.8077
 6412TIP3   OH243430   0.374   2.582   9.300 -0.2984  0.4945  0.2454
 6412TIP3    H143431   0.462   2.595   9.335 -0.3164 -1.0063  0.8965
 6412TIP3    H243432   0.372   2.491   9.273 -1.2524  0.8558 -0.9718
 6413TIP3   OH243433   6.536   2.343   9.126  0.2999 -0.5844 -0.3039
 6413TIP3    H143434   6.606   2.287   9.091  0.4150  0.4467 -1.7935
 6413TIP3    H243435   6.578   2.428   9.140  0.0615 -0.7385  1.7110
 6414TIP3   OH243436   3.392   0.578  11.320 -0.3100  0.4119 -0.5511
 6414TIP3    H143437   3.303   0.547  11.299 -0.9238  2.0308 -0.4795
 6414TIP3    H243438   3.402   0.657  11.267  1.4057 -0.1649 -1.1441
 6415TIP3   OH243439   4.604   4.870  11.571 -0.1769 -0.3637 -0.5393
 6415TIP3    H143440   4.571   4.792  11.615  2.2176 -0.9706  0.3396
 6415TIP3    H243441   4.615   4.934  11.641 -0.0405  0.0007 -0.8909
 6416TIP3   OH243442   0.239   4.010  11.728  0.3760  0.4461  0.7238
 6416TIP3    H143443   0.197   3.997  11.643  0.0289 -1.7724  1.1625
 6416TIP3    H243444   0.166   4.027  11.788  0.4297 -0.0066  0.9159
 6417TIP3   OH243445   5.726   4.468  10.242  0.1779  0.2743 -0.2057
 6417TIP3    H143446   5.785   4.512  10.181  0.6573 -1.9086 -1.4222
 6417TIP3    H243447   5.780   4.452  10.320  1.2420 -1.5370 -1.2351
 6418TIP3   OH243448   4.932   3.753  10.104  0.2343 -0.3231 -0.1918
 6418TIP3    H143449   4.839   3.741  10.085 -0.0884  1.1199  0.3624
 6418TIP3    H243450   4.937   3.838  10.148  1.6602 -0.9596  0.9593
 6419TIP3   OH243451   5.452   1.638  11.184  0.6136 -0.0783 -0.1980
 6419TIP3    H143452   5.393   1.683  11.244 -0.1823  0.4066 -1.2991
 6419TIP3    H243453   5.532   1.690  11.185  0.4729  0.1345  0.1478
 6420TIP3   OH243454   5.974   4.567  11.048 -0.0556  0.0069  0.2405
 6420TIP3    H143455   6.053   4.524  11.015 -1.4889 -1.6275 -1.2811
 6420TIP3    H243456   5.963   4.643  10.991  0.4844  0.3317  0.5605
 6421TIP3   OH243457   0.570   6.122  12.823 -0.3230 -0.2677 -0.6047
 6421TIP3    H143458   0.478   6.101  12.837 -0.4378 -0.4441 -1.5514
 6421TIP3    H243459   0.594   6.175  12.899 -1.4662  0.6115 -0.8290
 6422TIP3   OH243460   3.773   2.813   9.217  0.7802  0.2114 -0.3082
 6422TIP3    H143461   3.825   2.753   9.270 -0.4674 -0.9430 -0.3227
 6422TIP3    H243462   3.826   2.827   9.139  1.8800  0.5688  0.4836
 6423TIP3   OH243463   5.236   0.015  11.972  0.4606  0.1598 -0.2544
 6423TIP3    H143464   5.321   0.054  11.991  0.1567  0.5400  0.3278
 6423TIP3    H243465   5.173   0.064  12.025  0.1273 -1.4223  0.8827
 6424TIP3   OH243466   1.036   1.112   9.969 -0.6104  0.2612 -0.5592
 6424TIP3    H143467   0.994   1.192  10.001  3.0058  2.8117 -1.5322
 6424TIP3    H243468   0.986   1.088   9.891 -2.0972  1.2429  0.0503
 6425TIP3   OH243469   1.983   0.645  11.201  0.0221 -0.7708  0.2243
 6425TIP3    H143470   2.007   0.604  11.284 -0.5680 -0.0292  0.7792
 6425TIP3    H243471   1.955   0.573  11.145  0.0583 -1.2341  0.7959
 6426TIP3   OH243472   2.585   4.438  11.763 -0.0523 -0.7502 -0.0538
 6426TIP3    H143473   2.585   4.432  11.667 -0.7046 -1.3080 -0.0306
 6426TIP3    H243474   2.677   4.446  11.787  0.1563 -1.1579 -0.7011
 6427TIP3   OH243475   0.342   0.122  11.653 -0.1261 -0.2835  0.0500
 6427TIP3    H143476   0.288   0.048  11.627 -1.5036  0.7726 -0.2251
 6427TIP3    H243477   0.282   0.197  11.652  1.0344  0.7100  1.0665
 6428TIP3   OH243478   5.402   1.808   9.163 -0.1366  0.0401  0.0085
 6428TIP3    H143479   5.372   1.868   9.231  1.4510  0.3807  0.4627
 6428TIP3    H243480   5.340   1.819   9.091 -1.7529 -0.1912  1.3177
 6429TIP3   OH243481   1.587   1.438  12.170  0.5162  0.2097  0.6961
 6429TIP3    H143482   1.648   1.367  12.147 -0.1546 -0.3349  0.5593
 6429TIP3    H243483   1.546   1.408  12.251  1.2629  1.1104  1.4313
 6430TIP3   OH243484   1.234   5.617  11.128 -0.2176 -0.2178 -0.1151
 6430TIP3    H143485   1.321   5.657  11.137 -0.1844 -0.3782  0.2957
 6430TIP3    H243486   1.242   5.532  11.171 -0.0580 -1.0321 -1.6991
 6431TIP3   OH243487   1.175   4.388  11.252  0.2181 -0.6185  0.5539
 6431TIP3    H143488   1.234   4.331  11.302  0.6216 -0.9771 -0.3116
 6431TIP3    H243489   1.089   4.348  11.261 -0.5357  1.3196  4.0658
 6432TIP3   OH243490   5.951   4.458  11.678  0.0836 -0.4908  0.3278
 6432TIP3    H143491   6.045   4.453  11.662  0.2738  1.4402  0.6596
 6432TIP3    H243492   5.936   4.395  11.749  1.0504 -1.0990  0.0084
 6433TIP3   OH243493   4.520   3.612  10.368  0.2530 -0.2925  0.2402
 6433TIP3    H143494   4.487   3.542  10.425  0.7628 -1.2297 -0.5697
 6433TIP3    H243495   4.441   3.646  10.325  0.0683 -0.8635  0.1125
 6434TIP3   OH243496   6.625   2.592   9.204 -0.0918 -0.1707  0.3731
 6434TIP3    H143497   6.703   2.621   9.251 -0.7719  0.5672  1.0723
 6434TIP3    H243498   6.569   2.670   9.199  0.0065 -0.1698 -1.8053
 6435TIP3   OH243499   5.867   1.151  11.949  0.1224  0.0019  0.5442
 6435TIP3    H143500   5.789   1.189  11.908  0.2544  0.5827  0.8214
 6435TIP3    H243501   5.872   1.063  11.913 -0.1054  0.2952 -0.2320
 6436TIP3   OH243502   1.157   6.556   9.258  0.1083  0.6243  0.2350
 6436TIP3    H143503   1.104   6.494   9.308  0.6893 -1.6113 -1.7719
 6436TIP3    H243504   1.247   6.538   9.285  0.1995  1.5717  0.6149
 6437TIP3   OH243505   4.019   0.215  11.266  0.2324 -0.1884  0.5189
 6437TIP3    H143506   4.028   0.279  11.336 -0.0974 -0.2253  0.5989
 6437TIP3    H243507   3.994   0.134  11.310  0.1066 -0.2330  0.3679
 6438TIP3   OH243508   5.163   4.761  11.124 -0.3495  0.0628  0.2410
 6438TIP3    H143509   5.190   4.752  11.033  0.5267 -0.8516  0.5676
 6438TIP3    H243510   5.208   4.839  11.156 -0.1847  0.0409  0.0604
 6439TIP3   OH243511   0.169   3.440   9.446  0.0636 -0.3240  0.7144
 6439TIP3    H143512   0.211   3.354   9.437  0.9722  0.1715  0.1155
 6439TIP3    H243513   0.162   3.453   9.541  1.4937 -0.3233  0.8426
 6440TIP3   OH243514   5.454   4.950  11.001 -0.3807 -0.1135  0.3574
 6440TIP3    H143515   5.450   4.938  11.096 -0.9001  0.8593  0.4665
 6440TIP3    H243516   5.374   4.997  10.979  0.0451  0.2464 -0.4730
 6441TIP3   OH243517   2.190   1.330   9.786 -0.1664 -0.0462  0.0702
 6441TIP3    H143518   2.283   1.307   9.782 -0.4911 -1.4976  0.3290
 6441TIP3    H243519   2.162   1.330   9.695 -0.1526 -0.7120  0.0592
 6442TIP3   OH243520   6.140   0.699  10.712 -0.4465  0.1462 -0.1886
 6442TIP3    H143521   6.177   0.611  10.713 -0.7101  0.0315 -0.1726
 6442TIP3    H243522   6.212   0.757  10.737 -0.3375 -0.0911  0.0468
 6443TIP3   OH243523   5.094   3.639  11.483 -0.4259 -0.0527  0.1028
 6443TIP3    H143524   5.050   3.579  11.544 -0.6705 -0.7157 -0.6942
 6443TIP3    H243525   5.024   3.668  11.424 -0.0537 -0.0359 -0.3362
 6444TIP3   OH243526   0.833   2.258  10.226 -0.1363  0.0126  0.1225
 6444TIP3    H143527   0.903   2.292  10.171 -0.5578 -1.0869 -1.1528
 6444TIP3    H243528   0.753   2.280  10.178 -0.4548 -2.0228 -0.3721
 6445TIP3   OH243529   1.223   3.822  13.010  0.0018 -0.4719  0.0693
 6445TIP3    H143530   1.275   3.758  13.058  0.1571 -0.9675 -0.7407
 6445TIP3    H243531   1.140   3.777  12.991 -0.3376 -0.0344  0.4819
 6446TIP3   OH243532   4.389   0.093  11.949  0.0800  0.2332 -0.5634
 6446TIP3    H143533   4.304   0.133  11.933  0.8527  2.7430  0.9449
 6446TIP3    H243534   4.443   0.121  11.874 -0.1045 -0.4164 -0.9475
 6447TIP3   OH243535   2.176   5.535   9.950 -0.7318 -0.3107  0.3087
 6447TIP3    H143536   2.123   5.548  10.029 -0.6519  0.3683  0.2535
 6447TIP3    H243537   2.130   5.583   9.882  1.4097  2.8622  0.8671
 6448TIP3   OH243538   1.774   5.950  11.854 -0.6897  0.0637 -0.1139
 6448TIP3    H143539   1.737   5.905  11.778  1.9489 -0.0822 -1.4119
 6448TIP3    H243540   1.779   5.882  11.921  0.2824 -0.8079 -1.0247
 6449TIP3   OH243541   4.546   2.428  11.188 -0.2833  0.1608 -0.4630
 6449TIP3    H143542   4.596   2.394  11.263 -1.1253 -0.2867 -0.0898
 6449TIP3    H243543   4.551   2.358  11.122 -0.6369  0.0013 -0.3226
 6450TIP3   OH243544   4.158   2.703   9.114  0.1501  0.3907 -0.1552
 6450TIP3    H143545   4.241   2.704   9.163 -0.1670  1.6919  0.3823
 6450TIP3    H243546   4.113   2.625   9.147 -0.2403  1.4460  1.9996
 6451TIP3   OH243547   2.862   5.643   9.288 -0.2647 -0.1392 -0.1721
 6451TIP3    H143548   2.858   5.730   9.328  1.0452 -0.3019  0.3472
 6451TIP3    H243549   2.822   5.655   9.201 -0.9054  0.7671  0.2297
 6452TIP3   OH243550   0.963   2.620  11.652 -0.7805 -0.6097  0.3231
 6452TIP3    H143551   0.991   2.708  11.674 -0.8417 -0.7777  1.0958
 6452TIP3    H243552   0.926   2.628  11.563  0.5928 -0.1673 -0.2278
 6453TIP3   OH243553   5.296   5.855   9.482  0.0604 -0.5939  0.6094
 6453TIP3    H143554   5.262   5.902   9.559  0.7495 -1.7915  1.6796
 6453TIP3    H243555   5.380   5.820   9.511  0.2778 -1.1817 -0.6727
 6454TIP3   OH243556   6.170   2.779  10.178  0.1752 -0.0425  0.5069
 6454TIP3    H143557   6.206   2.864  10.152  0.8110 -0.3221  0.4452
 6454TIP3    H243558   6.075   2.789  10.169  0.0609  1.3603  2.5959
 6455TIP3   OH243559   2.728   3.692  10.610  0.0371 -0.0710  0.1245
 6455TIP3    H143560   2.758   3.611  10.570  0.9687 -0.3351  1.3198
 6455TIP3    H243561   2.633   3.681  10.618  0.0832 -0.7906 -0.2473
 6456TIP3   OH243562   3.695   4.931  10.716  0.0111  0.3977  0.2027
 6456TIP3    H143563   3.653   4.846  10.709 -0.8095  0.6942  1.4023
 6456TIP3    H243564   3.788   4.913  10.701 -0.1810 -0.6718  0.2451
 6457TIP3   OH243565   2.015   5.739   9.843 -0.0596  0.1475  0.2168
 6457TIP3    H143566   1.924   5.767   9.844  0.0000  0.3922 -0.4592
 6457TIP3    H243567   2.065   5.818   9.866  0.0667  0.4546 -1.0082
 6458TIP3   OH243568   6.665   5.972   9.888 -0.0885  0.1723 -0.3263
 6458TIP3    H143569   6.745   5.968   9.940  1.2632  1.7355 -2.1059
 6458TIP3    H243570   6.627   6.058   9.908  1.2380  1.4529 -2.8154
 6459TIP3   OH243571   0.172   1.408   9.266  0.6113 -0.0699 -0.3792
 6459TIP3    H143572   0.198   1.321   9.296  0.3070  0.4929  1.6768
 6459TIP3    H243573   0.108   1.438   9.331  0.7365  1.7107 -1.0148
 6460TIP3   OH243574   4.637   3.463  11.952 -0.0306  0.2569 -0.5435
 6460TIP3    H143575   4.662   3.395  12.015  1.3060  0.2602 -1.0306
 6460TIP3    H243576   4.580   3.521  12.001  0.5492 -0.0362  0.5212
 6461TIP3   OH243577   6.600   2.126  10.814 -0.8669  0.3737 -0.1619
 6461TIP3    H143578   6.619   2.206  10.764  2.5002  0.0021  0.2763
 6461TIP3    H243579   6.667   2.064  10.785 -2.4011 -1.7854  0.6855
 6462TIP3   OH243580   4.726   2.452   9.412  0.0346 -0.1483  0.3758
 6462TIP3    H143581   4.703   2.401   9.490 -0.5369 -0.8903 -0.2475
 6462TIP3    H243582   4.675   2.533   9.420  0.2206 -0.0852  0.9227
 6463TIP3   OH243583   2.503   0.935  12.279 -0.0425  0.3980  0.2621
 6463TIP3    H143584   2.434   0.904  12.338  0.0292 -2.3113 -0.9225
 6463TIP3    H243585   2.584   0.904  12.318  0.1061 -0.3148 -0.5870
 6464TIP3   OH243586   4.650   5.950  12.759  0.3420 -0.3267  0.4966
 6464TIP3    H143587   4.638   5.883  12.825  0.4267  0.6500  1.5217
 6464TIP3    H243588   4.745   5.949  12.742  0.1522 -1.5748 -0.7207
 6465TIP3   OH243589   2.671   6.640   9.111  0.1132 -0.0097  0.8102
 6465TIP3    H143590   2.654   6.546   9.101 -2.0540  0.2920  1.0349
 6465TIP3    H243591   2.765   6.647   9.125  0.0718 -2.3220  2.7167
 6466TIP3   OH243592   4.514   5.332  10.576 -0.0604 -0.4528  0.0527
 6466TIP3    H143593   4.519   5.325  10.480 -0.6831 -2.9836  0.1486
 6466TIP3    H243594   4.559   5.415  10.596  0.0650  0.1492 -2.4076
 6467TIP3   OH243595   0.325   3.415   9.857 -0.0146 -0.3507 -0.2962
 6467TIP3    H143596   0.261   3.452   9.796  0.6885  2.1342  0.3454
 6467TIP3    H243597   0.273   3.392   9.935 -0.3401  0.3770 -0.2893
 6468TIP3   OH243598   6.117   6.457  11.621  0.4611 -0.0022  0.9620
 6468TIP3    H143599   6.047   6.421  11.566 -1.0466  4.2651 -0.3641
 6468TIP3    H243600   6.177   6.498  11.558 -0.0382  2.9683  2.2530
 6469TIP3   OH243601   4.887   2.285  11.002 -0.0192  0.0950 -0.8227
 6469TIP3    H143602   4.933   2.358  11.043  0.7978 -1.9787  2.3471
 6469TIP3    H243603   4.945   2.210  11.015 -2.3756 -1.8072 -0.6515
 6470TIP3   OH243604   2.590   4.464  10.692  0.5859  0.3859 -0.3562
 6470TIP3    H143605   2.678   4.480  10.657  0.4051  1.7377 -0.2323
 6470TIP3    H243606   2.533   4.465  10.614  0.5918  0.2171 -0.3623
 6471TIP3   OH243607   4.938   6.673  11.324  0.2959  0.0677  0.4305
 6471TIP3    H143608   4.882   6.746  11.349  1.5924  0.5299  2.1713
 6471TIP3    H243609   4.954   6.686  11.231  0.5795  2.0813  0.7198
 6472TIP3   OH243610   0.490   4.245  11.152  0.1278  0.1492  0.1641
 6472TIP3    H143611   0.530   4.314  11.205  0.9036  1.6835 -2.2697
 6472TIP3    H243612   0.552   4.231  11.081 -1.0992 -1.4856 -0.6508
 6473TIP3   OH243613   3.909   6.437  10.895  0.3852 -0.1041 -0.3295
 6473TIP3    H143614   3.877   6.406  10.810 -2.3176  1.4862  0.0077
 6473TIP3    H243615   3.851   6.398  10.959  0.9735  0.5191  0.6051
 6474TIP3   OH243616   3.591   3.976   9.835 -0.0968  0.0388  0.0150
 6474TIP3    H143617   3.641   3.924   9.897 -0.8644  0.1324  0.7262
 6474TIP3    H243618   3.657   4.015   9.777  0.6795  0.4432  1.1432
 6475TIP3   OH243619   1.735   5.677  13.110 -0.3393  0.0559 -0.1266
 6475TIP3    H143620   1.673   5.728  13.057  0.8118  0.7513 -0.8528
 6475TIP3    H243621   1.719   5.586  13.085  0.0811  0.3618 -1.6099
 6476TIP3   OH243622   5.215   2.387  11.920 -0.4809 -0.3297 -0.5071
 6476TIP3    H143623   5.304   2.384  11.954 -0.0617  0.3074 -1.5212
 6476TIP3    H243624   5.165   2.430  11.990  0.0277 -0.5530  0.0053
 6477TIP3   OH243625   2.935   1.698   9.000 -0.3037 -0.1538  0.3791
 6477TIP3    H143626   2.988   1.777   8.999  0.6468 -0.7673  0.4234
 6477TIP3    H243627   2.976   1.641   8.935 -0.6565 -0.7940  0.7072
 6478TIP3   OH243628   5.863   6.656  10.319  0.5668  0.0141 -0.5261
 6478TIP3    H143629   5.827   6.568  10.323 -1.6306  0.8108 -1.2488
 6478TIP3    H243630   5.903   6.662  10.232  1.4713 -0.4965 -0.1645
 6479TIP3   OH243631   5.643   3.530   9.594 -0.5912 -0.1475  0.3839
 6479TIP3    H143632   5.701   3.522   9.670 -1.5520 -1.3884  1.0260
 6479TIP3    H243633   5.558   3.500   9.625 -0.9187 -1.0826 -1.2628
 6480TIP3   OH243634   2.874   5.926  11.467 -0.2788  0.0979  0.4590
 6480TIP3    H143635   2.835   5.853  11.420 -0.9466  0.4874  0.4018
 6480TIP3    H243636   2.895   5.890  11.553 -0.5336 -0.1822  0.4076
 6481TIP3   OH243637   2.062   6.660   9.380 -0.6447  0.3297 -0.7594
 6481TIP3    H143638   2.024   6.600   9.444 -0.7700  0.3864 -0.7794
 6481TIP3    H243639   2.058   6.746   9.423  2.6155 -0.1010  0.6707
 6482TIP3   OH243640   4.302   1.022  11.724 -0.0225  0.2219  0.1465
 6482TIP3    H143641   4.324   1.005  11.632  1.9253  0.9856  0.4302
 6482TIP3    H243642   4.311   0.937  11.767  3.1469  0.5470  0.3362
 6483TIP3   OH243643   2.434   2.875  10.846 -0.0764 -0.0408  0.8783
 6483TIP3    H143644   2.495   2.807  10.875  0.4305  0.3495  0.7580
 6483TIP3    H243645   2.378   2.891  10.922  0.5662  0.2403  1.3009
 6484TIP3   OH243646   6.563   5.093  10.721 -0.6435 -0.1680  0.2321
 6484TIP3    H143647   6.521   5.037  10.656 -1.4688  1.0819 -0.3465
 6484TIP3    H243648   6.604   5.032  10.783 -0.9665 -1.3855 -0.7216
 6485TIP3   OH243649   6.586   2.675  11.983  0.2672  0.3481  0.0633
 6485TIP3    H143650   6.538   2.608  12.032  1.0896 -1.2521 -1.2566
 6485TIP3    H243651   6.644   2.715  12.048  0.0465 -0.4800  0.7950
 6486TIP3   OH243652   4.645   1.332  10.465 -0.6231  0.0655 -0.4165
 6486TIP3    H143653   4.727   1.377  10.484  0.2441 -1.5239 -0.2521
 6486TIP3    H243654   4.641   1.328  10.369  0.5096 -1.5560 -0.4375
 6487TIP3   OH243655   6.532   1.697  12.023 -0.0995  0.7040 -0.2002
 6487TIP3    H143656   6.497   1.608  12.024 -1.1489  1.1074  1.1015
 6487TIP3    H243657   6.619   1.690  12.063  0.0646  0.1972 -0.6294
 6488TIP3   OH243658   3.362   6.198  11.969 -0.0106 -0.0998 -0.1847
 6488TIP3    H143659   3.360   6.137  12.042  0.0757 -0.7463 -0.7043
 6488TIP3    H243660   3.412   6.273  12.001  0.3615 -0.5425  0.2946
 6489TIP3   OH243661   1.953   6.660  10.881  0.4670  0.1471  0.1563
 6489TIP3    H143662   1.917   6.678  10.794 -1.6336 -0.3024  0.8797
 6489TIP3    H243663   1.975   6.567  10.878 -0.3170 -0.0527  0.3205
 6490TIP3   OH243664   2.501   5.106  12.121 -0.5025  0.4304  0.0999
 6490TIP3    H143665   2.491   5.044  12.194 -1.9716  1.0310  0.4505
 6490TIP3    H243666   2.492   5.051  12.043  0.2295 -0.0932  0.3734
 6491TIP3   OH243667   3.592   0.604   9.070  0.4394 -0.4117  0.2316
 6491TIP3    H143668   3.503   0.624   9.098 -0.0689 -0.7097 -1.1132
 6491TIP3    H243669   3.619   0.681   9.020  0.5234 -0.7798 -0.2925
 6492TIP3   OH243670   2.889   3.022  10.478 -0.5777 -0.0857  0.2051
 6492TIP3    H143671   2.863   3.070  10.557 -0.7313 -0.6017  0.4689
 6492TIP3    H243672   2.901   3.090  10.412 -1.6616  0.2540  0.3382
 6493TIP3   OH243673   2.292   1.230  11.416 -0.1069 -0.5479  0.0050
 6493TIP3    H143674   2.225   1.168  11.388  0.2333 -0.8360 -0.1644
 6493TIP3    H243675   2.375   1.182  11.410 -0.0035 -0.6198  1.4684
 6494TIP3   OH243676   3.439   1.222  12.357 -0.7999  0.1244  0.5580
 6494TIP3    H143677   3.509   1.176  12.405 -1.1389  0.0234  0.9613
 6494TIP3    H243678   3.405   1.157  12.296 -2.4704 -0.7822  2.3265
 6495TIP3   OH243679   0.895   4.799   9.622 -0.1317  0.1408  0.1629
 6495TIP3    H143680   0.843   4.872   9.589 -0.6297 -0.1465  0.3107
 6495TIP3    H243681   0.854   4.721   9.586  1.3898 -0.0050 -1.3575
 6496TIP3   OH243682   0.757   0.221   9.923 -0.1559 -0.1478 -0.0463
 6496TIP3    H143683   0.802   0.137   9.919  0.5741  0.2730 -2.4761
 6496TIP3    H243684   0.808   0.278   9.866 -1.4959  1.5236  0.3416
 6497TIP3   OH243685   0.941   4.009  11.037  0.0391  0.0141 -0.7507
 6497TIP3    H143686   0.946   4.088  10.985 -0.8949  1.0614  0.6798
 6497TIP3    H243687   0.865   4.022  11.094  1.7736 -0.4344  1.8387
 6498TIP3   OH243688   3.620   2.749  10.381 -0.4687 -0.0103 -0.1545
 6498TIP3    H143689   3.640   2.739  10.288 -0.0147 -0.6267  0.0051
 6498TIP3    H243690   3.646   2.666  10.421 -0.6191  0.2608  0.5300
 6499TIP3   OH243691   1.275   0.154  11.017  0.2677 -0.4893  0.4431
 6499TIP3    H143692   1.323   0.233  11.042  0.2252 -0.8048  1.5963
 6499TIP3    H243693   1.217   0.182  10.946  1.2010  0.2003 -0.0653
 6500TIP3   OH243694   1.784   2.489  11.045  0.3827  0.0281 -0.7303
 6500TIP3    H143695   1.867   2.443  11.034  0.6576  0.8529 -2.5732
 6500TIP3    H243696   1.803   2.562  11.103  1.0985  0.4841 -1.5107
 6501TIP3   OH243697   4.253   3.688  10.306  0.2499 -0.0848  0.6015
 6501TIP3    H143698   4.186   3.700  10.239 -0.0761  1.3772  1.1419
 6501TIP3    H243699   4.241   3.598  10.336 -0.7683 -0.1868 -0.0565
 6502TIP3   OH243700   0.999   6.004  10.940 -0.6513  0.0898 -0.2244
 6502TIP3    H143701   0.958   6.058  10.872 -2.7052 -0.3922  0.5613
 6502TIP3    H243702   0.974   5.914  10.917  1.1486 -0.3850 -0.4560
 6503TIP3   OH243703   3.291   2.048  10.999 -0.1134  0.4597  0.5118
 6503TIP3    H143704   3.314   2.141  10.998  0.0819  0.4129  0.5869
 6503TIP3    H243705   3.210   2.043  10.948 -1.3313  0.9676  2.3328
 6504TIP3   OH243706   6.678   4.981  10.972 -0.0902  0.0306  0.1213
 6504TIP3    H143707   6.683   4.888  10.954 -1.5622 -0.1801  0.6431
 6504TIP3    H243708   6.641   4.986  11.061  0.5157  1.1023  0.3354
 6505TIP3   OH243709   3.511   1.527  12.015 -0.1195  0.0306 -0.3031
 6505TIP3    H143710   3.550   1.443  11.991 -0.9777 -0.5681  0.3376
 6505TIP3    H243711   3.524   1.533  12.110 -0.6620  0.2966 -0.2395
 6506TIP3   OH243712   1.961   3.208  10.901 -0.1356  0.5555  0.0202
 6506TIP3    H143713   1.973   3.239  10.991 -0.7536  1.8929 -0.3365
 6506TIP3    H243714   2.020   3.133  10.894  1.1809  1.4282  1.0468
 6507TIP3   OH243715   3.815   4.760  12.145 -0.2515  0.1367  0.9893
 6507TIP3    H143716   3.773   4.674  12.154 -0.1402  0.1899  2.0629
 6507TIP3    H243717   3.838   4.786  12.234 -1.4003  1.8475  0.8450
 6508TIP3   OH243718   3.237   1.152  11.201 -0.2788  0.1239  0.1009
 6508TIP3    H143719   3.325   1.186  11.187 -0.7398  1.5333  0.3581
 6508TIP3    H243720   3.239   1.117  11.290  0.0941 -0.1268 -0.0035
 6509TIP3   OH243721   5.268   6.503  10.698 -0.4712 -0.2887  0.2205
 6509TIP3    H143722   5.194   6.501  10.759 -1.1509 -1.0368 -0.6036
 6509TIP3    H243723   5.288   6.596  10.688 -0.0730 -0.1682  1.8976
 6510TIP3   OH243724   2.309   3.950   9.975  0.0223 -0.0813  0.0624
 6510TIP3    H143725   2.266   3.985   9.897  0.6949 -4.0905 -2.3620
 6510TIP3    H243726   2.237   3.922  10.031 -0.4998 -0.2127 -0.6607
 6511TIP3   OH243727   6.376   4.551   9.681  0.3339 -0.3610 -0.1105
 6511TIP3    H143728   6.316   4.584   9.614 -0.3792 -0.7066  0.3529
 6511TIP3    H243729   6.430   4.486   9.635 -0.9917 -1.5244 -0.0879
 6512TIP3   OH243730   3.158   2.918  10.016  0.0362 -0.6856 -0.2892
 6512TIP3    H143731   3.190   2.916  10.106 -0.4590 -1.6386 -0.1245
 6512TIP3    H243732   3.151   3.011   9.995  0.4044 -0.4557  0.5634
 6513TIP3   OH243733   5.078   5.955  11.607 -0.3217 -0.4870 -0.0906
 6513TIP3    H143734   5.150   6.001  11.652  1.5356 -0.6666 -2.6802
 6513TIP3    H243735   5.067   5.874  11.656  0.3271  0.1152  1.1127
 6514TIP3   OH243736   1.281   5.385  10.070  0.2205 -0.1241  0.2141
 6514TIP3    H143737   1.319   5.413   9.987  1.3556 -1.3967  0.2725
 6514TIP3    H243738   1.189   5.369  10.050  0.3683  0.0853 -0.6791
 6515TIP3   OH243739   3.550   0.162  10.693 -0.0593  0.3833  0.0115
 6515TIP3    H143740   3.456   0.143  10.694 -0.0619 -0.0183 -2.5134
 6515TIP3    H243741   3.590   0.084  10.732 -0.7118  0.1014  0.1383
 6516TIP3   OH243742   5.336   2.542  10.337  0.0091 -0.1679 -0.3342
 6516TIP3    H143743   5.313   2.620  10.286 -1.1086 -0.8841 -0.9708
 6516TIP3    H243744   5.425   2.520  10.309  0.6228  1.2965  0.4006
 6517TIP3   OH243745   0.569   3.760  10.181  0.0870  0.1653 -0.2728
 6517TIP3    H143746   0.558   3.793  10.091 -1.1893  1.2044  0.2311
 6517TIP3    H243747   0.521   3.678  10.182 -0.8256  0.6854 -0.2724
 6518TIP3   OH243748   2.947   3.592  10.230 -0.3934  0.2693  0.3321
 6518TIP3    H143749   2.906   3.526  10.176  3.0329 -1.9738  0.1268
 6518TIP3    H243750   2.919   3.571  10.319 -0.1520 -0.8644  0.1587
 6519TIP3   OH243751   0.405   3.657   9.425 -0.0872  0.6743 -0.2718
 6519TIP3    H143752   0.469   3.597   9.387  0.8016  1.1221  0.4931
 6519TIP3    H243753   0.323   3.608   9.425  0.7465 -0.7580  0.8797
 6520TIP3   OH243754   3.078   2.513  11.432  0.0697 -0.5277  0.4095
 6520TIP3    H143755   3.019   2.489  11.503 -0.8065  1.1320  0.3032
 6520TIP3    H243756   3.034   2.586  11.388  1.3983 -0.3908 -0.7726
 6521TIP3   OH243757   0.481   4.319   9.590  0.0502  0.2282 -0.3196
 6521TIP3    H143758   0.575   4.327   9.608 -0.0462  1.7681 -0.3652
 6521TIP3    H243759   0.477   4.291   9.499  0.4618 -2.2227  0.3445
 6522TIP3   OH243760   0.608   2.300   9.660 -0.0579 -0.4082  0.2553
 6522TIP3    H143761   0.523   2.288   9.617  0.4410  0.1051 -0.9403
 6522TIP3    H243762   0.614   2.229   9.723 -1.4486 -0.3526  0.4796
 6523TIP3   OH243763   3.493   5.103  10.744  0.1912 -0.1820 -0.6944
 6523TIP3    H143764   3.568   5.046  10.729 -0.8437 -1.1779 -2.4435
 6523TIP3    H243765   3.523   5.190  10.718  0.9557 -0.4228 -0.6427
 6524TIP3   OH243766   5.385   0.670  10.779  0.0693 -0.4741 -0.4216
 6524TIP3    H143767   5.411   0.757  10.750  1.9003 -0.8635 -0.0967
 6524TIP3    H243768   5.346   0.629  10.702  0.7394  0.0630 -1.0514
 6525TIP3   OH243769   2.899   3.129  11.526  0.2095  0.0008 -0.4946
 6525TIP3    H143770   2.861   3.161  11.607 -0.7295  0.9274 -1.2743
 6525TIP3    H243771   2.970   3.070  11.554 -0.5657 -0.2703  0.9739
 6526TIP3   OH243772   3.210   5.184   9.848 -0.0269  0.5292 -0.4476
 6526TIP3    H143773   3.266   5.170   9.771  0.4128  2.3229 -0.4844
 6526TIP3    H243774   3.143   5.246   9.818 -1.0659 -0.3043  0.0707
 6527TIP3   OH243775   2.266   3.996  10.997  0.4781 -0.4561 -0.1908
 6527TIP3    H143776   2.300   4.074  11.042 -0.1519 -1.2402  1.7250
 6527TIP3    H243777   2.175   3.990  11.023  0.7637 -2.3852  0.5291
 6528TIP3   OH243778   0.968   6.410   9.995  0.3664  0.2596  0.5194
 6528TIP3    H143779   1.038   6.357   9.955 -0.1700 -0.8150  0.9763
 6528TIP3    H243780   0.998   6.425  10.085 -1.0447 -2.2803  1.4946
 6529TIP3   OH243781   0.326   1.129  12.271  0.5021 -0.0603 -0.1710
 6529TIP3    H143782   0.403   1.185  12.287  1.8971 -1.8684 -0.2583
 6529TIP3    H243783   0.296   1.154  12.183  1.7646 -0.1607 -0.6553
 6530TIP3   OH243784   2.366   2.725  11.360  0.0247  0.1559 -0.6355
 6530TIP3    H143785   2.404   2.738  11.447 -1.7888 -0.2278  0.2578
 6530TIP3    H243786   2.407   2.645  11.327  0.7601  0.3275 -0.1575
 6531TIP3   OH243787   4.926   1.626   9.559 -0.1802  0.4670 -0.3610
 6531TIP3    H143788   4.900   1.693   9.495  2.3607  0.4122 -1.5488
 6531TIP3    H243789   4.938   1.547   9.507 -1.1633 -0.4409  0.7281
 6532TIP3   OH243790   4.995   1.968  10.146  0.3518 -0.3392 -0.4023
 6532TIP3    H143791   4.953   1.974  10.231  0.2682 -1.2130 -0.3731
 6532TIP3    H243792   4.996   2.058  10.113  0.6623  0.0545  0.6477
 6533TIP3   OH243793   6.138   1.838   9.889  0.3556  0.1369  0.1347
 6533TIP3    H143794   6.042   1.840   9.889  0.3620  0.8442 -0.2232
 6533TIP3    H243795   6.161   1.761   9.837 -0.0182  0.4937 -0.5704
 6534TIP3   OH243796   2.849   2.876  11.670 -0.1971  0.8090 -0.3915
 6534TIP3    H143797   2.778   2.819  11.638 -0.4123  0.5581  0.4936
 6534TIP3    H243798   2.929   2.825  11.655 -0.4259  0.0871  0.7651
 6535TIP3   OH243799   2.662   2.568  12.059 -0.1023  0.4688  0.4033
 6535TIP3    H143800   2.605   2.641  12.038 -0.3476  0.9424  2.5609
 6535TIP3    H243801   2.673   2.571  12.154 -1.6559 -3.3891  0.8928
 6536TIP3   OH243802   5.463   0.748   9.205  0.0646 -0.0857  0.2710
 6536TIP3    H143803   5.403   0.781   9.138 -0.2292 -0.4322  0.3640
 6536TIP3    H243804   5.442   0.798   9.284  0.3717  0.2816  0.1237
 6537TIP3   OH243805   4.442   6.482  10.240  0.2004  0.1920  0.3894
 6537TIP3    H143806   4.483   6.478  10.154 -0.0156  1.6720  0.1983
 6537TIP3    H243807   4.349   6.493  10.222 -0.1252 -1.5111  0.8338
 6538TIP3   OH243808   4.213   6.609   9.660 -0.4461 -0.7682 -0.7379
 6538TIP3    H143809   4.290   6.606   9.604 -1.0486 -0.7742 -1.5853
 6538TIP3    H243810   4.161   6.533   9.633 -1.2396 -0.1793 -0.9057
 6539TIP3   OH243811   4.172   6.551  10.248  0.1761 -0.2932  0.0616
 6539TIP3    H143812   4.143   6.636  10.216 -0.7278 -0.2912  0.8516
 6539TIP3    H243813   4.092   6.508  10.277  0.3525 -2.1016 -1.8699
 6540TIP3   OH243814   4.704   2.962  10.572  0.1767  0.1043  0.4839
 6540TIP3    H143815   4.709   3.052  10.539 -0.1851  0.4188  1.2668
 6540TIP3    H243816   4.753   2.911  10.507 -1.6552  0.4631 -1.3009
 6541TIP3   OH243817   2.414   2.015  10.551  0.3217 -0.0055  0.0457
 6541TIP3    H143818   2.507   2.029  10.535  0.4740 -0.5869  0.3521
 6541TIP3    H243819   2.404   2.031  10.645  0.3492 -1.0767  0.2433
 6542TIP3   OH243820   1.428   4.692  12.122  0.3375 -0.3460  0.0718
 6542TIP3    H143821   1.365   4.758  12.091  1.6450  0.9017 -0.0613
 6542TIP3    H243822   1.507   4.743  12.141  1.0117 -1.7409  1.1180
 6543TIP3   OH243823   0.344   5.869   9.733 -0.5986 -0.0601  0.3356
 6543TIP3    H143824   0.274   5.925   9.699 -0.8136 -1.6223 -1.9951
 6543TIP3    H243825   0.417   5.882   9.672  0.8695  0.7613  2.1443
 6544TIP3   OH243826   0.525   2.453  10.106  0.1895 -0.0766 -0.0963
 6544TIP3    H143827   0.482   2.429  10.024  0.2026 -0.8860  0.1264
 6544TIP3    H243828   0.464   2.515  10.147 -0.3250 -0.4946 -0.2148
 6545TIP3   OH243829   0.883   2.364  11.747  0.0792  0.2092 -0.2599
 6545TIP3    H143830   0.933   2.446  11.749 -0.0446  0.2764  0.4209
 6545TIP3    H243831   0.792   2.393  11.734 -0.0637  0.2432  0.7064
 6546TIP3   OH243832   2.478   4.122  10.368 -0.0402 -0.0331  0.5148
 6546TIP3    H143833   2.388   4.102  10.342 -0.8436  3.0425  0.5473
 6546TIP3    H243834   2.523   4.145  10.287  0.4088 -0.4726  0.6319
 6547TIP3   OH243835   1.809   3.550  12.288 -0.2220  0.4507 -0.0050
 6547TIP3    H143836   1.819   3.464  12.249  1.1395  1.1010 -1.1693
 6547TIP3    H243837   1.718   3.552  12.318 -0.0898 -1.6219  0.7071
 6548TIP3   OH243838   4.290   3.430  11.674  0.3201  0.2209 -0.0373
 6548TIP3    H143839   4.345   3.383  11.612 -0.8822 -1.4985  0.1256
 6548TIP3    H243840   4.221   3.367  11.698 -1.0166  1.8665  0.6815
 6549TIP3   OH243841   4.846   5.196  10.052 -0.1970  0.4842  0.0277
 6549TIP3    H143842   4.897   5.177   9.972 -0.6142  0.7466 -0.3065
 6549TIP3    H243843   4.755   5.193  10.023 -0.3666  0.1289  0.6026
 6550TIP3   OH243844   2.246   6.503  10.204  0.0896  0.1585  0.1013
 6550TIP3    H143845   2.324   6.471  10.248  1.1468 -0.4308 -2.0673
 6550TIP3    H243846   2.225   6.435  10.140 -0.4835  1.5996 -1.3082
 6551TIP3   OH243847   5.064   4.173   9.277  0.9110 -0.7371  0.2174
 6551TIP3    H143848   5.143   4.206   9.321  1.0344 -2.2626  1.2277
 6551TIP3    H243849   5.053   4.231   9.202  2.5262  0.0203  0.5053
 6552TIP3   OH243850   3.269   1.845   9.428 -0.4685 -0.0862  0.5962
 6552TIP3    H143851   3.179   1.813   9.419 -0.8564  0.8599  0.9737
 6552TIP3    H243852   3.293   1.825   9.518 -0.2518 -0.4472  0.4607
 6553TIP3   OH243853   3.859   3.097   9.880  0.4012 -0.4296  0.2111
 6553TIP3    H143854   3.882   3.154   9.953 -0.2793  2.0069 -1.3458
 6553TIP3    H243855   3.769   3.122   9.858  0.2037 -1.8931 -0.7614
 6554TIP3   OH243856   5.308   5.488  11.187  0.1138 -0.2682  0.1329
 6554TIP3    H143857   5.395   5.509  11.153  0.5973  0.2812  1.5937
 6554TIP3    H243858   5.326   5.430  11.262 -0.7511  0.1289  0.6549
 6555TIP3   OH243859   5.641   3.352  10.488 -0.6658 -0.8547 -0.1515
 6555TIP3    H143860   5.707   3.323  10.552 -0.4188 -0.1623 -0.0833
 6555TIP3    H243861   5.617   3.440  10.517  2.1329  1.0682 -2.9989
 6556TIP3   OH243862   1.500   5.412  10.527  0.0182 -0.0356 -0.4799
 6556TIP3    H143863   1.540   5.375  10.606  0.1108 -0.0288 -0.5234
 6556TIP3    H243864   1.470   5.337  10.477  1.4444 -0.1306 -1.2298
 6557TIP3   OH243865   1.090   6.267  10.764  0.1803 -0.3929  0.2141
 6557TIP3    H143866   1.109   6.177  10.736  0.8370 -0.0533 -0.4665
 6557TIP3    H243867   1.145   6.280  10.841  1.2139 -0.1009 -0.5468
 6558TIP3   OH243868   5.363   2.172  11.071 -0.2210 -0.5192 -0.0923
 6558TIP3    H143869   5.402   2.128  11.147 -0.5081  0.2269  0.4938
 6558TIP3    H243870   5.387   2.116  10.996  2.8185  0.3490  0.0892
 6559TIP3   OH243871   0.862   6.163  10.011  0.7816 -0.1271 -0.5531
 6559TIP3    H143872   0.936   6.114   9.975  0.6310  0.1562 -1.2591
 6559TIP3    H243873   0.886   6.254  10.000  0.1627 -0.0280 -1.1400
 6560TIP3   OH243874   4.077   2.856  11.410  0.1178  0.5538 -0.2939
 6560TIP3    H143875   4.097   2.949  11.395 -0.2952  0.6792 -0.1021
 6560TIP3    H243876   4.151   2.823  11.461  1.1457  0.3225 -1.8656
 6561TIP3   OH243877   6.681   4.444  11.482  0.0810  0.1747  0.1532
 6561TIP3    H143878   6.664   4.533  11.453  0.1321  0.4914  1.0895
 6561TIP3    H243879   6.661   4.390  11.405  2.7578  1.1713 -1.4125
 6562TIP3   OH243880   5.668   4.467  11.541 -0.2510  0.0066 -0.3248
 6562TIP3    H143881   5.606   4.523  11.588  0.8624  1.7968 -0.8749
 6562TIP3    H243882   5.657   4.380  11.580 -2.1997  0.5371  0.4201
 6563TIP3   OH243883   0.064   0.246  11.753  0.2026  0.3429 -0.1362
 6563TIP3    H143884   0.111   0.307  11.697 -0.1656 -1.1110 -2.1364
 6563TIP3    H243885  -0.017   0.292  11.775  1.2840  1.7655  1.0312
 6564TIP3   OH243886   2.892   6.420  11.492  0.1334  0.0650 -0.3222
 6564TIP3    H143887   2.960   6.421  11.424 -1.6177 -0.8954 -2.2109
 6564TIP3    H243888   2.866   6.328  11.497  0.0323  0.1630  1.5217
 6565TIP3   OH243889   2.514   3.050  11.587  0.4904 -0.4175 -0.0188
 6565TIP3    H143890   2.478   2.975  11.635  0.5287 -0.1191  0.4784
 6565TIP3    H243891   2.500   3.125  11.645 -0.2594  0.0988 -0.8440
 6566TIP3   OH243892   2.218   5.547  10.976  0.0556  0.3543 -0.0110
 6566TIP3    H143893   2.221   5.564  11.071  0.6276  1.2369 -0.1705
 6566TIP3    H243894   2.304   5.510  10.956 -0.3104 -0.4778 -0.0845
 6567TIP3   OH243895   4.116   0.377  10.367 -0.5406 -0.3368  0.2358
 6567TIP3    H143896   4.173   0.420  10.431 -1.3942  1.4216 -0.1377
 6567TIP3    H243897   4.147   0.410  10.282 -1.2643 -0.4023 -0.0576
 6568TIP3   OH243898   3.748   3.597   9.468 -0.3115 -0.4732  0.0545
 6568TIP3    H143899   3.663   3.592   9.512 -0.2220 -2.4820  0.0882
 6568TIP3    H243900   3.751   3.520   9.412  2.2413 -1.5867  1.5293
 6569TIP3   OH243901   2.052   1.246  10.177  0.4465 -0.3937 -0.2620
 6569TIP3    H143902   2.120   1.312  10.161 -0.5448  0.9772  0.9494
 6569TIP3    H243903   1.972   1.296  10.188 -0.8051 -1.9761 -1.6156
 6570TIP3   OH243904   0.890   5.577   9.822 -0.4954 -0.1084  0.0858
 6570TIP3    H143905   0.836   5.637   9.874 -0.3165 -0.0213  0.1741
 6570TIP3    H243906   0.980   5.599   9.846 -0.4387 -0.7704  0.5216
 6571TIP3   OH243907   3.706   6.214  10.627 -0.5149  0.1133  0.5173
 6571TIP3    H143908   3.703   6.272  10.551  1.3734  0.0471  0.3601
 6571TIP3    H243909   3.704   6.126  10.589  1.2206  0.0743  0.4681
 6572TIP3   OH243910   6.061   5.538  12.145 -0.2838  0.4864 -0.0850
 6572TIP3    H143911   6.032   5.522  12.056  0.9292 -0.9028 -0.2787
 6572TIP3    H243912   6.132   5.602  12.136  0.8283 -0.7390 -0.3138
 6573TIP3   OH243913   1.298   3.878  11.730  0.2510  0.3681  0.5383
 6573TIP3    H143914   1.389   3.856  11.752  0.4762  1.0620  0.3171
 6573TIP3    H243915   1.298   3.973  11.721 -0.7277  0.4874  1.5646
 6574TIP3   OH243916   1.598   4.582   9.554 -0.7308 -0.1351  0.1909
 6574TIP3    H143917   1.684   4.549   9.528 -1.4900 -0.2556 -2.5086
 6574TIP3    H243918   1.569   4.522   9.623  0.4452 -1.4267 -0.3899
 6575TIP3   OH243919   3.017   4.042  11.282 -0.4404  0.2823 -0.4890
 6575TIP3    H143920   2.969   4.102  11.225 -0.3950 -0.5567 -1.4316
 6575TIP3    H243921   3.092   4.094  11.312 -1.5113  1.3736  0.4341
 6576TIP3   OH243922   2.528   1.431  11.129 -0.2197  0.2751  0.0625
 6576TIP3    H143923   2.602   1.436  11.068 -1.6593 -0.7841 -1.8764
 6576TIP3    H243924   2.512   1.337  11.139  0.0215  0.4037  2.2267
 6577TIP3   OH243925   3.974   0.627   9.633  0.3352  0.3285  0.2705
 6577TIP3    H143926   3.969   0.538   9.598 -0.7604  0.9002 -1.1455
 6577TIP3    H243927   3.882   0.652   9.645  0.6500  0.6698  2.3369
 6578TIP3   OH243928   2.175   1.094  12.928  0.1913 -0.6463  0.3164
 6578TIP3    H143929   2.213   1.096  13.016  1.6628 -0.4847 -0.2956
 6578TIP3    H243930   2.236   1.146  12.875 -1.5550  0.7008 -0.4804
 6579TIP3   OH243931   2.306   0.363  10.549 -0.8660 -0.4168 -0.3922
 6579TIP3    H143932   2.368   0.393  10.482 -0.1167 -0.4056  0.2823
 6579TIP3    H243933   2.221   0.366  10.507 -0.4107 -0.3569 -1.3263
 6580TIP3   OH243934   2.700   5.645   9.519  0.1714 -0.4060  0.5313
 6580TIP3    H143935   2.765   5.631   9.450 -2.1762  0.0836 -1.9508
 6580TIP3    H243936   2.668   5.557   9.541 -0.2745 -0.4563 -0.2922
 6581TIP3   OH243937   1.474   5.473  12.137  0.4998  0.1334 -0.3253
 6581TIP3    H143938   1.385   5.500  12.160  0.7901  0.2514  0.6881
 6581TIP3    H243939   1.499   5.411  12.205  0.8660 -0.6023 -1.1159
 6582TIP3   OH243940   0.220   0.997  10.738  0.5099  0.1205 -0.4844
 6582TIP3    H143941   0.275   0.983  10.660  0.8567 -0.7096 -0.0991
 6582TIP3    H243942   0.237   0.921  10.794 -1.3945 -0.4051 -0.5447
 6583TIP3   OH243943   2.892   1.341   9.713  0.1510  0.0330  0.0173
 6583TIP3    H143944   2.844   1.406   9.662  0.9537  0.7266  0.1261
 6583TIP3    H243945   2.931   1.391   9.785 -1.2626 -0.9757  1.5563
 6584TIP3   OH243946   1.458   4.188  12.214  0.1077 -0.4725  0.2019
 6584TIP3    H143947   1.429   4.187  12.305 -0.8464 -0.0895 -0.0838
 6584TIP3    H243948   1.376   4.187  12.163  0.6285 -0.8262 -0.6482
 6585TIP3   OH243949   3.488   6.420  12.091  0.5701 -0.4407 -0.0694
 6585TIP3    H143950   3.583   6.414  12.103  0.4971  1.5695  2.3249
 6585TIP3    H243951   3.477   6.480  12.018  1.1660  0.3355  0.4670
 6586TIP3   OH243952   0.434   0.102  11.007  0.1853  0.3115 -0.2315
 6586TIP3    H143953   0.437   0.147  11.091 -3.3012 -0.4572  0.4368
 6586TIP3    H243954   0.492   0.026  11.019  1.4653  1.3857  0.6515
 6587TIP3   OH243955   2.980   2.674  10.909 -0.1070  0.1068  0.5422
 6587TIP3    H143956   2.949   2.733  10.977 -1.6977 -0.0976  0.0528
 6587TIP3    H243957   2.976   2.727  10.829 -0.3604 -0.2933  0.2884
 6588TIP3   OH243958   5.620   6.504  10.704  0.2710 -0.0445  0.1994
 6588TIP3    H143959   5.687   6.572  10.693  0.5368 -0.2197  0.6899
 6588TIP3    H243960   5.550   6.529  10.644  1.4538 -0.7441 -1.5516
 6589TIP3   OH243961   2.612   4.280  12.324  0.5383 -0.8361  0.1551
 6589TIP3    H143962   2.696   4.324  12.313 -0.5168  1.3877  0.3647
 6589TIP3    H243963   2.567   4.291  12.240  0.3728 -1.8639  0.0931
 6590TIP3   OH243964   4.653   5.494   9.096  0.0419 -0.0966 -0.0087
 6590TIP3    H143965   4.651   5.541   9.013 -1.3967 -1.0161 -0.5378
 6590TIP3    H243966   4.698   5.553   9.156 -0.7231  1.4714 -0.9168
 6591TIP3   OH243967   2.632   2.352  10.715 -0.3167 -0.5765  0.0286
 6591TIP3    H143968   2.647   2.258  10.706  0.7456 -0.3470 -0.7663
 6591TIP3    H243969   2.662   2.390  10.632  0.0068  0.5431  0.6323
 6592TIP3   OH243970   2.156   1.469   9.060 -0.4196  0.1206 -0.0985
 6592TIP3    H143971   2.137   1.385   9.018  0.6009  0.2271 -0.8119
 6592TIP3    H243972   2.094   1.531   9.019  0.3084  0.1450 -1.2004
 6593TIP3   OH243973   5.116   2.971  11.368  0.4942  0.5578  0.5847
 6593TIP3    H143974   5.204   2.935  11.370  0.3348  0.1425  0.3885
 6593TIP3    H243975   5.126   3.063  11.392  0.8973  0.3497  1.2074
 6594TIP3   OH243976   6.660   1.551   9.786 -0.4293  0.1536  0.8268
 6594TIP3    H143977   6.635   1.483   9.724  0.2317  0.2004  0.4916
 6594TIP3    H243978   6.633   1.518   9.871  0.8703 -1.0353  0.8089
 6595TIP3   OH243979   5.063   6.326  11.471  0.1178  0.2082  0.2243
 6595TIP3    H143980   5.109   6.304  11.391  0.1429 -0.1121  0.3239
 6595TIP3    H243981   4.975   6.351  11.443 -0.5190 -1.8640  0.2439
 6596TIP3   OH243982   2.767   5.745   9.763  0.0371 -0.4298 -0.0066
 6596TIP3    H143983   2.756   5.704   9.678 -1.1945  0.0655 -0.1137
 6596TIP3    H243984   2.712   5.823   9.759  0.0826 -0.3181  1.1801
 6597TIP3   OH243985   5.046   5.437  11.440  0.3942  0.4228 -0.7312
 6597TIP3    H143986   4.998   5.375  11.495 -0.2144  1.5155  0.0210
 6597TIP3    H243987   5.026   5.411  11.350  0.5832 -0.7728 -0.4474
 6598TIP3   OH243988   5.798   1.640  10.076  0.2205  0.2661  0.3407
 6598TIP3    H143989   5.825   1.689  10.153 -0.4061 -0.1690  0.8557
 6598TIP3    H243990   5.783   1.706  10.009  0.4199  0.6821  0.7034
 6599TIP3   OH243991   2.551   0.594   9.717 -0.0940  0.1805 -0.0226
 6599TIP3    H143992   2.530   0.521   9.659  0.2431 -0.6715  0.9068
 6599TIP3    H243993   2.535   0.560   9.805 -1.2592  1.6547  0.3895
 6600TIP3   OH243994   3.290   0.264   9.529  0.1270 -0.1932  0.1736
 6600TIP3    H143995   3.358   0.219   9.580  0.0894  0.1484  0.5303
 6600TIP3    H243996   3.208   0.231   9.567  0.0732 -1.2295 -0.7976
 6601TIP3   OH243997   5.671   3.053  11.195 -0.1324  0.1928  0.2432
 6601TIP3    H143998   5.582   3.072  11.228 -0.3279  1.7938 -1.0907
 6601TIP3    H243999   5.657   3.022  11.106  0.5964 -0.6303  0.4132
 6602TIP3   OH244000   5.516   0.135  12.593  0.2971  0.2351 -0.2380
 6602TIP3    H144001   5.550   0.128  12.682 -1.3278 -2.3205  0.2958
 6602TIP3    H244002   5.569   0.072  12.542 -1.3516 -1.3677 -0.0935
 6603TIP3   OH244003   1.905   1.235  10.688  0.6492  0.6082  1.4453
 6603TIP3    H144004   1.886   1.325  10.716 -1.4610  0.0296  2.0338
 6603TIP3    H244005   1.911   1.186  10.770 -0.1706 -0.1212  1.0818
 6604TIP3   OH244006   3.378   6.617  11.109 -0.1652  0.0389  0.6903
 6604TIP3    H144007   3.318   6.683  11.074 -0.8608 -1.7811 -1.8548
 6604TIP3    H244008   3.460   6.664  11.123 -0.3740  1.3327 -1.8413
 6605TIP3   OH244009   2.339   5.115  11.783 -0.1028  0.4090 -0.2665
 6605TIP3    H144010   2.255   5.161  11.795 -0.3426 -0.0867 -0.0425
 6605TIP3    H244011   2.351   5.066  11.864 -0.4226 -0.8564 -0.9608
 6606TIP3   OH244012   2.897   5.435  10.749 -0.7195  0.7192 -0.3227
 6606TIP3    H144013   2.877   5.343  10.733 -1.3572  0.9685 -0.9951
 6606TIP3    H244014   2.860   5.454  10.836  1.8865 -0.3798  1.1521
 6607TIP3   OH244015   0.841   1.483  11.206 -0.1783 -0.1581  0.4423
 6607TIP3    H144016   0.761   1.503  11.157  0.5935 -1.0204 -1.2357
 6607TIP3    H244017   0.908   1.539  11.167  0.6186 -1.4186 -0.0515
 6608TIP3   OH244018   3.454   1.454  11.567 -0.2031 -0.0953 -0.0572
 6608TIP3    H144019   3.507   1.464  11.646  0.5964 -0.3485 -0.5546
 6608TIP3    H244020   3.414   1.367  11.576 -1.4869  0.5566  0.8685
 6609TIP3   OH244021   3.274   0.455  12.104  0.4515 -0.3076 -0.1352
 6609TIP3    H144022   3.301   0.404  12.027 -0.0614 -0.7399 -0.0320
 6609TIP3    H244023   3.299   0.545  12.082  1.4009 -0.5937 -0.2990
 6610TIP3   OH244024   5.268   1.702  20.212  0.0692 -0.2003 -0.3677
 6610TIP3    H144025   5.229   1.701  20.125  1.4476  0.6797 -1.0307
 6610TIP3    H244026   5.207   1.652  20.267 -1.2766  0.0152 -1.6274
 6611TIP3   OH244027   0.279   6.595  12.589  0.2041  0.3883 -0.1921
 6611TIP3    H144028   0.340   6.551  12.529  1.4868 -0.6039  1.7596
 6611TIP3    H244029   0.217   6.527  12.615 -0.1294  0.7270 -0.0941
 6612TIP3   OH244030   0.345   1.826  11.257  0.4984 -0.2186 -0.6264
 6612TIP3    H144031   0.307   1.877  11.185  1.5888 -0.3051 -1.2891
 6612TIP3    H244032   0.295   1.852  11.334 -0.4154  0.1992 -1.3400
 6613TIP3   OH244033   3.393   0.690  11.013 -0.1924  0.3651  0.3108
 6613TIP3    H144034   3.306   0.731  11.010 -1.0212 -1.3236 -0.1233
 6613TIP3    H244035   3.433   0.725  11.093 -0.8746  1.8804  0.0361
 6614TIP3   OH244036   1.445   5.833  10.936  0.3808  0.0885 -0.0789
 6614TIP3    H144037   1.482   5.758  10.889  0.2876 -0.5433  0.8113
 6614TIP3    H244038   1.520   5.881  10.970  0.4530  0.6731 -1.0546
 6615TIP3   OH244039   3.137   4.694  10.488  0.2096  0.0057 -0.4455
 6615TIP3    H144040   3.110   4.675  10.398  1.0298 -0.2515 -0.6425
 6615TIP3    H244041   3.225   4.657  10.496 -0.0620 -0.4664  0.6339
 6616TIP3   OH244042   3.278   0.921  12.924 -0.5172 -0.4426 -0.2091
 6616TIP3    H144043   3.212   0.858  12.895  0.4827 -2.5271  1.7580
 6616TIP3    H244044   3.229   1.002  12.937 -1.9939 -0.9518 -2.0840
 6617TIP3   OH244045   5.539   5.998  12.582 -0.0295  0.0181  0.0582
 6617TIP3    H144046   5.547   5.903  12.597  1.9017 -0.2685 -2.1717
 6617TIP3    H244047   5.453   6.008  12.540  0.1620 -0.9083 -0.5943
 6618TIP3   OH244048   6.350   2.732  10.673  0.1415  0.9853  0.1031
 6618TIP3    H144049   6.383   2.815  10.639 -1.4403  1.9444  0.7932
 6618TIP3    H244050   6.364   2.670  10.602 -0.9645  2.4187 -1.4340
 6619TIP3   OH244051   4.372   0.903  10.694 -0.2255  0.4605 -0.0477
 6619TIP3    H144052   4.409   0.980  10.738 -1.3277  1.8253 -1.3746
 6619TIP3    H244053   4.410   0.906  10.606 -2.4351  1.2110 -1.0512
 6620TIP3   OH244054   0.172   5.498  12.333 -0.2745 -0.1294 -0.0228
 6620TIP3    H144055   0.113   5.476  12.406  0.1776 -1.0974  0.0738
 6620TIP3    H244056   0.260   5.492  12.371 -0.0931  2.5806  0.1792
 6621TIP3   OH244057   4.009   0.516  11.002  0.4662 -0.2878  0.6341
 6621TIP3    H144058   4.049   0.443  11.050  1.4324  0.0119  0.3147
 6621TIP3    H244059   4.066   0.528  10.926 -1.1520 -0.9086 -0.7528
 6622TIP3   OH244060   3.672   1.222  11.322  0.0910 -0.2915  0.6595
 6622TIP3    H144061   3.678   1.317  11.333 -1.0618 -0.2408  1.0411
 6622TIP3    H244062   3.596   1.209  11.265 -0.5234 -1.0293  1.6154
 6623TIP3   OH244063   0.243   0.418   9.534 -0.1090 -0.0649  0.1750
 6623TIP3    H144064   0.280   0.430   9.447  1.1021  0.4197  0.7411
 6623TIP3    H244065   0.163   0.472   9.533  0.8224  1.3549 -0.0761
 6624TIP3   OH244066   2.786   3.395  10.082 -0.2735 -0.0172 -0.2533
 6624TIP3    H144067   2.745   3.466  10.032 -1.0619  0.1811  0.6484
 6624TIP3    H244068   2.790   3.322  10.022 -1.4113  0.1481 -0.5506
 6625TIP3   OH244069   1.233   4.879  12.057  0.2172 -0.4324 -0.1185
 6625TIP3    H144070   1.180   4.851  11.982  0.3445 -0.1165 -0.3309
 6625TIP3    H244071   1.170   4.887  12.128 -0.3134  1.3634 -0.7249
 6626TIP3   OH244072   0.054   0.254  10.222 -0.5575  0.1129 -0.0053
 6626TIP3    H144073   0.055   0.202  10.141  0.4253  0.5149 -0.2644
 6626TIP3    H244074   0.105   0.332  10.201 -0.1518  0.1502  1.0498
 6627TIP3   OH244075   5.666   5.852  10.391  0.4937  0.7622  0.2250
 6627TIP3    H144076   5.727   5.844  10.318  1.0965  0.0535  0.7918
 6627TIP3    H244077   5.581   5.866  10.350  0.8377  0.4792 -0.6029
 6628TIP3   OH244078   0.408   5.529  11.780 -0.2537  0.2018 -0.1133
 6628TIP3    H144079   0.382   5.515  11.689 -0.3194  2.8174 -0.5844
 6628TIP3    H244080   0.357   5.465  11.830  0.3716 -1.8370 -1.9237
 6629TIP3   OH244081   0.574   6.301  10.571  0.1928 -0.0700 -0.0210
 6629TIP3    H144082   0.531   6.250  10.503  0.4356 -0.6155  0.2342
 6629TIP3    H244083   0.638   6.354  10.524  0.1431 -0.2130 -0.2504
 6630TIP3   OH244084   1.477   5.786  10.187  0.1813  0.1761  0.0867
 6630TIP3    H144085   1.458   5.729  10.112  1.0791  0.4393 -0.3481
 6630TIP3    H244086   1.418   5.754  10.255 -1.4514  0.6288 -1.0329
 6631TIP3   OH244087   5.823   2.582   9.889  0.7297 -0.4533  0.1794
 6631TIP3    H144088   5.843   2.572   9.982  2.6736 -1.0523 -0.2668
 6631TIP3    H244089   5.850   2.499   9.849 -1.7260 -0.9146 -0.7134
 6632TIP3   OH244090   3.513   5.894  10.323  0.8081  0.1996  0.2397
 6632TIP3    H144091   3.542   5.856  10.240  1.5623  0.2032  0.4891
 6632TIP3    H244092   3.427   5.855  10.339  1.0918 -0.5697 -0.0509
 6633TIP3   OH244093   1.636   2.102  10.327  0.0511 -0.1120  0.2463
 6633TIP3    H144094   1.551   2.127  10.363  1.0576 -0.2040  2.8411
 6633TIP3    H244095   1.648   2.011  10.354  1.7350  0.4368  1.5150
 6634TIP3   OH244096   5.349   1.140  12.187  0.0854 -0.2847 -0.5039
 6634TIP3    H144097   5.388   1.158  12.272  1.5446  0.0153 -1.2046
 6634TIP3    H244098   5.323   1.226  12.153 -0.3520 -0.3865 -0.4352
 6635TIP3   OH244099   2.836   1.445   9.417  0.4451 -0.2696  0.2078
 6635TIP3    H144100   2.770   1.427   9.484  0.4828 -1.3969 -0.0472
 6635TIP3    H244101   2.853   1.539   9.425 -1.1219  0.0271  0.3401
 6636TIP3   OH244102   0.726   4.234  10.292 -0.3734 -0.2010  0.3031
 6636TIP3    H144103   0.760   4.283  10.216  1.6826 -0.4372  0.9901
 6636TIP3    H244104   0.734   4.142  10.265 -0.8552 -0.2553  0.3428
 6637TIP3   OH244105   3.725   1.530  11.293  0.2793  0.6266  0.4115
 6637TIP3    H144106   3.752   1.549  11.383  1.6712  0.3513  0.0831
 6637TIP3    H244107   3.690   1.613  11.260 -0.4467  0.6711  1.2622
 6638TIP3   OH244108   5.615   6.425   9.416  0.3039 -0.0393 -0.3562
 6638TIP3    H144109   5.549   6.494   9.406 -0.7751 -1.1673 -1.3602
 6638TIP3    H244110   5.662   6.426   9.332  0.0673 -0.7301 -0.5003
 6639TIP3   OH244111   1.345   0.383  11.934  0.8314 -0.6018 -0.2413
 6639TIP3    H144112   1.360   0.476  11.915 -0.9714 -0.3604 -0.6036
 6639TIP3    H244113   1.399   0.337  11.869  1.6061  0.1766 -0.1730
 6640TIP3   OH244114   2.053   2.018  11.245 -0.4644 -0.1316  0.1439
 6640TIP3    H144115   1.983   2.075  11.277 -1.2580 -0.7271 -0.5051
 6640TIP3    H244116   2.089   1.979  11.325 -1.1239 -0.1029  0.4666
 6641TIP3   OH244117   2.343   1.268  11.934  0.0429  0.1021  0.3257
 6641TIP3    H144118   2.350   1.174  11.918 -2.5405  0.0853 -1.3078
 6641TIP3    H244119   2.432   1.296  11.956  0.7695 -2.8104  1.6232
 6642TIP3   OH244120   2.585   2.122   9.623  0.2879  0.1888 -0.1078
 6642TIP3    H144121   2.604   2.058   9.691  0.6743  1.5571  1.1225
 6642TIP3    H244122   2.546   2.071   9.552 -0.5651 -1.2255  1.3181
 6643TIP3   OH244123   0.358   3.738  10.695  0.4747 -0.1033  0.5354
 6643TIP3    H144124   0.442   3.695  10.713 -0.3695 -1.3332  1.6992
 6643TIP3    H244125   0.336   3.710  10.606  3.8606  4.6663 -2.3023
 6644TIP3   OH244126   3.209   5.819  10.328  0.7990 -0.0319 -0.4100
 6644TIP3    H144127   3.132   5.762  10.332  0.8357 -0.1527 -1.2555
 6644TIP3    H244128   3.179   5.897  10.281  0.6702  0.8041  0.9729
 6645TIP3   OH244129   2.497   3.297   9.817 -0.1829 -0.1655  0.0590
 6645TIP3    H144130   2.546   3.359   9.870  1.5519 -0.3466 -1.2424
 6645TIP3    H244131   2.488   3.340   9.732 -0.0810 -1.1507 -0.4663
 6646TIP3   OH244132   0.534   2.709  12.175  0.2728  0.1068 -0.0153
 6646TIP3    H144133   0.596   2.651  12.129 -0.8549 -1.1325 -0.0500
 6646TIP3    H244134   0.486   2.650  12.233  0.2238  1.3142  1.1942
 6647TIP3   OH244135   6.546   5.373  10.447  0.2476  0.1627 -0.8625
 6647TIP3    H144136   6.534   5.419  10.530  1.0315  1.9407 -1.6898
 6647TIP3    H244137   6.460   5.337  10.427 -0.2890  0.9082  0.0184
 6648TIP3   OH244138   3.856   6.708   9.428  0.2344 -0.2387 -0.6764
 6648TIP3    H144139   3.776   6.741   9.387 -0.0193 -0.0344 -0.0268
 6648TIP3    H244140   3.927   6.749   9.378 -0.0563 -0.7916 -1.5551
 6649TIP3   OH244141   3.805   1.578  11.556 -0.3258  0.3585  0.1905
 6649TIP3    H144142   3.746   1.571  11.631  0.7457 -1.8484  0.9106
 6649TIP3    H244143   3.885   1.616  11.592 -1.0279  2.8150 -0.6672
 6650TIP3   OH244144   4.923   0.257  11.806  0.5974 -0.0518 -0.3483
 6650TIP3    H144145   5.016   0.252  11.787  0.6062 -1.2361 -0.0776
 6650TIP3    H244146   4.881   0.213  11.733  0.4373 -1.8061  0.7453
 6651TIP3   OH244147   2.932   6.706   9.538 -0.5918  1.0724 -0.2181
 6651TIP3    H144148   2.969   6.792   9.519 -0.1449  1.1972  1.1054
 6651TIP3    H244149   2.865   6.723   9.604  0.2767  0.3025  0.9065
 6652TIP3   OH244150   2.780   4.710  12.040 -0.4606  0.3617 -0.0814
 6652TIP3    H144151   2.837   4.645  12.000 -0.4401  0.6121 -0.4686
 6652TIP3    H244152   2.733   4.662  12.108  1.4080  0.5283  1.3909
 6653TIP3   OH244153   3.292   5.254  10.096  0.1055  0.3198 -0.4738
 6653TIP3    H144154   3.205   5.243  10.135 -0.1367  0.7525 -0.8867
 6653TIP3    H244155   3.282   5.226  10.006  1.0955 -2.4472  0.1740
 6654TIP3   OH244156   5.351   2.349   9.482  0.0390 -0.4271  0.1609
 6654TIP3    H144157   5.439   2.385   9.485 -0.1630  0.0908 -0.0902
 6654TIP3    H244158   5.344   2.296   9.562  0.2867  0.2048  0.6063
 6655TIP3   OH244159   5.233   3.957   9.564 -0.1573 -0.4277  0.6443
 6655TIP3    H144160   5.298   3.913   9.619 -0.0527 -0.8310  0.2094
 6655TIP3    H244161   5.274   4.040   9.540 -0.7766  0.4030  2.3277
 6656TIP3   OH244162   4.946   2.193   9.436 -0.6130  0.1049 -0.0299
 6656TIP3    H144163   4.951   2.226   9.526  0.1196  1.2527 -0.4636
 6656TIP3    H244164   4.967   2.270   9.382  0.0580 -0.8258 -1.1263
 6657TIP3   OH244165   0.584   0.611  11.168 -0.0846 -0.0980 -0.2521
 6657TIP3    H144166   0.592   0.540  11.232 -0.9087  0.9704  1.0953
 6657TIP3    H244167   0.568   0.689  11.221 -2.7132  0.5450 -1.7941
 6658TIP3   OH244168   2.108   6.455   9.970  0.3767  0.0790 -0.5856
 6658TIP3    H144169   2.158   6.528  10.007 -0.8470 -0.1390  1.7175
 6658TIP3    H244170   2.039   6.438  10.035 -0.4885 -1.9418 -1.9267
 6659TIP3   OH244171   0.070   3.409  12.151 -0.3348 -0.0718  0.1096
 6659TIP3    H144172   0.043   3.330  12.198 -0.0206 -0.0807  0.2828
 6659TIP3    H244173   0.035   3.482  12.202  0.4385 -0.0672  0.6464
 6660TIP3   OH244174   5.079   5.493  10.380 -0.2473 -0.2116 -0.7701
 6660TIP3    H144175   5.148   5.542  10.425  2.6242 -2.1891 -2.6611
 6660TIP3    H244176   5.053   5.549  10.307  1.8728 -0.7398 -2.0001
 6661TIP3   OH244177   3.059   4.884  11.910 -0.8988 -0.0845  0.4486
 6661TIP3    H144178   3.015   4.907  11.992 -3.1065 -2.1723 -0.0179
 6661TIP3    H244179   2.989   4.886  11.844  0.2014 -1.2152 -0.8222
 6662TIP3   OH244180   4.533   0.040  10.276 -0.0017  0.5472 -0.1279
 6662TIP3    H144181   4.574  -0.043  10.300 -0.4205  0.4824  0.3768
 6662TIP3    H244182   4.444   0.033  10.310 -0.4216  0.7128 -1.1567
 6663TIP3   OH244183   0.455   1.968  10.386 -0.1864 -0.1191  0.0375
 6663TIP3    H144184   0.486   2.034  10.323 -1.5207 -0.3023 -0.8471
 6663TIP3    H244185   0.531   1.912  10.401 -0.1867 -0.9105 -2.5158
 6664TIP3   OH244186   5.155   1.700  11.606 -0.0635 -0.4276 -0.0783
 6664TIP3    H144187   5.090   1.769  11.590  0.2552  0.3188  1.6949
 6664TIP3    H244188   5.103   1.625  11.635 -0.2008 -0.0268  0.7424
 6665TIP3   OH244189   0.780   1.430  12.575  0.5602  0.0205 -0.6169
 6665TIP3    H144190   0.828   1.505  12.539  0.3397 -0.8531 -2.9200
 6665TIP3    H244191   0.689   1.459  12.577  0.3683 -0.3457 -2.1880
 6666TIP3   OH244192   1.471   2.265   9.490  0.4832  0.6490 -0.2574
 6666TIP3    H144193   1.445   2.351   9.458  0.6369  1.3359  1.3976
 6666TIP3    H244194   1.477   2.274   9.585 -1.7892 -1.7945  0.2439
 6667TIP3   OH244195   0.529   5.276   9.529  0.0244  0.2844 -0.0240
 6667TIP3    H144196   0.462   5.343   9.524 -0.3414 -0.1448 -1.0922
 6667TIP3    H244197   0.504   5.223   9.605 -1.5323 -0.5593 -1.0603
 6668TIP3   OH244198   5.899   4.274  11.908  0.1940  0.2597 -0.1407
 6668TIP3    H144199   5.870   4.251  11.997  0.7614 -1.0805 -0.2829
 6668TIP3    H244200   5.988   4.306  11.919 -0.3443  1.7863 -0.0338
 6669TIP3   OH244201   1.285   2.250  10.238  0.0268  0.0817 -0.0516
 6669TIP3    H144202   1.294   2.237  10.333  2.0317  0.7369 -0.1085
 6669TIP3    H244203   1.343   2.184  10.200 -0.7004 -0.1159 -0.8506
 6670TIP3   OH244204   0.728   2.033  12.429 -0.6371 -0.4278 -0.2217
 6670TIP3    H144205   0.635   2.044  12.451 -0.3937 -1.0204  1.2593
 6670TIP3    H244206   0.775   2.075  12.502  0.2376 -2.8843  0.7356
 6671TIP3   OH244207   4.031   2.069  11.498  0.1613 -0.1474  0.0372
 6671TIP3    H144208   4.045   2.043  11.589  1.2544  0.9902  0.2238
 6671TIP3    H244209   3.957   2.017  11.469 -2.2722  1.6269  2.5335
 6672TIP3   OH244210   6.040   4.328   9.738  0.0251  0.3005 -0.2648
 6672TIP3    H144211   6.031   4.291   9.650 -0.9323  0.3610 -0.2019
 6672TIP3    H244212   6.135   4.334   9.751  0.3366 -3.1846  0.1632
 6673TIP3   OH244213   2.259   6.583  10.662  0.1478  0.2213  0.1124
 6673TIP3    H144214   2.242   6.670  10.626  0.7674  0.6726  0.9001
 6673TIP3    H244215   2.172   6.544  10.670 -0.3107  1.4438  1.4318
 6674TIP3   OH244216   2.436   2.290  10.962  0.3995 -0.0006 -0.3020
 6674TIP3    H144217   2.525   2.319  10.981  0.8915 -0.2559 -2.0182
 6674TIP3    H244218   2.399   2.270  11.048  2.1090 -0.2282  0.4375
 6675TIP3   OH244219   0.057   6.665  10.218 -0.4146 -0.0691 -0.3646
 6675TIP3    H144220   0.049   6.745  10.271  1.2801 -0.3025  0.2953
 6675TIP3    H244221   0.070   6.697  10.129 -0.8711  0.3687 -0.2782
 6676TIP3   OH244222   2.089   5.037   9.579  0.5217  0.1233  0.1046
 6676TIP3    H144223   2.154   5.042   9.509  0.2625 -0.5184 -0.1957
 6676TIP3    H244224   2.132   5.075   9.655  0.6552  1.2341 -0.5040
 6677TIP3   OH244225   6.480   5.701  11.620  0.2578 -0.3529  0.8335
 6677TIP3    H144226   6.414   5.756  11.661 -0.7959 -0.7753 -0.2420
 6677TIP3    H244227   6.481   5.729  11.528  1.3778 -0.5495  0.7687
 6678TIP3   OH244228   3.572   0.980  11.438  0.2939 -0.6186  0.0680
 6678TIP3    H144229   3.647   0.926  11.462  0.9217 -0.0799 -0.6331
 6678TIP3    H244230   3.611   1.062  11.406 -0.6277  0.8179  2.3159
 6679TIP3   OH244231   1.223   1.532  11.897 -0.3369  0.1799 -0.0300
 6679TIP3    H144232   1.177   1.548  11.980  1.5688 -1.9987  1.5856
 6679TIP3    H244233   1.260   1.617  11.874 -0.3344  0.7230  1.7645
 6680TIP3   OH244234   5.860   5.007  11.720 -0.0159  0.0364 -0.3177
 6680TIP3    H144235   5.847   5.047  11.634 -1.5020  1.0965  0.3544
 6680TIP3    H244236   5.772   4.996  11.754  0.5253 -1.1237  0.7499
 6681TIP3   OH244237   6.500   2.819   9.228 -0.0503 -0.3701  1.0324
 6681TIP3    H144238   6.498   2.889   9.163 -0.0339 -1.9978 -0.8143
 6681TIP3    H244239   6.451   2.854   9.302 -0.0200  1.5800  0.2005
 6682TIP3   OH244240   4.468   3.681   9.886 -0.0283 -0.0696 -0.2479
 6682TIP3    H144241   4.493   3.644   9.801 -1.1232  0.6116 -0.9034
 6682TIP3    H244242   4.414   3.757   9.863  0.6639  0.8544  1.0560
 6683TIP3   OH244243   3.193   1.068  10.889  0.0939  0.6459 -0.4365
 6683TIP3    H144244   3.177   1.126  10.963 -1.3657  0.5727 -0.6609
 6683TIP3    H244245   3.265   1.109  10.841  0.2696  1.3137  0.3801
 6684TIP3   OH244246   0.615   5.435  10.464 -0.0553 -0.2293 -0.5835
 6684TIP3    H144247   0.582   5.360  10.413  0.1041 -0.9086  0.2824
 6684TIP3    H244248   0.548   5.448  10.531  1.5452 -1.9129  1.4873
 6685TIP3   OH244249   3.322   5.051  11.357 -0.0554  0.5521 -0.4797
 6685TIP3    H144250   3.368   5.118  11.306  0.2413  1.0395  0.4126
 6685TIP3    H244251   3.388   5.016  11.416 -0.5064  0.3295 -0.1027
 6686TIP3   OH244252   5.673   2.812  11.403  0.2823 -0.1819 -0.7298
 6686TIP3    H144253   5.671   2.872  11.329 -1.6229 -3.5711 -3.7137
 6686TIP3    H244254   5.582   2.788  11.418  0.8120 -1.0673  1.4963
 6687TIP3   OH244255   5.576   1.420   9.495  0.1800  0.5985  0.1325
 6687TIP3    H144256   5.636   1.363   9.543  1.4650  1.1659 -0.7386
 6687TIP3    H244257   5.600   1.508   9.521 -0.5535  0.8262  0.0652
 6688TIP3   OH244258   5.874   5.879   9.360 -1.0376  0.6610 -0.1637
 6688TIP3    H144259   5.783   5.909   9.353 -2.7365 -3.4987  0.5308
 6688TIP3    H244260   5.878   5.802   9.302  2.0232  0.6102 -0.0279
 6689TIP3   OH244261   2.530   6.525  11.945  0.6543  0.0515 -0.1248
 6689TIP3    H144262   2.570   6.447  11.982  0.5780  0.4038  0.7476
 6689TIP3    H244263   2.483   6.495  11.868 -0.1696 -0.9368  0.7312
 6690TIP3   OH244264   4.539   5.973  11.136  0.1506 -0.0435 -0.3697
 6690TIP3    H144265   4.537   6.040  11.068 -1.2906 -1.0800 -1.4033
 6690TIP3    H244266   4.541   5.891  11.088 -1.1155 -0.8060  0.8243
 6691TIP3   OH244267   5.056   5.798  11.823  0.4702  0.2099 -0.0065
 6691TIP3    H144268   5.082   5.864  11.888  0.0202  0.1645  0.2281
 6691TIP3    H244269   4.964   5.780  11.844  0.7242 -0.8320  0.2299
 6692TIP3   OH244270   3.965   0.299  12.294 -0.3554  0.1158  0.2714
 6692TIP3    H144271   3.927   0.233  12.235  1.0288 -1.2619  0.8217
 6692TIP3    H244272   3.932   0.276  12.381 -0.0275  0.2658  0.4391
 6693TIP3   OH244273   3.244   5.892  10.035 -0.7609  0.1607 -0.1547
 6693TIP3    H144274   3.162   5.903   9.987  0.5098  0.0787 -2.5070
 6693TIP3    H244275   3.266   5.800  10.024 -0.2800  0.2044  0.3916
 6694TIP3   OH244276   3.693   6.236  10.291  0.0850 -0.4639  0.1742
 6694TIP3    H144277   3.685   6.190  10.208 -1.4238  1.9524 -1.1243
 6694TIP3    H244278   3.613   6.212  10.339 -1.1172  1.2832 -0.8406
 6695TIP3   OH244279   0.812   3.848   9.782  0.1019 -0.1062 -0.2871
 6695TIP3    H144280   0.730   3.816   9.820  0.3252 -1.5948 -0.9849
 6695TIP3    H244281   0.879   3.823   9.846  0.1915 -0.4209 -0.4985
 6696TIP3   OH244282   5.265   5.256  12.457 -0.2337  0.2244 -0.2318
 6696TIP3    H144283   5.274   5.234  12.364 -1.4344  0.6619 -0.4750
 6696TIP3    H244284   5.286   5.349  12.461 -0.6304  0.3156 -0.1585
 6697TIP3   OH244285   1.496   4.958   9.714 -1.0203  0.2383  0.0666
 6697TIP3    H144286   1.508   4.930   9.624 -0.1939  1.9734 -0.4230
 6697TIP3    H244287   1.402   4.973   9.723 -0.9419  1.6778 -1.0859
 6698TIP3   OH244288   2.746   3.933  11.587 -0.2416  0.4271  0.2436
 6698TIP3    H144289   2.836   3.964  11.585 -0.7622  2.0163 -0.3141
 6698TIP3    H244290   2.750   3.842  11.556  0.8807  1.2844 -2.3917
 6699TIP3   OH244291   1.610   2.683  11.429 -0.4357  0.2596  0.2228
 6699TIP3    H144292   1.667   2.760  11.424  0.3494 -0.3402 -0.3691
 6699TIP3    H244293   1.643   2.625  11.360 -0.3921 -1.0183  1.2866
 6700TIP3   OH244294   0.388   1.785  10.081 -0.0823 -0.3738  0.2059
 6700TIP3    H144295   0.328   1.728  10.033  0.0255 -0.2178 -0.1180
 6700TIP3    H244296   0.468   1.733  10.090  0.2437 -0.0428 -0.6637
 6701TIP3   OH244297   3.998   2.267  12.184 -0.2569  0.1028  0.6206
 6701TIP3    H144298   3.993   2.362  12.183 -0.5720  0.0920 -0.4065
 6701TIP3    H244299   3.909   2.238  12.166  0.2369 -0.3380 -1.4121
 6702TIP3   OH244300   1.175   2.959  10.273  0.1069  0.0725 -0.5520
 6702TIP3    H144301   1.144   2.869  10.278 -0.0451 -0.0694 -2.7882
 6702TIP3    H244302   1.226   2.962  10.191  2.1395  1.4376  0.6633
 6703TIP3   OH244303   2.337   1.248   9.328  0.1536 -0.0225  0.0073
 6703TIP3    H144304   2.395   1.305   9.278 -3.3271  1.3426 -2.9949
 6703TIP3    H244305   2.299   1.305   9.395 -0.1148 -0.0145 -0.1514
 6704TIP3   OH244306   1.254   5.966  11.608 -0.4139 -0.4061 -0.1931
 6704TIP3    H144307   1.288   5.919  11.685 -0.4901 -1.4423 -0.7704
 6704TIP3    H244308   1.321   6.031  11.588 -0.1879 -0.4163  0.4862
 6705TIP3   OH244309   0.971   4.726  10.341  0.2420 -0.4283  0.3966
 6705TIP3    H144310   1.042   4.781  10.374  0.5738  0.5899 -1.8678
 6705TIP3    H244311   0.994   4.707  10.250 -0.6998 -2.9892  0.5912
 6706TIP3   OH244312   2.051   3.500  10.632  0.4409 -0.2483  0.4281
 6706TIP3    H144313   2.086   3.540  10.712  0.6417 -0.4806  0.4584
 6706TIP3    H244314   2.122   3.445  10.600 -0.0438 -1.0791  0.7420
 6707TIP3   OH244315   3.407   5.905   9.728 -0.3395 -0.3885 -0.5126
 6707TIP3    H144316   3.467   5.844   9.685  0.2318 -1.0859  1.2034
 6707TIP3    H244317   3.332   5.851   9.754 -0.5958 -0.0168 -0.4733
 6708TIP3   OH244318   1.436   0.959   9.477 -0.4016 -0.4531 -0.1282
 6708TIP3    H144319   1.425   0.956   9.382 -1.3257 -0.2012 -0.0322
 6708TIP3    H244320   1.427   1.052   9.499 -0.9280 -0.6042  0.2940
 6709TIP3   OH244321   0.420   1.073  10.210 -0.4652  0.6592  0.5538
 6709TIP3    H144322   0.488   1.105  10.269 -0.6629  2.3877 -0.0712
 6709TIP3    H244323   0.437   1.119  10.128 -2.0873  0.7597  0.2385
 6710TIP3   OH244324   0.295   3.648  11.164 -0.9378 -0.1063  0.0871
 6710TIP3    H144325   0.335   3.567  11.197 -0.7219  0.2717  0.7818
 6710TIP3    H244326   0.326   3.715  11.225 -3.0097  0.1419  0.9319
 6711TIP3   OH244327   1.348   2.857  12.034  0.2280 -0.2613 -0.0080
 6711TIP3    H144328   1.272   2.910  12.057 -0.0371 -0.4964 -0.3520
 6711TIP3    H244329   1.342   2.780  12.091 -0.2095 -0.6490 -0.5727
 6712TIP3   OH244330   6.206   0.966  10.209 -0.7630 -0.6144  0.1594
 6712TIP3    H144331   6.181   0.885  10.164  0.3570 -0.8126 -0.1472
 6712TIP3    H244332   6.285   0.942  10.258  0.0720  0.4923 -0.5990
 6713TIP3   OH244333   4.338   6.304  10.692 -1.0134 -1.2032  0.2280
 6713TIP3    H144334   4.256   6.255  10.686 -2.4347  1.0842 -0.4299
 6713TIP3    H244335   4.366   6.314  10.601 -2.2569  1.4006  0.0134
 6714TIP3   OH244336   5.165   2.107  12.465 -0.6924 -0.0517  0.1686
 6714TIP3    H144337   5.107   2.147  12.529 -2.9947 -1.6387 -0.7731
 6714TIP3    H244338   5.209   2.036  12.513 -1.3244 -0.3271  0.3484
 6715TIP3   OH244339   0.179   5.518  10.588  0.0649  1.0191  0.1337
 6715TIP3    H144340   0.268   5.540  10.615  1.1547  0.2988 -2.5391
 6715TIP3    H244341   0.161   5.434  10.628  1.3685  0.2746 -0.7723
 6716TIP3   OH244342   6.255   2.622  12.268 -0.3623  0.2373 -0.2746
 6716TIP3    H144343   6.335   2.580  12.300 -0.6775  0.3945  0.7675
 6716TIP3    H244344   6.216   2.662  12.346 -1.4608  0.1621 -0.7634
 6717TIP3   OH244345   3.301   4.955  11.962  0.0843  0.3550  0.4003
 6717TIP3    H144346   3.212   4.932  11.937  0.6486  0.9250 -2.6302
 6717TIP3    H244347   3.299   5.051  11.972  0.5482  0.5465 -1.0148
 6718TIP3   OH244348   2.799   3.022   9.644  0.3149 -0.3192  0.8058
 6718TIP3    H144349   2.748   2.952   9.684  1.4116 -1.2593  0.5755
 6718TIP3    H244350   2.887   3.012   9.678  1.2405 -0.9924 -1.5845
 6719TIP3   OH244351   6.606   4.603  10.718 -0.3935  0.7362 -0.0199
 6719TIP3    H144352   6.616   4.513  10.748 -1.6027  0.5720 -0.0447
 6719TIP3    H244353   6.681   4.650  10.755  0.9567 -0.5201 -1.0444
 6720TIP3   OH244354   4.651   3.738  11.302 -0.1205 -0.0390 -0.4372
 6720TIP3    H144355   4.596   3.685  11.245  0.6575 -1.1367 -0.2158
 6720TIP3    H244356   4.616   3.723  11.390  1.4838 -2.1227 -0.0620
 6721TIP3   OH244357   4.570   1.236   9.609  0.3654 -0.1017  0.1679
 6721TIP3    H144358   4.564   1.331   9.618  0.0200 -0.0019 -1.0009
 6721TIP3    H244359   4.663   1.218   9.602  0.3479  0.3538 -1.4846
 6722TIP3   OH244360   5.321   0.862  12.130  0.8344 -0.2037  0.0563
 6722TIP3    H144361   5.325   0.957  12.122 -1.2177  0.2350  2.7095
 6722TIP3    H244362   5.246   0.836  12.076 -0.8796  0.2439  2.0894
 6723TIP3   OH244363   3.647   2.193  10.547 -0.2328 -0.2131 -0.0650
 6723TIP3    H144364   3.737   2.204  10.518 -0.5368  1.8879 -0.3929
 6723TIP3    H244365   3.636   2.098  10.558  2.0836 -0.4979  0.2809
 6724TIP3   OH244366   4.559   4.886  11.895 -0.3328 -0.2587 -0.1725
 6724TIP3    H144367   4.464   4.893  11.903 -0.4396  0.9280 -1.9558
 6724TIP3    H244368   4.590   4.976  11.898  0.7433 -0.6303  0.2803
 6725TIP3   OH244369   4.834   2.740   9.714  0.0979 -0.3139 -0.5070
 6725TIP3    H144370   4.768   2.671   9.703 -0.9277  0.6626 -0.6287
 6725TIP3    H244371   4.870   2.724   9.801  0.1420 -1.2124 -0.6740
 6726TIP3   OH244372   3.254   2.793  11.065 -0.8074 -0.2196  0.3152
 6726TIP3    H144373   3.201   2.864  11.101 -0.7297 -1.0311  2.1434
 6726TIP3    H244374   3.220   2.781  10.976 -2.1210  0.8043  0.6341
 6727TIP3   OH244375   0.212   5.575  10.026 -0.3985 -0.1448 -0.2610
 6727TIP3    H144376   0.145   5.583  10.094 -1.9115  0.3280 -1.7579
 6727TIP3    H244377   0.183   5.502   9.972  0.3232  0.0343 -0.9123
 6728TIP3   OH244378   2.003   4.258   9.908  0.7882 -0.0533 -0.1136
 6728TIP3    H144379   1.962   4.326   9.962  2.1256  0.1917  0.6371
 6728TIP3    H244380   1.964   4.176   9.938 -0.1102  0.2758 -0.3409
 6729TIP3   OH244381   4.576   6.349  11.572 -0.1123 -0.5862 -0.1574
 6729TIP3    H144382   4.654   6.329  11.624  1.3084  0.2919 -1.8520
 6729TIP3    H244383   4.509   6.371  11.637  1.2403 -0.6695  1.3325
 6730TIP3   OH244384   0.934   6.598  11.974 -0.2661  0.1638 -0.3319
 6730TIP3    H144385   0.975   6.599  12.060 -1.5364  2.4146  0.3134
 6730TIP3    H244386   0.922   6.690  11.952 -3.9307 -0.3246 -0.9356
 6731TIP3   OH244387   3.983   6.400  11.776  0.7609 -0.5711 -0.2111
 6731TIP3    H144388   4.059   6.416  11.832  0.2375  0.6971  0.1694
 6731TIP3    H244389   3.975   6.305  11.774  2.0785 -0.7092  0.1152
 6732TIP3   OH244390   2.674   4.072  11.950 -0.6303  0.3134 -0.1231
 6732TIP3    H144391   2.764   4.095  11.975  0.2564 -1.4371 -1.4426
 6732TIP3    H244392   2.643   4.014  12.019 -0.4437  0.2858 -0.0623
 6733TIP3   OH244393   3.907   5.467  11.267  0.6154  0.3427  0.1822
 6733TIP3    H144394   3.929   5.553  11.304  0.3998 -0.6356  2.7262
 6733TIP3    H244395   3.922   5.405  11.338 -3.4533 -1.2572 -0.1000
 6734TIP3   OH244396   1.996   3.340  11.883  0.1661 -0.0215  0.1790
 6734TIP3    H144397   1.996   3.273  11.953 -0.8552  1.0028  1.2155
 6734TIP3    H244398   1.921   3.317  11.829 -1.7459  1.5911  1.9508
 6735TIP3   OH244399   4.283   5.377  11.279  0.0192 -0.1640  0.3516
 6735TIP3    H144400   4.213   5.352  11.219 -0.3742  1.3835  0.1188
 6735TIP3    H244401   4.300   5.469  11.259  1.4497 -0.2472  1.0796
 6736TIP3   OH244402   1.761   6.536  11.950 -0.2831  0.4180 -0.8723
 6736TIP3    H144403   1.725   6.555  12.037 -1.2619  2.0875 -1.5881
 6736TIP3    H244404   1.684   6.533  11.893  0.4033 -0.0055 -1.7932
 6737TIP3   OH244405   6.365   0.548  10.366 -0.2956  0.7260 -0.4474
 6737TIP3    H144406   6.369   0.460  10.403 -0.6985  1.0854  0.5051
 6737TIP3    H244407   6.272   0.561  10.345 -0.4559  1.3649  0.5844
 6738TIP3   OH244408   1.738   5.182   9.385 -0.2749 -0.0490  0.0879
 6738TIP3    H144409   1.701   5.098   9.413 -2.1250  0.1968 -1.4065
 6738TIP3    H244410   1.663   5.242   9.383  0.7862  1.3470 -0.0278
 6739TIP3   OH244411   2.509   1.129  10.848  0.6920  0.0809 -0.1438
 6739TIP3    H144412   2.420   1.149  10.878  0.8188  0.6303 -0.1248
 6739TIP3    H244413   2.505   1.137  10.753  0.5269 -0.7035 -0.2097
 6740TIP3   OH244414   0.005   0.019  11.557 -0.5332  0.0936 -0.6080
 6740TIP3    H144415  -0.076  -0.020  11.589 -0.3776  0.7279  0.6088
 6740TIP3    H244416   0.020   0.094  11.613  0.6872  0.2284 -1.0754
 6741TIP3   OH244417   5.069   4.459  12.391  0.4953  0.0718 -0.4377
 6741TIP3    H144418   5.120   4.476  12.470  2.0543 -1.2544 -1.1252
 6741TIP3    H244419   5.111   4.512  12.323  1.2687 -1.3387 -1.0991
 6742TIP3   OH244420   3.848   5.665  12.067 -0.4112  0.0751  0.1789
 6742TIP3    H144421   3.817   5.575  12.061 -1.2126  0.3538  0.0155
 6742TIP3    H244422   3.798   5.713  12.001 -1.7581  1.1145  1.8725
 6743TIP3   OH244423   5.914   2.152   9.097 -0.2430 -0.0424  0.0495
 6743TIP3    H144424   5.920   2.113   9.010  0.9330  0.2561 -0.0096
 6743TIP3    H244425   5.865   2.233   9.084  0.7401  0.4706 -0.4995
 6744TIP3   OH244426   2.399   2.646   9.151  0.0640 -0.5067  0.2943
 6744TIP3    H144427   2.409   2.701   9.074  0.1477 -1.5418 -0.4619
 6744TIP3    H244428   2.428   2.701   9.224 -1.5869  1.0642 -0.1680
 6745TIP3   OH244429   6.270   6.047  12.351  0.2378  0.6885  0.1188
 6745TIP3    H144430   6.331   6.006  12.411  1.5974  0.6566 -1.2290
 6745TIP3    H244431   6.320   6.060  12.270 -1.4111  1.0375 -0.9061
 6746TIP3   OH244432   3.260   5.213  11.975  0.1344  0.0202 -0.4226
 6746TIP3    H144433   3.283   5.278  12.041  0.3470  2.1318 -2.4344
 6746TIP3    H244434   3.286   5.253  11.892 -0.5438 -2.3006 -1.8548
 6747TIP3   OH244435   5.665   0.632  11.650 -0.6901  0.0269  0.1813
 6747TIP3    H144436   5.711   0.698  11.598  0.6470  0.4776  1.8374
 6747TIP3    H244437   5.644   0.677  11.732 -1.1739 -1.1500  0.7291
 6748TIP3   OH244438   0.081   4.125  10.854 -0.0199 -0.0335  0.1619
 6748TIP3    H144439   0.095   4.030  10.857 -1.6897 -0.2788  0.8476
 6748TIP3    H244440   0.166   4.161  10.880  1.0964 -1.2716 -1.5259
 6749TIP3   OH244441   6.270   1.779  10.464  0.6201  0.3602 -0.1180
 6749TIP3    H144442   6.263   1.852  10.403 -1.3219 -0.2924 -0.7598
 6749TIP3    H244443   6.355   1.740  10.445 -0.1333 -0.1461 -2.8182
 6750TIP3   OH244444   6.134   2.461  11.506  0.4886  0.4536 -0.1695
 6750TIP3    H144445   6.184   2.381  11.522  1.0140  0.9860  0.9989
 6750TIP3    H244446   6.184   2.530  11.550  0.1333  1.4630 -1.2879
 6751TIP3   OH244447   1.060   4.513  11.785  0.2509  0.3799  0.1529
 6751TIP3    H144448   1.113   4.442  11.820  1.3584  0.9655 -0.2752
 6751TIP3    H244449   1.059   4.499  11.690 -0.1809  0.5011  0.1342
 6752TIP3   OH244450   4.690   1.369   9.122  0.0337  0.3431  0.3292
 6752TIP3    H144451   4.676   1.292   9.068 -1.1785  0.0097  1.0722
 6752TIP3    H244452   4.782   1.392   9.109  0.0126 -0.3190 -1.0643
 6753TIP3   OH244453   6.664   1.452  10.697 -0.0049 -0.2024 -0.1072
 6753TIP3    H144454   6.622   1.369  10.675  1.4182 -0.6005 -1.5254
 6753TIP3    H244455   6.758   1.432  10.695  0.4555  1.8336 -2.3846
 6754TIP3   OH244456   3.914   6.043  10.820 -0.2803 -0.3240 -0.4872
 6754TIP3    H144457   3.912   5.947  10.830 -1.7633 -0.3125 -0.4439
 6754TIP3    H244458   3.822   6.067  10.805 -0.3213  1.3309  1.9392
 6755TIP3   OH244459   5.910   4.016  10.586  0.5611  0.2142  0.0648
 6755TIP3    H144460   5.873   4.041  10.671  1.3672  0.8664  0.2403
 6755TIP3    H244461   5.879   3.927  10.571 -2.6700  1.3542 -0.7160
 6756TIP3   OH244462   6.286   1.986  11.574  0.1291 -0.7124  0.0077
 6756TIP3    H144463   6.369   1.942  11.557 -0.1811 -1.0593 -0.6477
 6756TIP3    H244464   6.231   1.963  11.500  0.7270  2.7761 -1.7483
 6757TIP3   OH244465   0.249   2.957  11.872 -0.0776  0.4297  0.8333
 6757TIP3    H144466   0.252   3.042  11.916  0.0156 -0.2866  2.2620
 6757TIP3    H244467   0.325   2.910  11.907 -0.6957 -0.6022  0.8013
 6758TIP3   OH244468   2.502   5.788  11.309 -0.1399 -0.6308  0.1474
 6758TIP3    H144469   2.424   5.757  11.262  0.2524 -0.2359 -0.8005
 6758TIP3    H244470   2.570   5.724  11.286 -0.3403 -1.4008  1.5692
 6759TIP3   OH244471   3.922   2.102  10.140 -0.3758 -0.4430 -0.7159
 6759TIP3    H144472   3.886   2.171  10.196  2.1877  0.2267  0.2148
 6759TIP3    H244473   3.968   2.149  10.071 -0.1901 -1.2584 -1.1640
 6760TIP3   OH244474   3.552   4.970   9.824 -0.6026  0.4860  0.5887
 6760TIP3    H144475   3.562   4.991   9.917  3.0606  0.0601  0.4355
 6760TIP3    H244476   3.595   4.885   9.814  0.5797  1.2772 -1.7238
 6761TIP3   OH244477   1.254   5.620  10.225 -0.1269 -0.1736  0.2161
 6761TIP3    H144478   1.255   5.548  10.162  1.7037  0.7165 -0.8819
 6761TIP3    H244479   1.251   5.578  10.311 -0.2071 -1.5103 -0.4202
 6762TIP3   OH244480   6.594   1.575  10.187  1.3223 -0.4469 -0.4373
 6762TIP3    H144481   6.661   1.517  10.224  0.3966 -0.5783  1.0935
 6762TIP3    H244482   6.514   1.554  10.235  0.5835  0.9316 -1.0071
 6763TIP3   OH244483   4.979   3.982   9.830  0.4922 -0.3697  0.4502
 6763TIP3    H144484   5.010   4.039   9.901  0.4763 -0.7606  0.7717
 6763TIP3    H244485   4.892   4.015   9.810  1.2905  1.0725 -0.8136
 6764TIP3   OH244486   4.523   3.575  10.725  0.3294 -0.4372  0.0598
 6764TIP3    H144487   4.564   3.644  10.674  1.3273 -1.3575 -0.4224
 6764TIP3    H244488   4.449   3.617  10.768  1.7041  1.2542  0.8704
 6765TIP3   OH244489   0.062   1.117  12.337  0.5125 -0.1958  0.0666
 6765TIP3    H144490   0.152   1.091  12.318  0.0503 -1.8502 -0.0515
 6765TIP3    H244491   0.012   1.036  12.326 -0.8273  0.4438  1.2117
 6766TIP3   OH244492   0.704   0.618   9.954 -1.0035 -0.1362 -0.4864
 6766TIP3    H144493   0.729   0.710   9.948 -2.6077  0.4111  0.4561
 6766TIP3    H244494   0.750   0.575   9.882  1.3115  1.0178  0.2073
 6767TIP3   OH244495   2.142   4.183  12.104  0.3001  0.3426  0.5471
 6767TIP3    H144496   2.049   4.185  12.083  0.3675 -3.1360 -0.7912
 6767TIP3    H244497   2.185   4.188  12.019  1.3221  0.8922  1.0802
 6768TIP3   OH244498   3.461   1.962  10.365 -0.1533 -0.0329  0.0277
 6768TIP3    H144499   3.400   1.986  10.296 -0.8816  1.1609  1.0532
 6768TIP3    H244500   3.534   1.921  10.319 -0.7397  0.4863 -1.4201
 6769TIP3   OH244501   1.361   1.449  10.174 -0.3293 -0.0297 -0.1132
 6769TIP3    H144502   1.375   1.360  10.140 -1.2252 -0.4883  0.6878
 6769TIP3    H244503   1.266   1.458  10.180 -0.2485  0.9693 -0.1061
 6770TIP3   OH244504   5.391   1.113   9.234 -0.3969  0.0106  0.1140
 6770TIP3    H144505   5.351   1.200   9.222  0.5415  0.8310  2.4224
 6770TIP3    H244506   5.346   1.076   9.310  0.9589 -0.4435  0.7095
 6771TIP3   OH244507   6.318   3.194  10.553 -0.4488  0.6143 -0.0993
 6771TIP3    H144508   6.367   3.149  10.622 -1.1015 -0.3681 -0.2641
 6771TIP3    H244509   6.351   3.156  10.471  0.7194  2.1623 -0.3926
 6772TIP3   OH244510   5.936   3.742  11.626 -0.1594 -0.6293 -0.5790
 6772TIP3    H144511   5.915   3.667  11.681  0.3953 -0.1706  0.2794
 6772TIP3    H244512   5.931   3.817  11.685 -0.2005 -0.0453 -1.3078
 6773TIP3   OH244513   2.209   6.224   9.578  0.1935 -0.6004  0.1285
 6773TIP3    H144514   2.298   6.259   9.588 -0.2233  0.3052  0.7841
 6773TIP3    H244515   2.182   6.251   9.491 -0.1122  0.7441  0.6139
 6774TIP3   OH244516   1.718   6.111  12.052  0.0633  0.0771  0.4721
 6774TIP3    H144517   1.740   6.049  11.983  2.5709  0.7284  0.5831
 6774TIP3    H244518   1.658   6.173  12.010 -1.7321 -1.8111  0.1053
 6775TIP3   OH244519   3.757   0.068   9.660 -0.0819  0.2355 -0.0089
 6775TIP3    H144520   3.819   0.042   9.728  0.9203 -0.6874 -1.2416
 6775TIP3    H244521   3.795   0.035   9.579 -0.8504  1.9945 -1.1378
 6776TIP3   OH244522   0.730   4.906  10.357 -0.0815  0.0983 -0.1804
 6776TIP3    H144523   0.816   4.864  10.351  0.4072  1.0389 -0.0246
 6776TIP3    H244524   0.747   4.998  10.338 -1.0775  0.2859 -0.2371
 6777TIP3   OH244525   0.479   6.386  12.603 -0.3363  0.5257 -0.3577
 6777TIP3    H144526   0.427   6.379  12.684  2.0006 -2.2347  1.0850
 6777TIP3    H244527   0.555   6.438  12.628  0.0776  0.2183 -0.9754
 6778TIP3   OH244528   0.995   4.383   9.739  0.4995 -0.1108 -0.3583
 6778TIP3    H144529   1.021   4.473   9.720  1.3744 -0.5126 -1.0803
 6778TIP3    H244530   0.996   4.339   9.655 -1.5320 -0.4183 -0.2741
 6779TIP3   OH244531   4.507   0.601  10.303  0.1770  1.2457  0.2388
 6779TIP3    H144532   4.578   0.666  10.309 -1.7397  3.3357  2.0736
 6779TIP3    H244533   4.462   0.623  10.221  0.0681  1.6863  0.4118
 6780TIP3   OH244534   6.146   4.183  10.451  0.5418  0.5434 -0.2536
 6780TIP3    H144535   6.083   4.195  10.522 -1.9794  0.5242 -2.3511
 6780TIP3    H244536   6.137   4.091  10.425  3.6374 -0.3307  1.2219
 6781TIP3   OH244537   1.738   1.758  11.600 -0.1141 -0.4864  0.4450
 6781TIP3    H144538   1.779   1.744  11.514 -0.0221 -1.0236  0.5729
 6781TIP3    H244539   1.781   1.696  11.658 -2.2316 -2.2712  0.2234
 6782TIP3   OH244540   4.342   5.055  10.459 -0.2005  0.4272 -0.4087
 6782TIP3    H144541   4.279   5.125  10.479 -0.6519  0.4598 -1.8315
 6782TIP3    H244542   4.414   5.070  10.521  0.5599  3.2819 -1.7879
 6783TIP3   OH244543   2.982   5.925   9.906 -0.5455 -0.0185 -0.1076
 6783TIP3    H144544   2.941   5.875   9.835  0.8563 -0.7749 -0.4357
 6783TIP3    H244545   2.927   5.909   9.982 -1.6687  0.2076 -0.8502
 6784TIP3   OH244546   6.250   6.286  13.083 -0.7150  0.0720  0.1407
 6784TIP3    H144547   6.309   6.339  13.029 -2.7134  0.9292 -1.3225
 6784TIP3    H244548   6.237   6.206  13.032  1.1120 -1.2851  1.6548
 6785TIP3   OH244549   2.233   1.381  10.467  0.0768  0.3357 -0.5185
 6785TIP3    H144550   2.205   1.296  10.501  1.0015  0.1296 -0.2393
 6785TIP3    H244551   2.272   1.361  10.382  3.7855 -0.1294  1.1257
 6786TIP3   OH244552   4.264   1.411  10.875  0.6746  0.5466  0.1113
 6786TIP3    H144553   4.359   1.397  10.880  0.7906 -2.0533 -4.3029
 6786TIP3    H244554   4.226   1.326  10.896 -0.6291  1.1819  0.3998
 6787TIP3   OH244555   3.850   5.416  10.342 -0.6008 -0.8366  0.0708
 6787TIP3    H144556   3.825   5.467  10.418  2.5748  0.8354  0.1608
 6787TIP3    H244557   3.842   5.325  10.370 -0.3650 -0.2682  2.1148
 6788TIP3   OH244558   5.594   3.848  10.788 -0.1698  0.8524  0.4755
 6788TIP3    H144559   5.609   3.764  10.831 -0.4807  1.1775  1.2322
 6788TIP3    H244560   5.667   3.903  10.816  0.2782  0.7199 -0.3712
 6789TIP3   OH244561   3.924   2.840   9.891 -0.3625 -0.6032  0.1650
 6789TIP3    H144562   3.870   2.918   9.876 -0.0768 -0.2123  1.0887
 6789TIP3    H244563   3.924   2.795   9.806  2.3001  2.1719 -1.5314
 6790TIP3   OH244564   5.124   4.880   9.282  0.1686  0.0658 -0.3324
 6790TIP3    H144565   5.107   4.804   9.226  2.6897 -1.3528  0.6641
 6790TIP3    H244566   5.135   4.843   9.370 -0.4915  1.8420  0.5449
 6791TIP3   OH244567   3.781   5.229  10.707 -0.1857  0.0050  0.5452
 6791TIP3    H144568   3.759   5.223  10.800  1.1269 -1.3520  0.8134
 6791TIP3    H244569   3.870   5.195  10.702  0.7020  2.2915 -0.8867
 6792TIP3   OH244570   3.690   1.227   9.970 -0.1514 -0.0557  0.3605
 6792TIP3    H144571   3.694   1.257  10.060  0.6611 -0.7224  0.5566
 6792TIP3    H244572   3.756   1.279   9.924  0.1095 -0.3811  0.3595
 6793TIP3   OH244573   5.662   5.043  10.236  0.6414 -0.2535 -0.0166
 6793TIP3    H144574   5.639   4.976  10.171 -1.2730 -0.9780  1.3071
 6793TIP3    H244575   5.739   5.008  10.281  1.7141  0.0535 -1.5370
 6794TIP3   OH244576   4.619   5.277  11.047 -0.2953  0.2105  0.5445
 6794TIP3    H144577   4.662   5.363  11.041  0.2701 -0.1141 -0.2399
 6794TIP3    H244578   4.633   5.250  11.137  2.1071 -0.3413  0.0854
 6795TIP3   OH244579   3.668   1.984   9.684 -0.3196 -0.1102 -0.3577
 6795TIP3    H144580   3.750   2.030   9.701 -0.3675 -0.5563  1.3407
 6795TIP3    H244581   3.608   2.052   9.654  0.8387  0.0955 -2.3912
 6796TIP3   OH244582   4.492   1.867  10.042  0.1337 -0.2000 -1.1124
 6796TIP3    H144583   4.451   1.899  10.123 -0.1972 -1.2279 -0.8674
 6796TIP3    H244584   4.509   1.947   9.991 -0.6504  0.3714 -0.5000
 6797TIP3   OH244585   4.392   2.520  10.769  0.3760  0.2565  0.1974
 6797TIP3    H144586   4.455   2.544  10.836  0.8663 -1.1978  0.2924
 6797TIP3    H244587   4.387   2.424  10.773 -0.5279  0.2204 -0.9821
 6798TIP3   OH244588   5.691   1.831  11.145 -0.2884  0.0146 -0.4751
 6798TIP3    H144589   5.777   1.860  11.112 -0.8020  1.1167 -0.9018
 6798TIP3    H244590   5.673   1.889  11.219  0.0147 -1.2349  0.6156
 6799TIP3   OH244591   6.182   3.126  10.070  0.4770  0.5964  0.0502
 6799TIP3    H144592   6.166   3.217  10.043  1.8686  0.9200  0.2071
 6799TIP3    H244593   6.140   3.073  10.002  2.3029  1.3841 -1.8204
 6800TIP3   OH244594   1.968   0.158  12.641  0.6536 -0.2161 -0.2188
 6800TIP3    H144595   1.973   0.090  12.708  1.4010 -0.4782 -0.5257
 6800TIP3    H244596   1.907   0.223  12.676  0.4022 -0.7470  0.3459
 6801TIP3   OH244597   6.141   5.360   9.786  0.2392  0.1410  0.4640
 6801TIP3    H144598   6.165   5.276   9.746 -1.1559  0.0565 -0.2860
 6801TIP3    H244599   6.223   5.408   9.793  0.7182 -0.2984 -1.5073
 6802TIP3   OH244600   3.267   1.652  11.954 -0.5266 -0.1716  0.2963
 6802TIP3    H144601   3.294   1.743  11.940  0.5743 -0.3631  1.0665
 6802TIP3    H244602   3.349   1.604  11.962 -1.0498 -0.7904  2.7239
 6803TIP3   OH244603   1.291   3.210  10.379  0.2943 -0.0609 -0.4973
 6803TIP3    H144604   1.262   3.124  10.348 -1.1436  0.9863 -2.2852
 6803TIP3    H244605   1.351   3.242  10.311 -2.0926  1.8356 -1.8871
 6804TIP3   OH244606   3.372   0.942  11.886  0.1971 -0.1283  0.4700
 6804TIP3    H144607   3.452   0.944  11.833  1.2887  2.6922  2.0062
 6804TIP3    H244608   3.326   1.023  11.863 -2.3595 -1.6853 -0.4030
 6805TIP3   OH244609   3.644   3.176   9.589 -0.2908  0.1442 -0.5242
 6805TIP3    H144610   3.597   3.194   9.508 -2.8472  1.1179  1.0811
 6805TIP3    H244611   3.625   3.251   9.646  0.9409 -0.7771  1.2141
 6806TIP3   OH244612   1.766   1.871   9.604 -0.0629 -0.1964  0.0169
 6806TIP3    H144613   1.685   1.908   9.568  0.8252  0.1591 -1.6925
 6806TIP3    H244614   1.742   1.847   9.694 -2.1002 -0.2301 -0.4693
 6807TIP3   OH244615   1.400   0.369  11.121  0.2248 -0.7443 -0.1818
 6807TIP3    H144616   1.459   0.319  11.177  0.0164 -0.0560  0.6728
 6807TIP3    H244617   1.388   0.452  11.167  0.3513 -0.0010 -1.4427
 6808TIP3   OH244618   0.014   3.720  10.175 -0.1018 -0.5580  0.5008
 6808TIP3    H144619   0.011   3.650  10.240  2.9938  0.1199  1.5788
 6808TIP3    H244620  -0.014   3.679  10.093 -2.4038 -1.8830  1.8477
 6809TIP3   OH244621   6.077   4.711  12.737 -0.2155  0.0427 -0.6491
 6809TIP3    H144622   6.149   4.699  12.799 -1.0815 -1.2506  0.1480
 6809TIP3    H244623   6.109   4.671  12.656 -0.5635 -1.9813  0.1377
 6810TIP3   OH244624   5.327   6.205  10.280  0.1020 -0.3126 -0.5367
 6810TIP3    H144625   5.353   6.259  10.355 -0.3179 -0.0205 -0.5975
 6810TIP3    H244626   5.402   6.209  10.221 -0.2830  1.0000 -0.9771
 6811TIP3   OH244627   4.982   2.454   9.315  0.1201 -0.2128 -0.1840
 6811TIP3    H144628   4.893   2.460   9.350  0.5409  0.2425  0.8472
 6811TIP3    H244629   5.007   2.545   9.299  0.7462 -0.2612  0.4626
 6812TIP3   OH244630   0.115   4.884   9.235 -0.0249 -0.0202 -0.1521
 6812TIP3    H144631   0.038   4.828   9.246 -1.9970  2.7410  1.4237
 6812TIP3    H244632   0.178   4.851   9.298 -1.4749  0.0405  1.3948
 6813TIP3   OH244633   4.932   2.892   9.467 -0.2299  0.0286 -0.4885
 6813TIP3    H144634   4.921   2.984   9.443  1.5222  0.3610 -0.1807
 6813TIP3    H244635   4.888   2.884   9.552  0.8926  0.9807  0.2112
 6814TIP3   OH244636   0.988   4.247  12.331  0.2526 -0.4664 -0.4204
 6814TIP3    H144637   1.074   4.233  12.371 -0.3694  0.8157  1.4984
 6814TIP3    H244638   1.005   4.304  12.257  1.0840 -0.3754 -0.1729
 6815TIP3   OH244639   5.344   4.441  11.598  0.1950 -0.0503  0.1347
 6815TIP3    H144640   5.346   4.527  11.558 -0.6936 -0.6554 -1.3168
 6815TIP3    H244641   5.344   4.380  11.524  1.0713 -1.3091  1.1274
 6816TIP3   OH244642   0.758   0.947  10.445  0.5082  0.0110 -0.2196
 6816TIP3    H144643   0.834   0.908  10.402  0.6408 -0.8151  0.7275
 6816TIP3    H244644   0.693   0.877  10.448  0.2241  0.2854  0.2149
 6817TIP3   OH244645   0.338   0.453   9.273 -0.0539 -0.2571 -0.0175
 6817TIP3    H144646   0.405   0.385   9.267  0.4231  0.0050  1.7671
 6817TIP3    H244647   0.263   0.417   9.226  1.1390 -0.7929 -1.5735
 6818TIP3   OH244648   2.572   2.236  10.060 -0.1861 -0.0993 -0.6782
 6818TIP3    H144649   2.621   2.306  10.017 -1.3602  0.5105 -1.0834
 6818TIP3    H244650   2.480   2.262  10.050 -0.5443  0.2586  2.4888
 6819TIP3   OH244651   3.338   2.686  10.214 -0.1023 -0.7006 -0.4280
 6819TIP3    H144652   3.415   2.691  10.271 -0.7353  0.8273  0.3682
 6819TIP3    H244653   3.356   2.750  10.145 -0.7025 -0.2482 -0.1689
 6820TIP3   OH244654   5.688   6.212  12.514  0.3302  0.0561  0.1090
 6820TIP3    H144655   5.631   6.143  12.550  0.3186 -0.3992 -0.7477
 6820TIP3    H244656   5.713   6.179  12.427 -1.5034  2.1086 -1.3093
 6821TIP3   OH244657   1.135   5.383   9.365 -0.2066 -0.1262 -0.3805
 6821TIP3    H144658   1.077   5.459   9.371  1.8527  1.6778 -1.7909
 6821TIP3    H244659   1.085   5.318   9.315 -1.5929  0.7273 -0.1460
 6822TIP3   OH244660   4.133   3.873   9.490  0.1540 -0.0284  0.0412
 6822TIP3    H144661   4.096   3.936   9.552  0.6080 -0.8336  1.1866
 6822TIP3    H244662   4.064   3.808   9.477  1.1708 -1.7486  2.4921
 6823TIP3   OH244663   3.779   5.866   9.526 -0.0638 -0.3142  0.0197
 6823TIP3    H144664   3.721   5.810   9.577  1.4903 -1.8778  0.1787
 6823TIP3    H244665   3.768   5.837   9.436 -2.3880  2.0674 -0.5662
 6824TIP3   OH244666   5.105   1.870  19.042  0.3204 -0.3736 -0.1238
 6824TIP3    H144667   5.153   1.941  19.085 -1.5210  0.7012  0.2843
 6824TIP3    H244668   5.028   1.857  19.096 -0.1651 -1.6307 -1.0668
 6825TIP3   OH244669   4.633   5.227  11.615 -0.0011 -0.1536  0.3846
 6825TIP3    H144670   4.542   5.236  11.588  0.3532 -0.5891 -1.0594
 6825TIP3    H244671   4.683   5.271  11.546  0.9035 -0.3939  0.8685
 6826TIP3   OH244672   2.061   5.081  11.029  0.2433 -0.0271 -0.2931
 6826TIP3    H144673   2.119   5.015  10.991  1.6750  0.1701  1.4187
 6826TIP3    H244674   2.055   5.150  10.962  0.0395 -1.1171 -1.4341
 6827TIP3   OH244675   2.820   1.690  10.632  0.1581 -0.1618 -0.1291
 6827TIP3    H144676   2.735   1.721  10.664 -0.0635 -0.7707 -0.1141
 6827TIP3    H244677   2.805   1.598  10.610  0.1898  0.3266 -2.4429
 6828TIP3   OH244678   1.018   5.830  12.909 -0.0882  0.0841  0.1692
 6828TIP3    H144679   1.087   5.896  12.919  0.3610 -0.4285  0.4541
 6828TIP3    H244680   0.937   5.881  12.914  0.2600  0.8649 -1.3702
 6829TIP3   OH244681   4.735   0.255  10.734 -0.1152  0.6271  0.0039
 6829TIP3    H144682   4.820   0.225  10.766 -0.6854 -1.9479 -0.6833
 6829TIP3    H244683   4.697   0.303  10.807  1.6108  1.2161  0.5636
 6830TIP3   OH244684   1.911   5.888  10.709 -0.1913 -0.6731  0.5803
 6830TIP3    H144685   1.959   5.896  10.791 -1.8879  0.6018  1.4969
 6830TIP3    H244686   1.887   5.796  10.704  0.5638 -0.9069  1.1248
 6831TIP3   OH244687   3.573   2.945  10.764 -0.5308  0.3683  0.4009
 6831TIP3    H144688   3.571   3.039  10.744  1.4065  0.3060 -0.3180
 6831TIP3    H244689   3.651   2.935  10.818 -0.5538 -0.8855  0.2158
 6832TIP3   OH244690   0.431   3.994  10.706 -0.1816 -0.0465 -0.4307
 6832TIP3    H144691   0.459   4.026  10.620  2.2584 -2.2048 -0.5529
 6832TIP3    H244692   0.388   3.910  10.687 -0.8970  0.1328  0.3608
 6833TIP3   OH244693   2.978   5.461  10.421  0.0953 -0.0347 -0.1849
 6833TIP3    H144694   2.898   5.436  10.466  0.1022  1.7283  0.8937
 6833TIP3    H244695   3.009   5.539  10.467  0.3121  1.7015 -2.9815
 6834TIP3   OH244696   2.401   2.298  11.243  0.2918 -0.1502  0.6792
 6834TIP3    H144697   2.314   2.332  11.262  0.5107  0.7513  0.1643
 6834TIP3    H244698   2.458   2.375  11.245  0.7912 -0.4492 -0.6410
 6835TIP3   OH244699   6.198   5.160  10.141 -0.1205  0.0856  0.2997
 6835TIP3    H144700   6.104   5.165  10.161 -0.2562 -1.4717  0.1612
 6835TIP3    H244701   6.202   5.111  10.059  0.8235  0.1458  0.3037
 6836TIP3   OH244702   1.748   1.538  11.837  1.0140  0.2129  0.3192
 6836TIP3    H144703   1.771   1.456  11.881  0.2166 -0.0259  0.3153
 6836TIP3    H244704   1.686   1.512  11.769 -0.5895  0.9923  1.4123
 6837TIP3   OH244705   3.786   1.874  10.362 -0.1266 -0.6596  0.0291
 6837TIP3    H144706   3.710   1.862  10.305 -0.6680  1.1808  0.3118
 6837TIP3    H244707   3.749   1.895  10.447  0.6722  1.1711 -0.0376
 6838TIP3   OH244708   1.679   4.894  11.003  0.3542  0.2366 -0.0485
 6838TIP3    H144709   1.754   4.845  11.036  0.3546  0.2299 -0.0589
 6838TIP3    H244710   1.608   4.830  10.999  0.2385  0.3377  0.3521
 6839TIP3   OH244711   4.144   0.946  12.632 -0.4694  0.7042 -0.0916
 6839TIP3    H144712   4.163   0.857  12.663  0.8788  1.1522  0.4293
 6839TIP3    H244713   4.214   0.965  12.570  0.5985  2.2393  1.5034
 6840TIP3   OH244714   4.199   4.760  10.378 -0.3643 -0.1266  0.1705
 6840TIP3    H144715   4.231   4.670  10.379  1.3729  0.4543  0.5595
 6840TIP3    H244716   4.203   4.788  10.470  1.2030  0.9990 -0.1927
 6841TIP3   OH244717   5.118   2.550  10.518 -0.2527 -0.6587  0.8492
 6841TIP3    H144718   5.201   2.552  10.469 -1.6373 -1.5270 -1.6954
 6841TIP3    H244719   5.127   2.473  10.575  0.1330 -1.6584 -0.5090
 6842TIP3   OH244720   1.772   2.909  11.407  0.2217 -0.0017  0.0576
 6842TIP3    H144721   1.730   2.966  11.342 -1.1057  0.4586  1.2539
 6842TIP3    H244722   1.820   2.969  11.464 -1.2211  0.0042  1.3529
 6843TIP3   OH244723   6.667   0.041  12.237  0.1678  0.2679 -0.1038
 6843TIP3    H144724   6.609   0.072  12.167  0.2532 -0.0851 -0.3340
 6843TIP3    H244725   6.661   0.109  12.304  0.1550  0.6561 -0.4880
 6844TIP3   OH244726   0.728   2.993  12.593  0.7751  0.0162  0.0670
 6844TIP3    H144727   0.738   3.073  12.541  2.9386  1.3182  2.2665
 6844TIP3    H244728   0.811   2.984  12.639  0.0702 -2.7772  0.9670
 6845TIP3   OH244729   6.624   5.186  12.310 -0.3658 -0.0388 -0.1309
 6845TIP3    H144730   6.597   5.199  12.401 -1.0195 -0.0294 -0.3182
 6845TIP3    H244731   6.595   5.265  12.265  0.1685  0.0604 -0.3019
 6846TIP3   OH244732   6.301   1.434   9.556  0.1209 -0.1911  0.0385
 6846TIP3    H144733   6.339   1.406   9.639 -0.6055  0.1974  0.5163
 6846TIP3    H244734   6.369   1.418   9.491  0.7367 -0.3910  0.7274
 6847TIP3   OH244735   4.938   5.672  10.170 -0.0666 -0.3443 -0.1670
 6847TIP3    H144736   4.857   5.722  10.164 -0.3565 -0.8452 -0.5143
 6847TIP3    H244737   4.932   5.608  10.099  0.1862 -1.0224  0.4103
 6848TIP3   OH244738   0.010   4.450   9.948 -0.1586 -0.5040  0.4811
 6848TIP3    H144739  -0.014   4.449   9.855 -2.4100 -2.0441  1.0130
 6848TIP3    H244740   0.058   4.368   9.961  0.5029 -0.1058  0.6335
 6849TIP3   OH244741   3.039   5.667  10.576 -0.0802 -0.0803  0.1269
 6849TIP3    H144742   2.985   5.733  10.619  2.2271  2.6391 -0.8305
 6849TIP3    H244743   3.104   5.643  10.641  0.9824  1.0096 -0.5070
 6850TIP3   OH244744   4.569   1.722  11.882 -0.1615  0.3384  0.3781
 6850TIP3    H144745   4.645   1.679  11.841  0.7627  3.0592 -1.0497
 6850TIP3    H244746   4.581   1.708  11.976  0.2131 -2.1699  0.0228
 6851TIP3   OH244747   1.421   4.435  10.504  0.2888  0.1642  0.2443
 6851TIP3    H144748   1.344   4.394  10.466  0.3114 -0.7963  1.1678
 6851TIP3    H244749   1.461   4.484  10.432 -0.8967  0.2626 -0.3631
 6852TIP3   OH244750   6.207   0.689   9.926 -0.2045 -0.3451  0.2248
 6852TIP3    H144751   6.196   0.694  10.021  2.7940  1.4313  0.6119
 6852TIP3    H244752   6.159   0.765   9.892  0.0892 -0.0330  0.5038
 6853TIP3   OH244753   1.475   4.407   9.721  0.2607 -0.5463  0.0376
 6853TIP3    H144754   1.500   4.334   9.665 -0.2157 -0.9830  0.3925
 6853TIP3    H244755   1.417   4.369   9.787 -1.6884  0.4995 -0.9910
 6854TIP3   OH244756   3.453   2.067   9.019 -0.1927 -0.4916 -0.1162
 6854TIP3    H144757   3.500   1.998   8.972  0.6436  0.1411 -0.2328
 6854TIP3    H244758   3.481   2.058   9.110  1.3576  0.8138 -0.4213
 6855TIP3   OH244759   5.746   1.030  12.856  0.8085  0.7709 -0.1564
 6855TIP3    H144760   5.681   0.996  12.917  1.7614 -0.6977  0.0879
 6855TIP3    H244761   5.793   1.097  12.907 -0.3607  1.7074 -0.2811
 6856TIP3   OH244762   4.355   1.756  11.094 -0.0007  0.0441 -0.2378
 6856TIP3    H144763   4.396   1.840  11.115  0.5501  0.3138 -2.1799
 6856TIP3    H244764   4.367   1.746  11.000  0.0070 -2.2653 -0.0635
 6857TIP3   OH244765   3.130   0.614  11.195  0.0629  0.1672  0.4177
 6857TIP3    H144766   3.070   0.563  11.140  2.7798 -1.2249 -1.4275
 6857TIP3    H244767   3.146   0.694  11.145  2.1996 -0.9117 -0.7523
 6858TIP3   OH244768   5.685   6.083  10.574  0.2087  0.2988 -0.0325
 6858TIP3    H144769   5.712   6.008  10.520  1.0589  0.3648  0.2980
 6858TIP3    H244770   5.633   6.044  10.644  0.1955  0.0798 -0.1612
 6859TIP3   OH244771   1.223   5.376  11.243  0.2864  0.0781  0.2314
 6859TIP3    H144772   1.132   5.388  11.267  0.2192  0.1962 -0.0886
 6859TIP3    H244773   1.250   5.298  11.293 -0.8098 -1.7634 -1.8506
 6860TIP3   OH244774   5.110   4.078  10.864 -0.1504  0.1217  0.2166
 6860TIP3    H144775   5.193   4.030  10.867  1.1940  1.9933 -2.5599
 6860TIP3    H244776   5.047   4.018  10.825  1.0332 -0.0441 -1.5326
 6861TIP3   OH244777   2.166   3.850  11.393 -0.3594 -0.6201  0.6737
 6861TIP3    H144778   2.157   3.793  11.316  0.1625  1.5658 -1.1261
 6861TIP3    H244779   2.260   3.847  11.413  0.0542  1.1368 -0.7662
 6862TIP3   OH244780   0.367   2.654  10.219  0.4165 -0.2127  0.0553
 6862TIP3    H144781   0.313   2.732  10.207  0.3172 -0.0082  1.6227
 6862TIP3    H244782   0.308   2.581  10.197  0.5640  0.1352 -1.5854
 6863TIP3   OH244783   1.520   1.412  11.681 -0.1554  0.6906  0.2446
 6863TIP3    H144784   1.540   1.320  11.702  0.5860  0.8793  0.4070
 6863TIP3    H244785   1.568   1.429  11.600 -2.7074  0.0786 -1.5259
 6864TIP3   OH244786   2.124   1.577  10.237  0.0746 -0.3623  0.3817
 6864TIP3    H144787   2.202   1.535  10.201 -1.2003 -1.6400 -1.0233
 6864TIP3    H244788   2.125   1.553  10.329  1.4151 -0.1798  0.4463
 6865TIP3   OH244789   4.673   3.415  11.669 -0.3027 -0.0196  0.0786
 6865TIP3    H144790   4.658   3.470  11.746  0.6697  1.0616 -0.4743
 6865TIP3    H244791   4.624   3.335  11.687 -1.0257  0.6679  1.3054
 6866TIP3   OH244792   5.451   5.322  10.842  0.2422  0.7061 -0.1499
 6866TIP3    H144793   5.386   5.317  10.772 -0.9148 -4.2962  0.8803
 6866TIP3    H244794   5.535   5.335  10.797 -0.8024  1.1608 -2.0600
 6867TIP3   OH244795   2.955   2.539  10.523 -0.2481  0.2227 -1.1047
 6867TIP3    H144796   3.017   2.556  10.452  2.0779  0.3829  0.7855
 6867TIP3    H244797   2.951   2.622  10.571 -0.7220 -0.2393 -0.3201
 6868TIP3   OH244798   1.917   1.614   8.999 -1.1795  0.0113 -0.5889
 6868TIP3    H144799   1.875   1.570   9.073 -1.8244  0.6446 -0.5663
 6868TIP3    H244800   1.848   1.617   8.932  0.1090 -2.8770 -2.2400
 6869TIP3   OH244801   0.908   5.026   9.414  0.0210  0.1315  0.5522
 6869TIP3    H144802   0.953   5.019   9.330 -1.2662  0.6887 -0.2154
 6869TIP3    H244803   0.869   5.113   9.413 -0.8391 -0.2328  1.3050
 6870TIP3   OH244804   2.502   4.152  12.811  0.4521  0.0428 -0.3968
 6870TIP3    H144805   2.526   4.173  12.721 -1.6331  1.8084 -0.6061
 6870TIP3    H244806   2.407   4.161  12.813  0.3835 -0.7117  1.8136
 6871TIP3   OH244807   5.130   4.777   9.537  0.1376  0.5540  0.1397
 6871TIP3    H144808   5.072   4.799   9.610 -1.1463 -0.6770 -0.4457
 6871TIP3    H244809   5.111   4.685   9.519 -0.5643  1.1320 -2.5572
 6872TIP3   OH244810   5.880   2.040  10.965 -0.4001  0.3807 -0.4748
 6872TIP3    H144811   5.916   2.129  10.970 -0.4019  0.3448  0.3014
 6872TIP3    H244812   5.885   2.008  11.055 -1.0356 -0.1577 -0.6320
 6873TIP3   OH244813   5.857   1.455  10.777 -0.0318 -0.2290 -0.4508
 6873TIP3    H144814   5.797   1.381  10.764 -2.1127  1.2561  0.3710
 6873TIP3    H244815   5.871   1.458  10.871  2.3032 -1.1893 -0.6770
 6874TIP3   OH244816   0.754   2.789  10.745 -0.1420  0.0005  0.9076
 6874TIP3    H144817   0.675   2.750  10.707 -0.3998  0.5948  0.8329
 6874TIP3    H244818   0.724   2.867  10.790  0.3756  0.1109  1.0736
 6875TIP3   OH244819   1.922   4.374  12.251  0.7590 -0.0247 -0.3035
 6875TIP3    H144820   1.838   4.420  12.250  1.5347  1.4718  0.1544
 6875TIP3    H244821   1.928   4.331  12.166  0.0457  0.8263 -0.7886
 6876TIP3   OH244822   0.137   2.025  11.926 -0.2514  0.6138  0.5480
 6876TIP3    H144823   0.192   2.075  11.865  0.4314  1.7737  2.0487
 6876TIP3    H244824   0.053   2.070  11.926  0.6312  2.4521  2.5729
 6877TIP3   OH244825   6.244   0.446  12.853  0.3073 -0.6952 -0.0002
 6877TIP3    H144826   6.256   0.364  12.901  0.9765 -0.6122 -0.0152
 6877TIP3    H244827   6.298   0.436  12.774  0.5497 -0.1694  0.0934
 6878TIP3   OH244828   1.247   4.008  11.093 -0.0806  0.3725  0.3653
 6878TIP3    H144829   1.249   3.928  11.040 -0.9459  0.2569  0.4823
 6878TIP3    H244830   1.167   4.052  11.064  1.1909  1.9988 -0.8398
 6879TIP3   OH244831   0.245   5.979  10.464  0.8165 -0.1087 -0.4201
 6879TIP3    H144832   0.171   5.939  10.509  1.8294 -1.7942 -0.1644
 6879TIP3    H244833   0.281   5.909  10.410  2.5922  0.4612 -0.0642
 6880TIP3   OH244834   0.383   0.872  11.587  0.3743  0.3222  0.0051
 6880TIP3    H144835   0.425   0.958  11.592  0.7689  0.0946  0.6735
 6880TIP3    H244836   0.358   0.852  11.677  0.2559 -0.2554 -0.1547
 6881TIP3   OH244837   5.851   2.752  11.592 -0.1001  0.5620  0.6741
 6881TIP3    H144838   5.915   2.823  11.585 -0.1407  0.7290  1.7674
 6881TIP3    H244839   5.788   2.770  11.522  1.0191  0.4051 -0.3992
 6882TIP3   OH244840   0.065   6.321  11.587  0.3178 -0.0792 -0.0462
 6882TIP3    H144841   0.081   6.290  11.676  2.2755 -1.1106 -0.7067
 6882TIP3    H244842   0.129   6.276  11.533  0.7145  2.2163 -1.6729
 6883TIP3   OH244843   5.450   1.436  12.129 -0.0091 -0.1328 -0.0518
 6883TIP3    H144844   5.544   1.450  12.140  0.4265 -1.7408 -1.2413
 6883TIP3    H244845   5.430   1.477  12.045 -0.2772 -0.1258  0.0155
 6884TIP3   OH244846   1.832   3.230  10.675 -0.2325 -0.0617 -0.0551
 6884TIP3    H144847   1.861   3.314  10.640 -0.9389  1.1596  2.1018
 6884TIP3    H244848   1.874   3.224  10.761 -2.0093 -0.7498  0.8392
 6885TIP3   OH244849   5.226   3.154  10.070 -0.8366  0.2145 -0.1522
 6885TIP3    H144850   5.310   3.183  10.035 -0.8240  0.9070  0.4205
 6885TIP3    H244851   5.163   3.219  10.039 -0.7034  1.3018  1.7014
 6886TIP3   OH244852   4.042   5.828   9.601  0.0682  0.3606  0.2723
 6886TIP3    H144853   3.949   5.844   9.588 -0.2230 -1.4977 -0.1623
 6886TIP3    H244854   4.085   5.891   9.543 -0.7480  3.1619  2.4458
 6887TIP3   OH244855   5.434   3.716  12.327  0.2153  0.2113 -0.4341
 6887TIP3    H144856   5.454   3.808  12.314  0.1551  0.6675  2.1838
 6887TIP3    H244857   5.344   3.715  12.358  0.7947 -0.5074  1.3463
 6888TIP3   OH244858   4.824   5.709  10.801  0.1156  0.2316  0.8385
 6888TIP3    H144859   4.782   5.778  10.749  1.0342 -0.5284 -1.0074
 6888TIP3    H244860   4.908   5.747  10.827 -0.3167  0.5883  1.7463
 6889TIP3   OH244861   2.360   2.462  10.758  0.2269 -0.2587 -0.8107
 6889TIP3    H144862   2.380   2.407  10.833 -1.1258  1.3665  0.8613
 6889TIP3    H244863   2.437   2.456  10.702  2.5635  0.5816  2.0443
 6890TIP3   OH244864   3.817   4.745  12.448  0.4111  0.0221  0.5193
 6890TIP3    H144865   3.765   4.817  12.484  1.5648  1.1524  0.0184
 6890TIP3    H244866   3.849   4.698  12.526  0.1673  0.4448  0.8817
 6891TIP3   OH244867   2.663   3.312  10.593  0.2040  0.4023  0.7267
 6891TIP3    H144868   2.614   3.232  10.576 -0.7257  1.0985  0.0728
 6891TIP3    H244869   2.677   3.312  10.688  1.1187 -1.0289  0.6260
 6892TIP3   OH244870   6.435   3.758  11.479 -0.5890  0.3158 -0.3901
 6892TIP3    H144871   6.342   3.739  11.463 -0.2604 -0.9197 -1.0131
 6892TIP3    H244872   6.479   3.673  11.467  0.8297  1.1899 -1.7434
 6893TIP3   OH244873   1.259   5.942  11.128  0.2504 -0.3229  0.3936
 6893TIP3    H144874   1.269   5.897  11.212 -0.5314 -0.3807  0.4628
 6893TIP3    H244875   1.319   5.897  11.069  0.4441 -0.5969  0.7942
 6894TIP3   OH244876   4.824   2.095   9.219 -0.2898 -0.0170  0.1534
 6894TIP3    H144877   4.880   2.142   9.280 -0.8518 -0.4124  0.9832
 6894TIP3    H244878   4.885   2.051   9.159  0.2559  0.5715  0.2591
 6895TIP3   OH244879   0.473   6.391  11.440 -0.3514  0.2261 -0.6080
 6895TIP3    H144880   0.471   6.373  11.345  0.3895 -1.6386 -0.3195
 6895TIP3    H244881   0.561   6.367  11.467 -0.6713  0.3604  0.6198
 6896TIP3   OH244882   6.581   2.874  11.401  0.2329 -0.1200 -0.1965
 6896TIP3    H144883   6.570   2.785  11.434  0.7316 -0.7572 -1.6102
 6896TIP3    H244884   6.494   2.902  11.374  0.4437 -1.4134 -2.5372
 6897TIP3   OH244885   4.523   1.623  10.286 -0.0628 -0.0839 -0.4777
 6897TIP3    H144886   4.445   1.641  10.234 -0.0710  0.4685 -0.2764
 6897TIP3    H244887   4.518   1.685  10.358  1.0713  0.6212 -0.9932
 6898TIP3   OH244888   2.818   2.357  11.334  0.0121 -0.1628  0.3967
 6898TIP3    H144889   2.787   2.267  11.326  2.8231 -1.2087  0.1646
 6898TIP3    H244890   2.864   2.374  11.252  2.8076  0.0507  1.9034
 6899TIP3   OH244891   1.925   0.741   9.065 -0.5900  0.4930  0.2204
 6899TIP3    H144892   1.873   0.720   9.142 -0.0001  0.2543  0.5593
 6899TIP3    H244893   1.965   0.658   9.039 -0.1567  0.7216  0.1330
 6900TIP3   OH244894   3.142   6.477  11.988  0.4099 -0.4912 -0.0216
 6900TIP3    H144895   3.099   6.516  11.912  2.4273  2.4578  0.1535
 6900TIP3    H244896   3.201   6.412  11.951  0.5064  0.0704 -0.8915
 6901TIP3   OH244897   3.213   0.242  10.722  0.5158 -0.5060 -0.1229
 6901TIP3    H144898   3.231   0.296  10.645 -0.1719 -2.4210 -1.7106
 6901TIP3    H244899   3.123   0.211  10.708  0.9443 -2.1700  0.6389
 6902TIP3   OH244900   3.068   6.392  11.717  0.1885 -0.4133 -0.0942
 6902TIP3    H144901   2.977   6.401  11.689 -0.2119  1.2443  1.5841
 6902TIP3    H244902   3.103   6.481  11.718  1.8130 -1.0008 -0.5508
 6903TIP3   OH244903   5.854   4.526   9.827  0.2517  0.2525  0.3130
 6903TIP3    H144904   5.762   4.508   9.809  0.4716 -2.5995  1.4471
 6903TIP3    H244905   5.900   4.446   9.799  2.3540  1.4582  0.0908
 6904TIP3   OH244906   3.112   5.998  11.355 -0.3503  0.2435  0.2376
 6904TIP3    H144907   3.030   5.966  11.392  0.7635 -2.1434  0.8397
 6904TIP3    H244908   3.176   5.989  11.426  0.6512  1.1307 -0.5051
 6905TIP3   OH244909   4.998   0.598  11.804 -0.1015 -0.2065 -0.5860
 6905TIP3    H144910   5.074   0.577  11.751  0.2417 -0.6052  0.0513
 6905TIP3    H244911   4.927   0.608  11.741  0.4326 -0.0130 -1.1721
 6906TIP3   OH244912   0.825   3.659  10.191 -0.4961 -0.1310 -0.3143
 6906TIP3    H144913   0.844   3.693  10.279 -2.1156  0.3615 -0.1295
 6906TIP3    H244914   0.730   3.657  10.186 -0.4583 -2.1866 -1.3063
 6907TIP3   OH244915   1.392   4.960  11.066 -0.0088  0.0687  0.2946
 6907TIP3    H144916   1.340   4.890  11.025 -0.3729  0.7185 -0.3769
 6907TIP3    H244917   1.457   4.983  11.000  1.7349 -1.3014  1.4181
 6908TIP3   OH244918   2.672   2.569   9.250  0.2139  0.2867  0.4753
 6908TIP3    H144919   2.590   2.596   9.210  0.8886  0.7876 -0.6123
 6908TIP3    H244920   2.713   2.651   9.279  1.6659  0.3967 -1.6587
 6909TIP3   OH244921   5.569   1.427  10.092 -0.1736  0.0020 -0.1700
 6909TIP3    H144922   5.609   1.512  10.112 -0.2254 -0.4063  1.9277
 6909TIP3    H244923   5.624   1.390  10.023  3.4373 -0.6778  2.7697
 6910TIP3   OH244924   5.259   5.171  11.025 -0.0920  0.2635 -0.8461
 6910TIP3    H144925   5.286   5.234  10.959 -0.3711  0.6353 -0.6125
 6910TIP3    H244926   5.313   5.192  11.101  0.4719 -0.3862 -1.0618
 6911TIP3   OH244927   1.317   0.790  10.144 -0.7984  0.3834 -0.0527
 6911TIP3    H144928   1.300   0.697  10.159 -1.2001  0.3218 -0.8220
 6911TIP3    H244929   1.266   0.811  10.065  0.1201  0.9967 -0.4988
 6912TIP3   OH244930   5.944   3.533  11.400  0.3844 -0.0986 -0.3660
 6912TIP3    H144931   5.997   3.455  11.419 -1.9576 -1.3646  1.6078
 6912TIP3    H244932   5.996   3.606  11.431  1.9081 -1.0271 -0.6275
 6913TIP3   OH244933   2.789   3.179  10.843  0.5693  0.5523  0.1825
 6913TIP3    H144934   2.732   3.165  10.919  2.4083  0.6894  1.6523
 6913TIP3    H244935   2.865   3.226  10.878  1.3751  0.8279 -1.7991
 6914TIP3   OH244936   2.379   0.930  11.369 -0.2299  0.0598  0.3070
 6914TIP3    H144937   2.327   0.893  11.440  0.0595 -1.2776 -0.1481
 6914TIP3    H244938   2.386   0.859  11.305  0.7774  0.7476 -0.3752
 6915TIP3   OH244939   5.320   0.358  10.845  0.3463 -0.1374  0.4097
 6915TIP3    H144940   5.258   0.414  10.798 -0.3320 -1.9918 -1.0112
 6915TIP3    H244941   5.268   0.320  10.915  0.5572  0.2356  0.7746
 6916TIP3   OH244942   5.442   0.878   9.440 -0.1021 -0.0442  0.4276
 6916TIP3    H144943   5.375   0.925   9.491 -0.4289  0.2951 -0.3095
 6916TIP3    H244944   5.525   0.915   9.469 -0.3347  0.7206  0.1275
 6917TIP3   OH244945   2.348   0.507  10.976  0.5156 -0.4207 -0.2717
 6917TIP3    H144946   2.371   0.414  10.974  1.3745 -0.2191 -0.2201
 6917TIP3    H244947   2.431   0.552  10.960 -0.0313  0.3267 -1.0109
 6918TIP3   OH244948   0.173   5.487  12.735 -0.1390 -0.3946 -0.2447
 6918TIP3    H144949   0.096   5.461  12.684  1.3412 -1.5140 -2.0970
 6918TIP3    H244950   0.241   5.500  12.669  1.0888  1.2779  1.2651
 6919TIP3   OH244951   0.580   2.183  10.147 -0.0735 -0.1265  0.0563
 6919TIP3    H144952   0.528   2.132  10.085  1.5509 -0.0569 -1.4460
 6919TIP3    H244953   0.550   2.273  10.136 -0.1739 -0.1956 -0.2382
 6920TIP3   OH244954   2.049   6.339   9.370  0.4936  0.0517 -0.0756
 6920TIP3    H144955   2.026   6.406   9.305  1.0242 -0.0600 -0.3889
 6920TIP3    H244956   2.044   6.257   9.321  0.8109 -0.0412  0.0512
 6921TIP3   OH244957   1.898   2.977   9.738 -0.2224  0.1906 -0.4702
 6921TIP3    H144958   1.862   3.039   9.802  0.1603  1.2064 -1.2018
 6921TIP3    H244959   1.993   2.988   9.745 -0.0423 -1.7437  0.7396
 6922TIP3   OH244960   3.741   3.008  10.460 -1.3586 -0.6290  0.3857
 6922TIP3    H144961   3.733   2.927  10.408 -0.3164 -0.7603  0.4074
 6922TIP3    H244962   3.806   3.060  10.412  0.6264 -1.2980  2.2095
 6923TIP3   OH244963   6.640   0.046  11.896  0.0266 -0.3758 -0.0709
 6923TIP3    H144964   6.678   0.118  11.847 -0.4628  0.3559  0.5936
 6923TIP3    H244965   6.684  -0.032  11.863 -0.8999 -0.0318 -2.2843
 6924TIP3   OH244966   0.947   0.454   9.859 -0.4069 -0.6273  0.1398
 6924TIP3    H144967   0.986   0.540   9.843 -1.9055 -0.0601 -0.6864
 6924TIP3    H244968   1.014   0.406   9.908  0.6254  0.8593  0.2604
 6925TIP3   OH244969   0.055   2.649  10.404  0.0230 -0.5377  0.1960
 6925TIP3    H144970   0.136   2.600  10.417 -0.4377 -1.4745 -0.3979
 6925TIP3    H244971  -0.012   2.597  10.448 -0.1135  0.8107  1.7095
 6926TIP3   OH244972   4.707   4.828  12.463 -0.2887  0.2973 -0.3030
 6926TIP3    H144973   4.648   4.857  12.533 -0.2740 -0.5541  0.0857
 6926TIP3    H244974   4.753   4.753  12.501  0.1128  0.1550 -1.0493
 6927TIP3   OH244975   5.230   1.478  10.495  0.3031  0.1073  0.2990
 6927TIP3    H144976   5.296   1.465  10.427 -0.4879 -0.2994 -0.4165
 6927TIP3    H244977   5.269   1.541  10.554  1.4817 -0.3962  0.0988
 6928TIP3   OH244978   1.507   3.171   9.777  0.1420  0.0331 -0.7302
 6928TIP3    H144979   1.455   3.189   9.855 -0.2764  0.3155 -1.0757
 6928TIP3    H244980   1.500   3.076   9.765 -0.1387  0.0471 -0.6701
 6929TIP3   OH244981   4.531   6.596  11.457  0.0938 -0.1518  0.7126
 6929TIP3    H144982   4.547   6.504  11.478 -2.3030 -0.9527 -0.6124
 6929TIP3    H244983   4.446   6.615  11.496 -0.0230  1.1360 -0.1043
 6930TIP3   OH244984   4.336   2.128   9.881 -0.3009  0.2500 -0.5268
 6930TIP3    H144985   4.424   2.133   9.918 -0.3024 -1.6410 -0.1865
 6930TIP3    H244986   4.349   2.091   9.794 -0.9015 -2.3040  0.3913
 6931TIP3   OH244987   3.436   6.499  11.529 -0.0122 -0.0685  0.0891
 6931TIP3    H144988   3.471   6.461  11.448 -0.6549 -0.7089  0.1075
 6931TIP3    H244989   3.372   6.564  11.499 -1.2065 -1.2222  0.0830
 6932TIP3   OH244990   2.448   1.375   9.770 -0.7519  0.8745  0.5318
 6932TIP3    H144991   2.451   1.357   9.676 -1.2706  1.3035  0.4327
 6932TIP3    H244992   2.534   1.348   9.802 -0.1064  1.9088 -0.2743
 6933TIP3   OH244993   6.647   2.115  12.712 -0.1825 -0.3583  0.2777
 6933TIP3    H144994   6.636   2.038  12.768  0.9854 -2.3188 -1.9869
 6933TIP3    H244995   6.625   2.189  12.768 -1.4955 -2.3237  2.5582
 6934TIP3   OH244996   3.525   0.738  10.534  0.5429  0.8598  0.3224
 6934TIP3    H144997   3.530   0.794  10.456  1.0158 -0.6688 -0.8097
 6934TIP3    H244998   3.577   0.661  10.510 -1.0036 -0.5634  1.3707
 6935TIP3   OH244999   3.527   2.003   9.276  1.0083 -0.5382  0.3151
 6935TIP3    H145000   3.456   2.014   9.340  0.4659 -1.6748 -0.0731
 6935TIP3    H245001   3.515   1.915   9.241  1.9887 -0.3556 -0.5302
 6936TIP3   OH245002   3.827   2.526  12.146 -0.1078  0.3118  0.0972
 6936TIP3    H145003   3.921   2.530  12.164 -0.0613  1.0868 -0.3158
 6936TIP3    H245004   3.785   2.550  12.229 -0.0516 -3.2071  1.3429
 6937TIP3   OH245005   5.728   3.946   9.669  0.0678 -0.0539  0.5861
 6937TIP3    H145006   5.753   3.872   9.612 -1.5488  0.5206 -0.9669
 6937TIP3    H245007   5.785   4.017   9.641  0.9465 -0.4220  1.3994
 6938TIP3   OH245008   3.736   5.988  11.531  0.3210  0.6025 -0.0427
 6938TIP3    H145009   3.775   5.971  11.445  1.6354 -0.6508  0.7578
 6938TIP3    H245010   3.658   5.933  11.533  1.5249 -1.1796  0.3869
 6939TIP3   OH245011   4.468   0.344  10.383  0.2520  0.2650  0.8841
 6939TIP3    H145012   4.453   0.438  10.373  0.3395  0.0290 -3.4334
 6939TIP3    H245013   4.563   0.334  10.383  0.3632  0.1435 -2.4024
 6940TIP3   OH245014   2.671   6.334  10.112 -0.4837 -0.3879 -0.5750
 6940TIP3    H145015   2.643   6.276  10.183 -0.3685 -1.0555 -1.0688
 6940TIP3    H245016   2.655   6.284  10.032  3.3272 -1.4097 -0.8742
 6941TIP3   OH245017   3.601   5.595  12.445 -0.3411 -0.2939 -0.7761
 6941TIP3    H145018   3.622   5.621  12.534 -1.5295  0.3360 -0.6521
 6941TIP3    H245019   3.542   5.520  12.456 -1.5664  0.6143 -0.9748
 6942TIP3   OH245020   6.500   2.128  10.361 -0.1879 -0.3590  0.1135
 6942TIP3    H145021   6.475   2.101  10.450  2.0595  0.4237  1.0521
 6942TIP3    H245022   6.562   2.061  10.333 -0.2690 -0.1589 -0.5432
 6943TIP3   OH245023   0.758   2.405   9.996 -0.2121 -0.2575  0.3676
 6943TIP3    H145024   0.755   2.486   9.944  2.5133 -0.2638  0.0839
 6943TIP3    H245025   0.680   2.409  10.051  0.5352  3.2782  1.3978
 6944TIP3   OH245026   2.441   3.295  10.089  0.0811  0.2106  0.5365
 6944TIP3    H145027   2.428   3.254  10.003 -1.3777 -0.0498  0.8498
 6944TIP3    H245028   2.480   3.380  10.069 -2.3878  1.1721 -0.6252
 6945TIP3   OH245029   0.931   1.208  11.983  0.2682 -0.2912 -0.2219
 6945TIP3    H145030   0.853   1.247  12.024 -0.2227 -2.2233  0.8030
 6945TIP3    H245031   0.983   1.176  12.056  2.4130  1.5113 -0.8516
 6946TIP3   OH245032   5.946   3.792  10.983 -0.5345 -0.4196  0.6543
 6946TIP3    H145033   5.864   3.827  11.018 -0.3088  0.4624  0.3132
 6946TIP3    H245034   5.926   3.771  10.892  0.4860  3.0913 -0.5409
 6947TIP3   OH245035   2.656   3.724  11.269  0.1296  0.2464 -0.2857
 6947TIP3    H145036   2.610   3.641  11.277 -0.3017  0.5995  1.3604
 6947TIP3    H245037   2.738   3.711  11.316 -0.1981  0.9069  0.4998
 6948TIP3   OH245038   1.711   4.032  11.569 -0.4249  0.3393 -0.4012
 6948TIP3    H145039   1.802   4.030  11.540 -0.1576 -2.6195  0.3567
 6948TIP3    H245040   1.715   4.064  11.659 -0.2306  0.8875 -0.6016
 6949TIP3   OH245041   5.562   5.581  11.089  0.1371  0.1833  0.1817
 6949TIP3    H145042   5.565   5.562  10.995 -1.7170  0.4161  0.0443
 6949TIP3    H245043   5.586   5.673  11.095  0.3904  0.1348 -0.0456
 6950TIP3   OH245044   2.669   1.139   9.186  0.0614  0.2659 -0.0788
 6950TIP3    H145045   2.589   1.107   9.145  0.6110  0.4475 -1.3619
 6950TIP3    H245046   2.703   1.064   9.235  0.8968 -0.9490 -2.3633
 6951TIP3   OH245047   5.483   6.507   9.692 -0.0015 -0.4269  0.0954
 6951TIP3    H145048   5.562   6.531   9.645 -0.8821 -0.5307 -1.5237
 6951TIP3    H245049   5.484   6.412   9.695 -0.0748 -0.4300  0.0432
 6952TIP3   OH245050   1.158   1.589  12.156  0.1281 -0.2038  0.1144
 6952TIP3    H145051   1.214   1.666  12.146 -0.7361  0.2428 -1.9263
 6952TIP3    H245052   1.071   1.620  12.131 -0.3341 -1.6978 -0.2040
 6953TIP3   OH245053   4.305   5.186  11.970  0.2307 -0.0888 -0.5033
 6953TIP3    H145054   4.358   5.252  11.925 -0.8859  1.8772  0.9443
 6953TIP3    H245055   4.267   5.232  12.045 -0.7535 -2.3462  0.4725
 6954TIP3   OH245056   3.433   3.737  11.323  0.3503  0.2414  0.3181
 6954TIP3    H145057   3.515   3.739  11.273  0.6371 -0.5344  0.7401
 6954TIP3    H245058   3.438   3.812  11.381 -0.4830  1.8279 -1.5525
 6955TIP3   OH245059   5.668   1.779   9.292 -0.0562  0.1248 -0.0293
 6955TIP3    H145060   5.706   1.865   9.313 -0.0290 -0.0963  0.8441
 6955TIP3    H245061   5.591   1.799   9.240  0.7817  0.6164 -1.1330
 6956TIP3   OH245062   5.108   5.845   9.950  0.1144 -0.3586 -0.4266
 6956TIP3    H145063   5.149   5.758   9.951  0.2535 -0.3166 -1.3092
 6956TIP3    H245064   5.169   5.901   9.997 -1.2145 -1.2317  2.5443
 6957TIP3   OH245065   4.277   6.116  12.124 -0.0556  0.5317  0.6172
 6957TIP3    H145066   4.298   6.037  12.174  0.5096 -0.6198 -1.3565
 6957TIP3    H245067   4.333   6.184  12.162 -0.6888  0.0832  2.4704
 6958TIP3   OH245068   1.744   6.081   9.415  0.5034 -0.6065 -0.6080
 6958TIP3    H145069   1.787   6.079   9.501 -0.4275  0.0833 -0.1079
 6958TIP3    H245070   1.816   6.081   9.352  1.3450  2.1933  0.2111
 6959TIP3   OH245071   3.354   2.671  11.482  0.3224 -0.3141 -0.4109
 6959TIP3    H145072   3.262   2.665  11.509  0.3337 -1.0275 -0.5035
 6959TIP3    H245073   3.380   2.580  11.468  1.4207 -0.2234  0.8993
 6960TIP3   OH245074   6.672   2.144  11.425  0.4467  0.1479  0.6493
 6960TIP3    H145075   6.616   2.096  11.365  3.5011 -3.7461  0.5482
 6960TIP3    H245076   6.628   2.137  11.510 -0.6615 -0.1499  0.0656
 6961TIP3   OH245077   1.556   1.436   9.981 -0.2258  0.4805  0.3212
 6961TIP3    H145078   1.530   1.441   9.889  0.5730  1.9128  0.1444
 6961TIP3    H245079   1.483   1.476  10.028 -1.3895 -1.7193  0.5179
 6962TIP3   OH245080   1.776   3.862  10.417  0.0115  0.4266  0.0550
 6962TIP3    H145081   1.793   3.769  10.401 -1.2289  0.2290 -0.1798
 6962TIP3    H245082   1.863   3.900  10.431  0.6675 -0.4829 -1.3487
 6963TIP3   OH245083   2.349   1.761  10.444 -0.4895 -0.1064 -0.1149
 6963TIP3    H145084   2.265   1.737  10.482 -0.5806  0.8881  0.3277
 6963TIP3    H245085   2.353   1.856  10.451  0.1979 -0.0456 -1.1307
 6964TIP3   OH245086   0.188   2.850  10.160 -0.0788  0.0417  0.1111
 6964TIP3    H145087   0.187   2.907  10.237  1.2885  1.0854 -0.5950
 6964TIP3    H245088   0.102   2.862  10.120 -0.7866 -0.4812  1.4310
 6965TIP3   OH245089   4.975   5.577   9.004 -0.3971 -0.1760 -0.5905
 6965TIP3    H145090   4.991   5.489   9.039 -0.7723  0.5075  1.3872
 6965TIP3    H245091   4.920   5.620   9.069 -1.0209  1.2387 -1.9737
 6966TIP3   OH245092   3.792   5.183   9.523  0.2262 -0.7475 -0.4097
 6966TIP3    H145093   3.858   5.219   9.463 -0.2813 -0.4762 -0.8147
 6966TIP3    H245094   3.773   5.256   9.583 -1.8557  0.2119 -2.1089
 6967TIP3   OH245095   6.017   5.967  12.296  0.2077  0.7012 -0.2583
 6967TIP3    H145096   6.100   5.952  12.341  0.4183 -1.5399 -1.2402
 6967TIP3    H245097   6.041   5.980  12.204 -0.5031 -1.3636 -0.8154
 6968TIP3   OH245098   3.283   4.789  10.017 -0.3607 -0.0036  0.1219
 6968TIP3    H145099   3.331   4.848  10.076 -1.8931  2.6535 -1.1200
 6968TIP3    H245100   3.318   4.807   9.930  0.0414 -1.9707 -0.1762
 6969TIP3   OH245101   5.736   0.431  11.312 -0.0910  0.1891 -0.1378
 6969TIP3    H145102   5.746   0.401  11.221 -0.4844 -0.6238  0.0730
 6969TIP3    H245103   5.653   0.478  11.313  0.6542  1.5696 -0.5296
 6970TIP3   OH245104   1.572   6.667  10.195 -0.0254  0.5556 -0.1206
 6970TIP3    H145105   1.580   6.572  10.198 -0.7040  0.4782 -0.5495
 6970TIP3    H245106   1.479   6.684  10.210 -0.0219  1.1105 -0.6740
 6971TIP3   OH245107   2.678   6.279  11.715 -0.5912  0.1808  0.2720
 6971TIP3    H145108   2.646   6.192  11.739  1.4337 -0.5073  0.6207
 6971TIP3    H245109   2.724   6.265  11.632 -0.2056  0.9015  0.3584
 6972TIP3   OH245110   4.386   1.532  10.612  0.4401  0.2624 -0.3546
 6972TIP3    H145111   4.292   1.536  10.594  0.4199  0.8891 -0.1485
 6972TIP3    H245112   4.410   1.441  10.595 -0.3748 -0.1147  0.4199
 6973TIP3   OH245113   3.107   4.964  12.439 -0.4068 -0.3048  0.1997
 6973TIP3    H145114   3.144   4.927  12.519  0.4832  1.0070  0.4181
 6973TIP3    H245115   3.017   4.986  12.463  0.0591  0.7399  1.0883
 6974TIP3   OH245116   0.558   4.113   9.847 -0.0106  0.3744 -0.0379
 6974TIP3    H145117   0.479   4.167   9.850  0.5603  1.2067  0.4758
 6974TIP3    H245118   0.626   4.167   9.887  0.6662 -0.5986  0.1743
 6975TIP3   OH245119   5.055   4.584  10.127 -0.7927  0.2166 -0.5780
 6975TIP3    H145120   5.112   4.650  10.087  0.1491 -2.1583 -3.5522
 6975TIP3    H245121   4.969   4.600  10.087 -1.2490  1.1397  0.6803
 6976TIP3   OH245122   4.729   6.209   9.387  0.1835  0.1469 -0.4228
 6976TIP3    H145123   4.733   6.113   9.382 -0.4137  0.1840 -3.0483
 6976TIP3    H245124   4.640   6.228   9.416  0.8363 -0.0383  1.9319
 6977TIP3   OH245125   2.239   0.044  11.890  0.1458  0.0494 -0.1577
 6977TIP3    H145126   2.198   0.057  11.976 -0.6658  2.3187 -0.8172
 6977TIP3    H245127   2.204  -0.039  11.859 -1.7854  0.5476  0.5295
 6978TIP3   OH245128   0.608   6.182   9.401  0.3917  0.1302  0.2296
 6978TIP3    H145129   0.550   6.218   9.469 -0.4106  1.4865 -1.0958
 6978TIP3    H245130   0.673   6.250   9.387  0.5622 -0.1439 -0.3261
 6979TIP3   OH245131   0.881   0.916   9.170 -0.3053 -0.6502  0.7221
 6979TIP3    H145132   0.802   0.880   9.210 -0.6232  1.6175  2.3539
 6979TIP3    H245133   0.885   1.006   9.202  1.2580  0.3022 -1.8298
 6980TIP3   OH245134   4.317   1.267  12.561 -0.0020 -0.9402 -0.4131
 6980TIP3    H145135   4.360   1.191  12.524  1.2861  0.1901 -1.3369
 6980TIP3    H245136   4.376   1.340  12.542 -0.8739  0.1987  1.0061
 6981TIP3   OH245137   0.179   0.381  12.293 -0.8005  0.3466 -0.0303
 6981TIP3    H145138   0.249   0.430  12.335 -0.4235  0.6796 -1.0037
 6981TIP3    H245139   0.208   0.370  12.202 -1.0253 -1.4216  0.0803
 6982TIP3   OH245140   0.934   3.768  11.621 -0.1599 -0.3336 -0.4357
 6982TIP3    H145141   0.915   3.710  11.695  0.0658 -0.7217 -0.6770
 6982TIP3    H245142   0.866   3.835  11.625  0.8772  0.6982  1.2097
 6983TIP3   OH245143   0.791   6.348  12.159  0.1984 -0.1935 -0.0889
 6983TIP3    H145144   0.837   6.426  12.126  0.6765 -0.1371  0.6807
 6983TIP3    H245145   0.808   6.349  12.253  0.0333 -1.1203 -0.0429
 6984TIP3   OH245146   5.902   2.238  10.565  0.0466 -0.3128 -0.0073
 6984TIP3    H145147   5.868   2.163  10.614  0.0857 -1.1662 -1.2496
 6984TIP3    H245148   5.976   2.269  10.617 -2.1764  1.2735  2.5231
 6985TIP3   OH245149   4.313   3.485  11.952  0.2830  0.4489  0.5800
 6985TIP3    H145150   4.343   3.401  11.988 -1.2889  0.4243  1.9656
 6985TIP3    H245151   4.300   3.468  11.859 -1.1713 -1.2462  1.0311
 6986TIP3   OH245152   1.822   3.268  12.307  0.7916 -0.1049  0.8685
 6986TIP3    H145153   1.821   3.173  12.292  1.7902 -0.0996  0.7204
 6986TIP3    H245154   1.747   3.283  12.364 -0.2756 -0.7797 -0.2912
 6987TIP3   OH245155   5.024   2.038  10.986  0.4947  0.1528 -0.6348
 6987TIP3    H145156   4.992   1.994  10.908 -0.5492  0.1360 -0.2223
 6987TIP3    H245157   5.031   1.969  11.052 -1.0202  0.5329 -0.0254
 6988TIP3   OH245158   0.742   3.135   9.066  0.7727 -0.2372 -0.1713
 6988TIP3    H145159   0.759   3.213   9.012  0.9637  0.2556  0.5930
 6988TIP3    H245160   0.828   3.097   9.081  0.8479  0.2836  0.7583
 6989TIP3   OH245161   0.261   1.507   9.568  0.5051  0.2555 -0.3418
 6989TIP3    H145162   0.170   1.494   9.539  0.4103 -1.5704  0.6457
 6989TIP3    H245163   0.304   1.424   9.549  1.9381  1.0306 -0.5917
 6990TIP3   OH245164   5.605   3.032   9.838 -0.3252  0.2144  0.6379
 6990TIP3    H145165   5.520   2.996   9.814  0.0299 -1.1802  1.3665
 6990TIP3    H245166   5.591   3.126   9.844 -1.5845  0.0943 -0.1463
 6991TIP3   OH245167   5.625   5.590  10.792  0.2675 -0.7530  0.2406
 6991TIP3    H145168   5.645   5.511  10.742 -0.8537 -0.5531 -0.5567
 6991TIP3    H245169   5.566   5.640  10.735  0.7899  0.5659  0.8131
 6992TIP3   OH245170   5.175   0.181  11.735  0.3009  0.2345 -0.1787
 6992TIP3    H145171   5.219   0.144  11.811 -2.0400 -2.5133 -0.0093
 6992TIP3    H245172   5.190   0.118  11.665  1.9386  2.4365 -1.9664
 6993TIP3   OH245173   6.371   0.884  11.510  0.5018  0.4221  0.0023
 6993TIP3    H145174   6.327   0.968  11.499  0.0180  0.1053 -0.5864
 6993TIP3    H245175   6.368   0.844  11.423 -1.0384 -1.0543  0.6673
 6994TIP3   OH245176   1.654   1.432  10.937 -0.0892  0.2502  0.2586
 6994TIP3    H145177   1.694   1.519  10.946  0.3070  0.5362 -3.1226
 6994TIP3    H245178   1.592   1.441  10.866 -0.2875 -2.1835  0.0443
 6995TIP3   OH245179   1.495   0.109   9.816 -0.3648 -0.0361 -0.5036
 6995TIP3    H145180   1.551   0.171   9.769  0.1537  0.1927  0.3827
 6995TIP3    H245181   1.435   0.165   9.866  0.0825 -0.2401  0.2733
 6996TIP3   OH245182   2.637   5.036  10.288 -0.5031 -0.9697 -0.0855
 6996TIP3    H145183   2.665   4.962  10.234 -0.2128 -0.4194 -0.7008
 6996TIP3    H245184   2.657   5.009  10.377  0.5363 -1.2378 -0.3871
 6997TIP3   OH245185   2.127   3.319   9.685 -0.2999  0.4492  0.0038
 6997TIP3    H145186   2.059   3.354   9.627 -0.0550  1.4534  0.3078
 6997TIP3    H245187   2.209   3.333   9.638 -0.1515  0.7920  0.3572
 6998TIP3   OH245188   4.509   5.935  11.871 -0.6968  0.0808  0.7080
 6998TIP3    H145189   4.497   5.841  11.878 -0.3829 -0.0396 -0.2503
 6998TIP3    H245190   4.588   5.953  11.921  1.0718 -0.6403 -1.6614
 6999TIP3   OH245191   0.575   5.270  12.761  0.3450  0.0869 -0.1834
 6999TIP3    H145192   0.498   5.233  12.717 -0.1439  2.8496 -1.8737
 6999TIP3    H245193   0.549   5.359  12.786  3.0968  1.3080 -1.2614
 7000TIP3   OH245194   6.687   2.916   9.988 -0.1744 -0.4233 -0.2644
 7000TIP3    H145195   6.708   2.906   9.895  0.4387 -0.0045 -0.1747
 7000TIP3    H245196   6.630   2.992   9.992  0.9740  0.4532 -0.1451
 7001TIP3   OH245197   4.677   3.713  10.050  0.1150  0.5005 -0.1599
 7001TIP3    H145198   4.600   3.695   9.997  0.3424  1.3221 -0.7981
 7001TIP3    H245199   4.651   3.787  10.106  0.6133  1.1990 -0.8219
 7002TIP3   OH245200   1.641   6.573  10.903  0.5633  0.0224 -0.1062
 7002TIP3    H145201   1.592   6.648  10.868 -0.5964 -0.8403 -0.3739
 7002TIP3    H245202   1.733   6.598  10.893  0.2001  1.3110 -0.4045
 7003TIP3   OH245203   4.933   1.482  10.437 -0.5653 -0.1256  0.1607
 7003TIP3    H145204   4.936   1.573  10.407 -1.0597  0.6683  2.3414
 7003TIP3    H245205   5.025   1.455  10.441 -0.4026  0.3612 -0.1961
 7004TIP3   OH245206   5.942   1.413   9.961 -0.6284 -0.2917 -0.0284
 7004TIP3    H145207   5.888   1.473  10.014  1.0696  1.4338 -0.1132
 7004TIP3    H245208   6.031   1.428   9.993  0.1300 -1.0944 -1.6781
 7005TIP3   OH245209   0.107   5.110  12.660 -0.6740  0.2577  0.1774
 7005TIP3    H145210   0.039   5.172  12.688  0.4485  1.5031  0.2246
 7005TIP3    H245211   0.058   5.034  12.627 -2.0617  0.3571  1.8959
 7006TIP3   OH245212   2.153   5.352  11.591  0.3439  0.0827  0.3986
 7006TIP3    H145213   2.072   5.403  11.579  0.7277  0.7330  0.4987
 7006TIP3    H245214   2.137   5.300  11.670 -0.1162 -0.0758  0.2045
 7007TIP3   OH245215   3.262   0.188  11.816  0.3498  0.1408 -1.0161
 7007TIP3    H145216   3.330   0.242  11.857 -0.2586  1.1134 -1.2325
 7007TIP3    H245217   3.188   0.249  11.804 -0.2114 -0.6463 -1.6537
 7008TIP3   OH245218   1.850   5.300  10.355  0.0049 -0.0889  0.2497
 7008TIP3    H145219   1.932   5.336  10.389  0.4765  0.0483 -0.9860
 7008TIP3    H245220   1.808   5.375  10.311 -0.7028 -0.2047  0.7077
 7009TIP3   OH245221   6.619   3.072  11.664  0.3052 -0.4470  0.0465
 7009TIP3    H145222   6.698   3.124  11.679  1.0207 -1.0857 -1.2731
 7009TIP3    H245223   6.643   3.012  11.594 -1.4597 -0.4420 -0.6236
 7010TIP3   OH245224   5.401   4.455  11.251 -0.2469 -0.3473  0.7383
 7010TIP3    H145225   5.342   4.401  11.304 -1.0554  0.3633  0.5861
 7010TIP3    H245226   5.476   4.398  11.234 -0.0900 -0.6962  2.3891
 7011TIP3   OH245227   4.096   5.893   9.974  0.0142  0.1487 -0.4875
 7011TIP3    H145228   4.018   5.949   9.978  0.0344  0.1530 -0.1378
 7011TIP3    H245229   4.152   5.926  10.043  0.0908 -0.2142 -0.3771
 7012TIP3   OH245230   3.525   2.687  11.096 -0.3588 -0.2560 -0.2376
 7012TIP3    H145231   3.493   2.716  11.011 -0.3151  1.7481  0.3851
 7012TIP3    H245232   3.448   2.688  11.153 -0.1136 -0.1436  0.0961
 7013TIP3   OH245233   3.344   5.707  11.152  0.2020 -0.4271 -0.6337
 7013TIP3    H145234   3.416   5.764  11.179  0.9945 -1.8567  0.3818
 7013TIP3    H245235   3.382   5.619  11.148 -1.7510 -1.4966  1.3818
 7014TIP3   OH245236   0.848   1.387   9.751 -0.1402  0.0461 -0.2254
 7014TIP3    H145237   0.811   1.444   9.818  2.8227 -0.1395  1.7726
 7014TIP3    H245238   0.932   1.427   9.729  1.2474 -2.5197 -0.0429
 7015TIP3   OH245239   0.389   6.583  10.552 -0.7395  0.0945  0.4072
 7015TIP3    H145240   0.420   6.672  10.568 -1.0080  0.2925 -0.1692
 7015TIP3    H245241   0.407   6.566  10.460 -3.0682  0.5322 -0.1926
 7016TIP3   OH245242   5.206   1.060  10.249  0.4355 -0.2072 -0.0700
 7016TIP3    H145243   5.260   1.124  10.203  1.4468 -0.2631  0.9845
 7016TIP3    H245244   5.173   1.107  10.325 -0.3184 -0.4323 -0.2464
 7017TIP3   OH245245   6.223   1.130  11.137  0.6471  0.1437 -0.5212
 7017TIP3    H145246   6.317   1.109  11.133  0.6037 -0.0988 -0.2807
 7017TIP3    H245247   6.210   1.166  11.224 -0.2852 -3.9125  1.2775
 7018TIP3   OH245248   3.216   0.120  11.227 -0.0654  0.1171 -0.9155
 7018TIP3    H145249   3.129   0.096  11.258  0.5771 -2.2632 -0.7356
 7018TIP3    H245250   3.201   0.187  11.160 -2.0995 -0.9388 -1.5916
 7019TIP3   OH245251   6.625   1.306  11.698  0.2390  0.3223  0.0524
 7019TIP3    H145252   6.711   1.338  11.670  1.4396 -2.5632  0.0887
 7019TIP3    H245253   6.625   1.315  11.793 -0.2689  1.9416 -0.0682
 7020TIP3   OH245254   3.513   3.065  10.072 -0.4380  0.0196 -0.6194
 7020TIP3    H145255   3.431   3.084  10.026 -1.7964 -1.9311  0.8648
 7020TIP3    H245256   3.578   3.054  10.002 -1.1770  2.4190 -1.7954
 7021TIP3   OH245257   4.403   4.136  11.761 -0.9418  0.6147 -0.0638
 7021TIP3    H145258   4.474   4.201  11.770 -0.6655  0.3111 -0.0185
 7021TIP3    H245259   4.360   4.137  11.846  0.5525 -0.9627  0.7777
 7022TIP3   OH245260   6.589   4.345   9.669  0.1218  0.5597 -0.1323
 7022TIP3    H145261   6.598   4.361   9.575  0.1420 -0.6094 -0.3475
 7022TIP3    H245262   6.575   4.250   9.676  1.5931  0.3988  1.1447
 7023TIP3   OH245263   1.419   2.529  11.126  0.7086 -0.3909  0.0281
 7023TIP3    H145264   1.388   2.438  11.126  1.5903 -0.7163  1.0019
 7023TIP3    H245265   1.414   2.556  11.034 -0.8818 -0.9542 -0.0733
 7024TIP3   OH245266   4.269   5.627  11.557 -0.1977  0.3491 -0.6102
 7024TIP3    H145267   4.339   5.611  11.494 -0.1542  2.1039 -1.0744
 7024TIP3    H245268   4.269   5.722  11.568 -1.2845  0.2177  0.8111
 7025TIP3   OH245269   1.918   3.352  10.132 -0.0531  0.4551 -0.4171
 7025TIP3    H145270   1.986   3.333  10.196 -1.1229 -0.2827  0.5513
 7025TIP3    H245271   1.929   3.445  10.111  2.6598 -0.1436 -2.0623
 7026TIP3   OH245272   1.974   1.478   9.874  0.0402 -0.0301  0.0629
 7026TIP3    H145273   1.997   1.565   9.841  1.8105  0.0581  1.4029
 7026TIP3    H245274   2.057   1.431   9.878 -0.6116 -1.1594  1.1080
 7027TIP3   OH245275   2.076   4.303  10.571 -0.2967  0.4083 -0.2514
 7027TIP3    H145276   2.026   4.238  10.620  0.1288 -0.2031 -0.6090
 7027TIP3    H245277   2.164   4.299  10.609 -0.0250  0.0920 -0.8940
 7028TIP3   OH245278   5.877   3.285  10.045  0.1261  0.1458  0.0695
 7028TIP3    H145279   5.958   3.335  10.035 -0.4843  1.1112 -0.2171
 7028TIP3    H245280   5.866   3.276  10.139  0.5124  0.0918  0.1131
 7029TIP3   OH245281   3.634   5.174  11.918  0.3109  0.8831  0.5148
 7029TIP3    H145282   3.637   5.209  12.007  0.5783 -0.0770  0.8912
 7029TIP3    H245283   3.688   5.095  11.921  0.5226  0.9669 -0.5628
 7030TIP3   OH245284   5.312   1.464   9.744 -0.6180  0.3665  0.4329
 7030TIP3    H145285   5.301   1.542   9.799 -2.0468 -1.0567  2.3066
 7030TIP3    H245286   5.236   1.409   9.764 -0.1974 -1.0809 -1.5993
 7031TIP3   OH245287   4.552   6.324   9.721 -0.0366 -0.4879 -0.3072
 7031TIP3    H145288   4.518   6.296   9.636 -1.8033  0.9764 -0.1324
 7031TIP3    H245289   4.602   6.404   9.701  0.6148 -0.8408 -0.1192
 7032TIP3   OH245290   2.514   3.632  11.878  0.1513  0.2470 -0.0535
 7032TIP3    H145291   2.439   3.620  11.935  1.1497 -0.4737  1.1709
 7032TIP3    H245292   2.478   3.667  11.797 -1.2895  1.5993  1.1114
 7033TIP3   OH245293   0.180   6.057  11.532  0.1210 -0.5523 -0.0451
 7033TIP3    H145294   0.130   6.005  11.595  0.4734  0.0164  0.7208
 7033TIP3    H245295   0.271   6.034  11.548  0.2377 -0.1457 -0.1023
 7034TIP3   OH245296   0.333   1.005  10.490 -0.4190 -0.5029 -0.1047
 7034TIP3    H145297   0.312   0.965  10.406  0.6994  0.0118 -0.6419
 7034TIP3    H245298   0.337   1.099  10.473  0.5542 -0.4462  0.3401
 7035TIP3   OH245299   0.686   0.390  11.322 -0.2619  0.5471 -0.1680
 7035TIP3    H145300   0.775   0.355  11.314  0.4524  2.0229  0.7217
 7035TIP3    H245301   0.638   0.323  11.370  0.3545 -0.3027 -0.7196
 7036TIP3   OH245302   3.868   3.370  11.965 -0.0936  0.1729 -0.1195
 7036TIP3    H145303   3.831   3.348  12.050  0.6780 -0.8112 -0.0198
 7036TIP3    H245304   3.798   3.417  11.919 -0.0402  2.0350  1.5783
 7037TIP3   OH245305   4.398   2.055  11.828  0.0762 -0.7952 -0.3544
 7037TIP3    H145306   4.354   2.059  11.743  0.6207  0.6159 -0.6057
 7037TIP3    H245307   4.359   1.980  11.872 -0.0253 -1.7246 -1.9517
 7038TIP3   OH245308   0.092   4.485  19.525 -0.1617 -0.7062 -0.2933
 7038TIP3    H145309   0.006   4.450  19.545 -0.9000  1.0146 -0.3034
 7038TIP3    H245310   0.126   4.516  19.609 -0.2653  0.1076 -0.5436
 7039TIP3   OH245311   1.119   4.544  11.053 -0.4148  0.2733  0.2523
 7039TIP3    H145312   1.046   4.590  11.094  0.2333 -0.6532  2.6413
 7039TIP3    H245313   1.162   4.498  11.126  1.8391 -0.1648 -1.2527
 7040TIP3   OH245314   1.312   1.562  10.456  0.2161 -0.2557  0.0964
 7040TIP3    H145315   1.360   1.620  10.397  1.3770 -1.1683  0.1128
 7040TIP3    H245316   1.364   1.482  10.459 -0.1987 -0.5033  1.7699
 7041TIP3   OH245317   3.810   2.316  11.225 -0.2856 -0.5021 -0.1419
 7041TIP3    H145318   3.883   2.374  11.205 -0.9237  0.1583 -0.5964
 7041TIP3    H245319   3.830   2.235  11.177  1.0686 -1.0354  1.2257
 7042TIP3   OH245320   6.020   2.948  11.954  0.0759 -0.4255  0.0074
 7042TIP3    H145321   6.077   3.025  11.958 -1.0234  0.3611  1.6009
 7042TIP3    H245322   6.058   2.887  12.017  0.6743 -1.0239 -0.9116
 7043TIP3   OH245323   0.168   1.474  11.845  0.0404  0.2310  0.4937
 7043TIP3    H145324   0.170   1.569  11.854  0.5179  0.2754 -0.0634
 7043TIP3    H245325   0.090   1.447  11.893 -1.0608  1.0568 -0.7866
 7044TIP3   OH245326   5.957   1.898  11.219  0.2897 -0.4421 -0.0472
 7044TIP3    H145327   6.050   1.887  11.198  0.6981  1.1691  0.8077
 7044TIP3    H245328   5.954   1.972  11.279 -1.6315  0.0783 -0.7099
 7045TIP3   OH245329   0.975   6.555  12.243  0.1231 -0.1771  0.9523
 7045TIP3    H145330   1.056   6.575  12.290  0.6348  0.1517 -0.0426
 7045TIP3    H245331   0.907   6.601  12.291  0.9370  1.9947  0.1408
 7046TIP3   OH245332   5.897   1.165  13.027  0.1145 -0.1261 -0.2075
 7046TIP3    H145333   5.956   1.148  13.101 -0.1067 -0.9747 -0.2154
 7046TIP3    H245334   5.936   1.240  12.982  1.5029 -1.0067 -0.5356
 7047TIP3   OH245335   2.170   5.967   9.722  0.3099 -0.0156  0.2577
 7047TIP3    H145336   2.212   6.002   9.800  1.2194  0.3156 -0.3646
 7047TIP3    H245337   2.157   6.044   9.666 -0.8547 -0.1604  0.3057
 7048TIP3   OH245338   1.505   0.945   9.983 -0.9555  0.3154  0.6218
 7048TIP3    H145339   1.455   0.936  10.064 -0.2603  0.8428  1.1189
 7048TIP3    H245340   1.596   0.933  10.009 -0.7861 -0.2984 -0.2211
 7049TIP3   OH245341   5.524   0.489   9.250  0.0473  0.3001 -0.1772
 7049TIP3    H145342   5.489   0.451   9.169 -1.3833  1.3320 -0.0786
 7049TIP3    H245343   5.511   0.584   9.240 -0.0502  0.4569  1.2142
 7050TIP3   OH245344   0.172   4.184   9.421  0.2979  0.5692  0.2810
 7050TIP3    H145345   0.153   4.175   9.514 -2.3813 -0.9945 -0.2700
 7050TIP3    H245346   0.176   4.093   9.389  1.5735  1.0661 -1.0682
 7051TIP3   OH245347   0.627   5.749  10.657 -0.0810 -0.2657  0.1194
 7051TIP3    H145348   0.549   5.802  10.669 -0.4338 -0.3341 -1.5791
 7051TIP3    H245349   0.670   5.787  10.580  0.3804 -1.5905 -0.3046
 7052TIP3   OH245350   2.227   3.646  10.780 -0.0196 -0.0932  0.5961
 7052TIP3    H145351   2.287   3.576  10.754  1.6757  1.0955  1.2233
 7052TIP3    H245352   2.255   3.671  10.867  0.0173  2.0129  0.0224
 7053TIP3   OH245353   4.745   4.216  10.136 -0.2607 -0.1290  0.0002
 7053TIP3    H145354   4.731   4.238  10.044  2.4349  0.1081 -0.4372
 7053TIP3    H245355   4.707   4.289  10.185  0.6138  1.0428 -1.0501
 7054TIP3   OH245356   5.651   0.812  10.504 -0.4947 -0.1216 -0.0489
 7054TIP3    H145357   5.597   0.870  10.557  0.0609 -0.8333  1.3534
 7054TIP3    H245358   5.722   0.868  10.472  0.0372  0.0008  1.2878
 7055TIP3   OH245359   3.687   5.596  10.821 -0.0747  0.3397 -0.3212
 7055TIP3    H145360   3.673   5.690  10.820  0.3212  0.3902 -1.1555
 7055TIP3    H245361   3.637   5.563  10.747  1.7364  0.1811 -1.5322
 7056TIP3   OH245362   6.143   4.443  11.899  0.1041 -0.2283  0.0241
 7056TIP3    H145363   6.234   4.439  11.870  0.2798  0.2467  0.4914
 7056TIP3    H245364   6.139   4.521  11.954 -0.3020 -0.9218  0.9953
 7057TIP3   OH245365   3.812   1.181  11.642  0.1291  0.2019  0.2913
 7057TIP3    H145366   3.741   1.221  11.592 -0.3329 -0.0421  0.7545
 7057TIP3    H245367   3.834   1.246  11.708  0.3834  0.3011  0.1138
 7058TIP3   OH245368   6.683   5.483   9.367  0.1030  0.1992  0.4004
 7058TIP3    H145369   6.628   5.554   9.398 -0.5942 -1.0759  2.2786
 7058TIP3    H245370   6.711   5.438   9.447  2.1531 -0.4545 -0.6183
 7059TIP3   OH245371   1.512   3.402  11.221 -0.1767  0.2963  0.5143
 7059TIP3    H145372   1.489   3.473  11.282  0.6512  0.8418  0.2204
 7059TIP3    H245373   1.467   3.425  11.140  1.3741  1.4185 -0.0929
 7060TIP3   OH245374   1.174   0.491  10.818 -0.5343  0.4676  0.2463
 7060TIP3    H145375   1.194   0.580  10.789 -0.9083  0.6948  0.6777
 7060TIP3    H245376   1.108   0.502  10.887 -1.3690 -0.2016 -0.4217
 7061TIP3   OH245377   0.193   4.269  11.884  0.1786 -0.9394 -0.3558
 7061TIP3    H145378   0.282   4.282  11.915  0.6693  1.0233 -2.3257
 7061TIP3    H245379   0.183   4.332  11.813 -3.1437 -0.3657  0.4767
 7062TIP3   OH245380   1.795   6.388  10.798 -0.2527  0.0005 -0.0525
 7062TIP3    H145381   1.760   6.305  10.767 -1.1259  0.0715  0.7061
 7062TIP3    H245382   1.719   6.444  10.809  0.2408  0.6374  0.2395
 7063TIP3   OH245383   1.481   4.596  12.819 -0.6804  0.2703  0.2427
 7063TIP3    H145384   1.552   4.551  12.865 -0.0341  0.7256 -0.2942
 7063TIP3    H245385   1.422   4.625  12.889  0.6777  1.6403  0.8593
 7064TIP3   OH245386   4.047   3.786  10.792 -0.1620 -0.2818  0.0619
 7064TIP3    H145387   4.023   3.839  10.716 -1.3855 -3.0003 -1.6109
 7064TIP3    H245388   4.131   3.822  10.820  0.0918  1.1763 -2.2776
 7065TIP3   OH245389   2.305   0.264  11.604  0.3018 -0.1048 -0.3375
 7065TIP3    H145390   2.399   0.282  11.594 -0.0105  2.3702  0.6059
 7065TIP3    H245391   2.296   0.235  11.695  0.2934 -1.9294 -0.8632
 7066TIP3   OH245392   4.202   0.755  11.542 -0.1602  0.9320 -0.0645
 7066TIP3    H145393   4.160   0.725  11.622 -1.2977  0.9760 -0.6241
 7066TIP3    H245394   4.136   0.809  11.498  0.5821  1.2522 -0.8365
 7067TIP3   OH245395   4.743   5.398  11.427  0.3527  0.0019 -0.0117
 7067TIP3    H145396   4.711   5.469  11.371  0.4610  0.0202 -0.0500
 7067TIP3    H245397   4.809   5.354  11.374  0.4341  0.0014  0.0909
 7068TIP3   OH245398   2.812   5.894   9.379  0.2693  0.6010  0.0081
 7068TIP3    H145399   2.762   5.851   9.448  1.0053  0.4263  0.4361
 7068TIP3    H245400   2.847   5.973   9.419  0.4542  0.6538 -0.2535
 7069TIP3   OH245401   5.065   0.806  12.544 -0.2224  0.0403  0.3282
 7069TIP3    H145402   5.066   0.869  12.615  0.6999  0.3689  0.0417
 7069TIP3    H245403   4.973   0.801  12.517 -0.8177 -1.0212  2.3273
 7070TIP3   OH245404   3.528   1.631  10.543  0.2074  0.6263 -0.1093
 7070TIP3    H145405   3.517   1.541  10.574  1.0775  0.3839 -0.4671
 7070TIP3    H245406   3.558   1.621  10.453 -1.9957  1.3172 -0.9876
 7071TIP3   OH245407   3.824   3.259  10.761  0.0269 -0.6269  0.1261
 7071TIP3    H145408   3.865   3.324  10.818 -0.0106 -0.6218  0.1474
 7071TIP3    H245409   3.880   3.182  10.769 -1.2204 -1.4260  1.9751
 7072TIP3   OH245410   2.315   0.031   9.742 -0.2416  0.0286  0.0217
 7072TIP3    H145411   2.346   0.100   9.801 -1.3919  1.2839 -0.7899
 7072TIP3    H245412   2.351   0.054   9.657 -1.2658  0.0869 -0.4103
 7073TIP3   OH245413   2.521   0.290  11.206  0.4943 -0.0344 -0.1124
 7073TIP3    H145414   2.503   0.220  11.270 -2.0307  0.1708 -0.4951
 7073TIP3    H245415   2.486   0.256  11.124  1.7554  0.5900 -0.9261
 7074TIP3   OH245416   5.270   2.243   9.723 -0.2319  0.0264 -0.3240
 7074TIP3    H145417   5.216   2.168   9.697  0.6471 -0.1606 -1.7259
 7074TIP3    H245418   5.328   2.208   9.791 -1.1489 -0.0279  0.4612
 7075TIP3   OH245419   4.417   1.250  10.591 -0.6079 -0.5818  0.0699
 7075TIP3    H145420   4.504   1.252  10.550  0.2745 -1.9660  1.7388
 7075TIP3    H245421   4.430   1.291  10.676 -2.2525  1.6166 -0.6685
 7076TIP3   OH245422   1.535   5.304  12.366 -0.6268 -0.3032 -0.1646
 7076TIP3    H145423   1.520   5.210  12.359  2.2115 -0.9367  0.9457
 7076TIP3    H245424   1.551   5.319  12.460  1.3702  0.7986 -0.6168
 7077TIP3   OH245425   2.785   4.807  10.955  0.4616  0.3443  0.4389
 7077TIP3    H145426   2.833   4.735  10.913  0.2063  0.2359  0.3267
 7077TIP3    H245427   2.696   4.773  10.963  0.2104  0.8496 -0.1082
 7078TIP3   OH245428   6.170   1.352   9.171  0.1764  0.0272 -0.0565
 7078TIP3    H145429   6.204   1.428   9.123  1.7444 -0.5550  0.0868
 7078TIP3    H245430   6.086   1.382   9.207 -0.4288  0.8924 -2.0377
 7079TIP3   OH245431   2.539   4.731  10.791 -0.3924 -0.2249 -0.1010
 7079TIP3    H145432   2.543   4.638  10.768 -0.7441 -0.4610  0.7639
 7079TIP3    H245433   2.512   4.732  10.883 -1.9494  0.7762 -0.5368
 7080TIP3   OH245434   2.242   3.072  11.956  0.1740  0.0593 -0.0632
 7080TIP3    H145435   2.318   3.035  12.001 -0.2880 -0.7062  0.1110
 7080TIP3    H245436   2.276   3.149  11.910  0.7603  0.5687  1.1749
 7081TIP3   OH245437   2.608   1.591  10.006  0.2356 -0.0247 -0.9255
 7081TIP3    H145438   2.687   1.570  10.057  0.2178 -0.6729 -1.1550
 7081TIP3    H245439   2.642   1.618   9.920  0.2318  0.3390 -0.8161
 7082TIP3   OH245440   2.728   6.234   9.794 -0.0843 -0.2356 -0.1291
 7082TIP3    H145441   2.801   6.226   9.854 -0.3349 -1.1071  0.0814
 7082TIP3    H245442   2.762   6.202   9.710 -0.3402 -1.0959  0.0809
 7083TIP3   OH245443   4.877   2.245  10.068 -0.4093  0.0987  0.3630
 7083TIP3    H145444   4.823   2.273  10.142 -0.9907  1.1445 -0.4272
 7083TIP3    H245445   4.956   2.299  10.073 -1.8793  2.6683 -1.6280
 7084TIP3   OH245446   3.128   6.370  11.016  1.3006  0.2420  0.3446
 7084TIP3    H145447   3.036   6.396  11.017  1.4203  0.8634 -1.5151
 7084TIP3    H245448   3.141   6.325  11.100 -0.7734 -0.1795  0.4934
 7085TIP3   OH245449   0.986   4.381  10.588 -0.0862  0.4713 -0.0404
 7085TIP3    H145450   0.955   4.466  10.555 -1.0800  1.0509  2.1574
 7085TIP3    H245451   1.051   4.404  10.655 -0.6345 -0.4569  0.8477
 7086TIP3   OH245452   1.198   0.323  10.111  0.5826  0.4203  0.6696
 7086TIP3    H145453   1.222   0.253  10.050 -1.1216  0.5175 -0.1648
 7086TIP3    H245454   1.276   0.378  10.115  1.1517 -0.2575 -0.5004
 7087TIP3   OH245455   6.460   3.057  10.751 -0.3542 -0.2479  0.0508
 7087TIP3    H145456   6.398   3.015  10.810 -1.3450 -0.0616 -0.8272
 7087TIP3    H245457   6.524   3.099  10.809 -0.1153 -1.7876  0.9522
 7088TIP3   OH245458   6.534   4.208  10.737 -0.1378 -0.6235 -0.6379
 7088TIP3    H145459   6.510   4.117  10.757  2.3298 -1.2149 -0.0143
 7088TIP3    H245460   6.613   4.200  10.684  1.4952  1.1425  1.3615
 7089TIP3   OH245461   3.345   1.129  10.066 -0.2740  0.2839  0.1374
 7089TIP3    H145462   3.341   1.123  10.162 -1.2458  0.5289  0.1230
 7089TIP3    H245463   3.426   1.177  10.049 -1.1814  2.2134  0.9426
 7090TIP3   OH245464   5.023   6.498   9.228 -0.2440 -0.3220  0.3321
 7090TIP3    H145465   5.042   6.415   9.272 -2.3526  0.7933  3.7177
 7090TIP3    H245466   4.939   6.483   9.184 -0.1319 -0.2615  0.0960
 7091TIP3   OH245467   0.810   0.642  11.433  0.2674  0.1983  0.4908
 7091TIP3    H145468   0.781   0.560  11.393 -0.3144  0.4008  0.4729
 7091TIP3    H245469   0.899   0.654  11.402 -0.7618  1.3465 -2.4087
 7092TIP3   OH245470   3.224   5.701  11.438  0.0288  0.4229 -0.9842
 7092TIP3    H145471   3.319   5.696  11.430 -0.0355 -2.4765 -1.0021
 7092TIP3    H245472   3.192   5.624  11.393 -2.3114  0.9199 -0.3038
 7093TIP3   OH245473   4.505   6.482   9.963  0.2232  0.1291 -0.5254
 7093TIP3    H145474   4.553   6.438   9.893 -0.2333 -1.3534  0.0546
 7093TIP3    H245475   4.418   6.443   9.961  0.4400 -0.5312  1.3560
 7094TIP3   OH245476   4.187   1.514   9.876  0.0899 -0.0185 -0.1496
 7094TIP3    H145477   4.126   1.481   9.810 -2.2702  0.2980  1.7139
 7094TIP3    H245478   4.188   1.446   9.943  2.6057 -0.4277 -0.5248
 7095TIP3   OH245479   5.941   5.566   9.342 -0.6374  0.7879 -0.2459
 7095TIP3    H145480   6.014   5.590   9.285 -0.2853 -0.5693 -0.4110
 7095TIP3    H245481   5.894   5.499   9.292  0.2043 -1.1163  1.3667
 7096TIP3   OH245482   6.394   2.623  11.795  0.2079  0.2529 -0.1293
 7096TIP3    H145483   6.324   2.624  11.861  0.6535 -1.6568  0.4607
 7096TIP3    H245484   6.473   2.641  11.845  0.2362  1.7007 -0.6734
 7097TIP3   OH245485   1.765   5.349  11.514 -0.1799 -0.0335 -0.5147
 7097TIP3    H145486   1.694   5.389  11.463  0.3798  0.0691 -1.2389
 7097TIP3    H245487   1.823   5.422  11.535  0.6413 -0.3721 -1.4984
 7098TIP3   OH245488   0.203   0.939   9.207 -0.4123  0.0238 -0.2784
 7098TIP3    H145489   0.232   0.857   9.248  0.0221  0.3995  0.1712
 7098TIP3    H245490   0.113   0.920   9.178 -0.0752 -0.8374 -0.8121
 7099TIP3   OH245491   5.911   4.094   9.520 -0.0364 -0.2095 -0.1701
 7099TIP3    H145492   5.896   4.044   9.440 -1.4532  0.4718 -0.3694
 7099TIP3    H245493   5.939   4.180   9.489 -2.1832  0.6016 -0.0714
 7100TIP3   OH245494   0.578   5.451  11.522 -0.0454  0.2632  0.3930
 7100TIP3    H145495   0.637   5.477  11.452  0.0184  1.8165  0.9931
 7100TIP3    H245496   0.634   5.402  11.583 -0.4350 -2.5757 -1.3596
 7101TIP3   OH245497   0.927   3.448   9.394 -0.1392 -0.1770  0.5602
 7101TIP3    H145498   1.007   3.459   9.343 -1.2594  1.8093 -0.8953
 7101TIP3    H245499   0.934   3.512   9.465 -0.5240  0.1415  0.3112
 7102TIP3   OH245500   3.435   2.717   9.445 -0.2946 -0.2465  0.5246
 7102TIP3    H145501   3.403   2.638   9.488 -0.5336  0.1836  1.1534
 7102TIP3    H245502   3.467   2.687   9.361 -1.4939 -0.8378  0.2535
 7103TIP3   OH245503   1.411   3.937   9.669 -0.0882 -0.1373 -0.2663
 7103TIP3    H145504   1.450   3.949   9.755 -0.5024 -2.8609  0.3776
 7103TIP3    H245505   1.353   3.862   9.679 -1.5874  0.6271 -2.4757
 7104TIP3   OH245506   2.479   0.084   9.258 -0.8825 -0.2909 -0.3599
 7104TIP3    H145507   2.554   0.043   9.215 -1.1559  0.0217 -1.1449
 7104TIP3    H245508   2.423   0.010   9.284 -0.2210 -0.5384  0.4185
 7105TIP3   OH245509   5.443   3.915  10.571  0.3133 -0.2323 -0.4356
 7105TIP3    H145510   5.503   3.938  10.500  0.8093 -0.8231 -0.2159
 7105TIP3    H245511   5.493   3.933  10.651 -0.6566  1.5886 -0.1894
 7106TIP3   OH245512   4.116   2.201  10.440 -0.1377  0.2125 -0.2845
 7106TIP3    H145513   4.194   2.229  10.392  1.7953 -1.2449  1.7800
 7106TIP3    H245514   4.100   2.112  10.408 -0.5348  0.2535 -0.2038
 7107TIP3   OH245515   2.481   4.634   9.511 -0.0635 -0.6615 -0.2790
 7107TIP3    H145516   2.525   4.559   9.471 -0.3371 -1.3470  0.6661
 7107TIP3    H245517   2.399   4.643   9.463 -0.1408 -1.1292 -0.2409
 7108TIP3   OH245518   6.391   1.871  11.014  0.6444  0.0984 -0.0913
 7108TIP3    H145519   6.323   1.915  10.964  1.3086  1.7491  0.3927
 7108TIP3    H245520   6.462   1.859  10.951  0.6810  0.2481 -0.0796
 7109TIP3   OH245521   4.635   2.299   9.606 -0.3988 -0.0212 -0.4452
 7109TIP3    H145522   4.557   2.282   9.659  0.0550  1.3704  0.7599
 7109TIP3    H245523   4.633   2.233   9.537 -1.5572 -1.2797  0.7422
 7110TIP3   OH245524   3.708   6.455   9.446 -0.2812 -0.6972 -0.2256
 7110TIP3    H145525   3.635   6.484   9.391  0.3901 -0.2877 -0.9323
 7110TIP3    H245526   3.763   6.533   9.456  0.4102 -1.1595 -0.2952
 7111TIP3   OH245527   1.890   4.211  12.005  0.0299 -0.3381 -0.0570
 7111TIP3    H145528   1.949   4.202  11.930  0.5761 -0.9318  0.4211
 7111TIP3    H245529   1.805   4.231  11.967  0.2407 -0.9034 -0.8531
 7112TIP3   OH245530   1.069   1.269  11.336 -0.5481 -0.2651 -0.6745
 7112TIP3    H145531   0.983   1.299  11.366 -0.2828  1.1487 -1.2578
 7112TIP3    H245532   1.050   1.187  11.289 -1.5000 -0.2524 -0.3406
 7113TIP3   OH245533   4.286   5.893  11.644  0.5093 -1.0668 -0.0017
 7113TIP3    H145534   4.350   5.892  11.716  0.8664 -3.7099 -0.2759
 7113TIP3    H245535   4.301   5.978  11.601  2.5436 -0.8129  1.0639
 7114TIP3   OH245536   6.676   2.884   9.704 -0.5299 -0.2105  0.0866
 7114TIP3    H145537   6.734   2.939   9.652 -0.9694 -0.3147 -0.5279
 7114TIP3    H245538   6.653   2.812   9.645 -1.6194  0.0553  0.1785
 7115TIP3   OH245539   1.259   4.691  12.982 -0.5495  0.1163 -0.0461
 7115TIP3    H145540   1.180   4.674  12.930 -0.1256 -0.2943 -0.5796
 7115TIP3    H245541   1.272   4.785  12.976 -0.9959  0.1832  0.0363
 7116TIP3   OH245542   5.474   5.165  11.288 -0.0182  0.2770  0.8264
 7116TIP3    H145543   5.476   5.222  11.365 -2.2435  1.9613 -0.2243
 7116TIP3    H245544   5.560   5.123  11.285  1.1437  2.3900  2.5754
 7117TIP3   OH245545   5.597   4.148   9.836  0.0377 -0.3727  0.0599
 7117TIP3    H145546   5.665   4.134   9.902 -0.6768 -0.7537  0.7376
 7117TIP3    H245547   5.604   4.072   9.778 -0.1130 -0.6569  0.4078
 7118TIP3   OH245548   2.389   6.516  12.367 -0.1211  0.3891 -0.1633
 7118TIP3    H145549   2.381   6.594  12.312  3.6571 -0.2166 -1.9063
 7118TIP3    H245550   2.434   6.546  12.445 -2.0755  0.5381  0.9734
 7119TIP3   OH245551   1.012   5.751  13.192  0.0250 -0.1353  0.0085
 7119TIP3    H145552   1.029   5.782  13.103 -0.8608  1.3478  0.3250
 7119TIP3    H245553   0.929   5.703  13.185  0.4718 -0.9125 -0.1323
 7120TIP3   OH245554   1.805   2.970  12.167  0.5217 -0.2049  0.7383
 7120TIP3    H145555   1.898   2.949  12.158  0.5484 -0.2457  1.1283
 7120TIP3    H245556   1.768   2.896  12.215  0.0535 -0.7847 -0.4598
 7121TIP3   OH245557   5.505   5.313  12.237 -0.0878 -0.2373 -0.4935
 7121TIP3    H145558   5.595   5.290  12.260 -0.5560 -1.6103  0.0922
 7121TIP3    H245559   5.494   5.402  12.269  0.3569 -0.8711  1.5733
 7122TIP3   OH245560   6.383   0.494  12.433 -0.3189 -0.0057  0.2285
 7122TIP3    H145561   6.310   0.551  12.456  1.3144  2.3076  0.0135
 7122TIP3    H245562   6.408   0.451  12.515 -1.6933 -0.6215  0.3550
 7123TIP3   OH245563   4.529   6.141  10.134 -0.1266 -0.4264 -0.3705
 7123TIP3    H145564   4.559   6.125  10.045 -1.6131  1.5173 -1.2957
 7123TIP3    H245565   4.435   6.160  10.125  0.0314  1.5397  1.3284
 7124TIP3   OH245566   0.342   6.085  11.952  0.1024  0.2501  0.0270
 7124TIP3    H145567   0.373   6.135  12.027 -0.4040 -0.4162  0.6907
 7124TIP3    H245568   0.388   6.001  11.958 -0.0148  0.1562 -0.3564
 7125TIP3   OH245569   5.707   5.344  11.164  0.0173  0.1050 -0.5696
 7125TIP3    H145570   5.635   5.403  11.145 -0.9038 -0.3898  1.1614
 7125TIP3    H245571   5.709   5.283  11.090 -0.9382  0.4886 -0.9181
 7126TIP3   OH245572   4.124   2.185   9.391  0.1472 -0.1465 -0.4890
 7126TIP3    H145573   4.145   2.092   9.380  0.2773 -0.1535 -0.1992
 7126TIP3    H245574   4.185   2.231   9.334  0.1851 -0.2314 -0.5174
 7127TIP3   OH245575   4.870   2.683  10.539 -0.1697 -0.8583  0.2525
 7127TIP3    H145576   4.845   2.654  10.451 -0.4129 -1.2844  0.4612
 7127TIP3    H245577   4.960   2.650  10.550 -0.1943 -0.9344  0.2238
 7128TIP3   OH245578   6.430   6.003  13.044  0.3427 -0.5685 -0.4613
 7128TIP3    H145579   6.342   6.014  13.007  0.6282 -1.7644 -1.5881
 7128TIP3    H245580   6.421   6.029  13.135 -0.8733  0.5903 -0.8652
 7129TIP3   OH245581   6.250   5.898  11.137  0.7867  0.4211  0.0322
 7129TIP3    H145582   6.223   5.989  11.127  2.5758  1.0041  0.1601
 7129TIP3    H245583   6.273   5.870  11.048  1.6471  0.5708  0.2030
 7130TIP3   OH245584   1.280   6.579  10.935  0.2645  0.2755  0.0413
 7130TIP3    H145585   1.287   6.667  10.973  0.1516 -0.7840  2.7236
 7130TIP3    H245586   1.284   6.520  11.010  2.3665 -2.1458 -1.7948
 7131TIP3   OH245587   0.624   2.426  11.752  0.6653 -0.0240  0.4780
 7131TIP3    H145588   0.581   2.387  11.828  2.3574 -0.5296  1.2307
 7131TIP3    H245589   0.591   2.375  11.677  0.0144 -0.4234  1.0234
 7132TIP3   OH245590   0.269   3.659  10.465  0.2741  0.6787 -0.7786
 7132TIP3    H145591   0.278   3.570  10.431  1.3796  1.1497 -1.7910
 7132TIP3    H245592   0.237   3.710  10.391 -0.4236  1.1196 -0.1854
 7133TIP3   OH245593   4.975   0.474  12.041 -0.4879  0.3334 -0.9817
 7133TIP3    H145594   4.981   0.522  11.958  1.7243  2.6955  0.4076
 7133TIP3    H245595   4.992   0.539  12.108 -0.2295 -1.8857  1.2604
 7134TIP3   OH245596   2.141   3.433  11.661  0.1466 -0.0519  0.1872
 7134TIP3    H145597   2.093   3.415  11.743  0.5199  0.0318  0.4245
 7134TIP3    H245598   2.232   3.412  11.681  0.3585  0.6573  0.0140
 7135TIP3   OH245599   5.136   5.340  10.154  0.4220  0.3781  0.9339
 7135TIP3    H145600   5.113   5.362  10.245 -0.4973 -1.9971  1.3361
 7135TIP3    H245601   5.212   5.282  10.162  1.3206  1.3934  0.0559
 7136TIP3   OH245602   4.993   0.697  10.763  0.2449 -0.2572 -0.9713
 7136TIP3    H145603   4.960   0.747  10.689 -0.0483 -1.2039 -1.4923
 7136TIP3    H245604   5.064   0.645  10.728  1.1719  0.4702 -0.2276
 7137TIP3   OH245605   0.489   5.243  10.314  0.3973  0.1552  0.1057
 7137TIP3    H145606   0.452   5.182  10.378 -1.2456  0.6439 -0.3062
 7137TIP3    H245607   0.423   5.247  10.245  0.3238  2.5470  0.2296
 7138TIP3   OH245608   2.918   4.503  10.473  0.4025 -0.5548 -0.6291
 7138TIP3    H145609   2.969   4.448  10.414  1.8635 -0.9970  0.9479
 7138TIP3    H245610   2.982   4.561  10.514 -0.6905  0.3503 -0.1281
 7139TIP3   OH245611   0.619   4.412  10.644 -0.2211 -0.6540  0.3305
 7139TIP3    H145612   0.619   4.445  10.734 -0.2931  0.1603  0.0459
 7139TIP3    H245613   0.554   4.465  10.599 -1.0407 -1.8479  0.0658
 7140TIP3   OH245614   1.081   5.321  12.792  0.3089 -0.7121  0.4064
 7140TIP3    H145615   1.163   5.286  12.826 -0.2500 -2.0801  0.4136
 7140TIP3    H245616   1.038   5.246  12.752 -2.4284 -0.8652  3.2739
 7141TIP3   OH245617   1.162   3.186   9.372 -0.1157  0.5373 -0.1429
 7141TIP3    H145618   1.257   3.177   9.386  0.0568  1.9592 -0.2549
 7141TIP3    H245619   1.126   3.199   9.459 -0.1329  0.5447 -0.1512
 7142TIP3   OH245620   2.974   0.632  11.881 -0.4747  0.3734 -0.2638
 7142TIP3    H145621   2.890   0.653  11.841 -0.8514 -0.9447 -0.2208
 7142TIP3    H245622   3.019   0.716  11.889 -2.1150  1.2191  0.4694
 7143TIP3   OH245623   3.496   0.647  11.569 -0.1313  0.1850 -0.6643
 7143TIP3    H145624   3.508   0.558  11.602  0.0882  0.4771  0.0779
 7143TIP3    H245625   3.485   0.637  11.475 -2.9563 -0.8876 -0.3268
 7144TIP3   OH245626   5.512   3.186   9.439 -0.1308  0.4723 -0.0423
 7144TIP3    H145627   5.445   3.254   9.430 -0.6865 -0.4121 -3.9657
 7144TIP3    H245628   5.465   3.104   9.425  1.3456 -0.3744 -0.1580
 7145TIP3   OH245629   4.376   4.369  11.068  0.4300  0.0257 -0.0497
 7145TIP3    H145630   4.373   4.306  10.996 -2.8705 -2.0743  1.6530
 7145TIP3    H245631   4.290   4.410  11.068  1.4163  2.2581  0.9040
 7146TIP3   OH245632   6.010   4.664  12.077 -0.4040  0.0526  0.5426
 7146TIP3    H145633   5.952   4.606  12.127 -2.2967  1.4662  0.0642
 7146TIP3    H245634   5.957   4.695  12.004  0.6081  2.2412  0.6532
 7147TIP3   OH245635   6.695   4.017  10.181 -0.0578 -0.7053 -0.6716
 7147TIP3    H145636   6.755   4.030  10.108 -0.9046 -1.2986 -1.5037
 7147TIP3    H245637   6.674   3.923  10.178 -0.8029 -0.5611 -0.2359
 7148TIP3   OH245638   3.241   4.380  10.632  0.0750  0.1097 -0.1828
 7148TIP3    H145639   3.169   4.385  10.569 -0.0669 -0.3765 -0.0652
 7148TIP3    H245640   3.290   4.302  10.607  0.6087  0.4791 -0.3050
 7149TIP3   OH245641   5.019   0.217   9.915  0.4175  0.5815  0.6102
 7149TIP3    H145642   4.973   0.280   9.970 -0.1956  0.9490 -0.2894
 7149TIP3    H245643   5.112   0.233   9.933  0.2582  1.4948  0.6875
 7150TIP3   OH245644   5.627   3.275  11.817 -0.2480 -0.2583  0.1262
 7150TIP3    H145645   5.719   3.269  11.792 -0.5944  0.6597 -1.5304
 7150TIP3    H245646   5.604   3.186  11.845  1.7812  0.0115  3.2425
 7151TIP3   OH245647   4.105   3.265  11.859  0.7487 -0.3065 -0.5016
 7151TIP3    H145648   4.028   3.320  11.874  0.5323 -0.8850  0.6261
 7151TIP3    H245649   4.114   3.214  11.940  1.2194 -1.5860 -1.3297
 7152TIP3   OH245650   2.108   3.621   9.789  0.5363 -0.4321 -0.1824
 7152TIP3    H145651   2.119   3.604   9.696  1.0593 -2.2588  0.1758
 7152TIP3    H245652   2.015   3.639   9.799  0.5955  0.4829 -1.1442
 7153TIP3   OH245653   3.160   3.600   9.731  0.6596  0.7260  0.3747
 7153TIP3    H145654   3.068   3.628   9.736  0.7540  1.2732 -0.6446
 7153TIP3    H245655   3.199   3.630   9.813 -0.0953  0.3696  0.8776
 7154TIP3   OH245656   1.542   3.867  10.569  0.6459  0.0595  0.1372
 7154TIP3    H145657   1.569   3.881  10.660  0.4848  0.5081  0.1212
 7154TIP3    H245658   1.622   3.845  10.523  1.1149  1.8566 -0.0078
 7155TIP3   OH245659   5.526   6.512  11.133 -0.0067 -0.2901  0.2940
 7155TIP3    H145660   5.585   6.438  11.147 -2.0279 -2.1943 -0.7580
 7155TIP3    H245661   5.450   6.494  11.188 -0.7794  0.6790 -0.4129
 7156TIP3   OH245662   6.457   2.715   9.812 -0.5596 -0.4665 -0.0640
 7156TIP3    H145663   6.489   2.686   9.897 -2.7641  2.5958  2.0167
 7156TIP3    H245664   6.525   2.776   9.781 -0.0767 -1.0669 -0.2091
 7157TIP3   OH245665   2.419   6.244  11.190  0.4538 -0.2905 -0.1939
 7157TIP3    H145666   2.438   6.169  11.133  0.1790  0.3307 -1.1309
 7157TIP3    H245667   2.323   6.244  11.197  0.4215  0.2224 -0.5623
 7158TIP3   OH245668   1.050   4.528  11.509  0.1086  0.4366 -0.2635
 7158TIP3    H145669   1.130   4.486  11.475  0.2921  0.6551 -0.1066
 7158TIP3    H245670   0.979   4.488  11.459  0.3382  0.4317 -0.5911
 7159TIP3   OH245671   0.609   0.309   9.257 -0.8927 -0.8090 -0.1003
 7159TIP3    H145672   0.620   0.236   9.196 -0.6044  0.7479 -2.0260
 7159TIP3    H245673   0.657   0.382   9.217 -0.7146  0.3266  2.0026
 7160TIP3   OH245674   2.092   3.554   9.516 -0.2984 -0.1646 -0.2065
 7160TIP3    H145675   2.112   3.613   9.444  0.4947 -2.0139 -1.5967
 7160TIP3    H245676   1.998   3.539   9.510 -0.0978 -1.1127 -1.5894
 7161TIP3   OH245677   0.857   4.622  10.580 -0.1895 -0.1508 -0.0165
 7161TIP3    H145678   0.831   4.647  10.491 -0.8131 -1.1896 -0.1479
 7161TIP3    H245679   0.786   4.566  10.611  1.1498 -1.8522  0.1726
 7162TIP3   OH245680   0.216   4.756  11.302  0.3217  0.1752 -0.4692
 7162TIP3    H145681   0.123   4.732  11.308  0.0798  1.0765 -0.5162
 7162TIP3    H245682   0.261   4.672  11.293 -0.2159 -0.5661  2.4858
 7163TIP3   OH245683   4.062   6.050   9.428 -0.2331 -0.2917 -0.5543
 7163TIP3    H145684   4.116   6.124   9.453 -1.1847  0.6484 -1.1892
 7163TIP3    H245685   3.976   6.088   9.409 -0.9220 -1.6360 -0.2815
 7164TIP3   OH245686   1.409   3.138  10.636 -0.3423  0.2630  0.2457
 7164TIP3    H145687   1.374   3.147  10.547 -0.4880  0.8779  0.3638
 7164TIP3    H245688   1.395   3.046  10.658  2.1137 -0.6065 -1.3998
 7165TIP3   OH245689   6.623   6.557   9.841  0.2674 -0.0362 -0.4493
 7165TIP3    H145690   6.545   6.528   9.792 -0.5590  1.8178 -0.2978
 7165TIP3    H245691   6.618   6.509   9.924  0.3481 -1.3529 -1.1638
 7166TIP3   OH245692   0.715   3.772   9.288  0.5073  0.0448  0.3630
 7166TIP3    H145693   0.672   3.691   9.316 -0.4603 -0.2299 -1.7416
 7166TIP3    H245694   0.801   3.769   9.330  0.9528 -2.6562 -0.5598
 7167TIP3   OH245695   3.094   2.777   9.605  0.2824 -0.3849  0.1062
 7167TIP3    H145696   3.134   2.714   9.666  0.8456 -1.5581 -1.4059
 7167TIP3    H245697   3.089   2.859   9.655 -0.0078 -1.4897  1.9675
 7168TIP3   OH245698   0.302   0.305  12.026  0.1259 -0.4110 -0.1268
 7168TIP3    H145699   0.278   0.214  12.046  2.0733 -0.8489  0.3641
 7168TIP3    H245700   0.377   0.298  11.967 -0.4780  0.9084 -1.1059
 7169TIP3   OH245701   2.370   5.994  10.262  0.0497  0.3305  0.5973
 7169TIP3    H145702   2.393   5.906  10.233 -0.5966  0.6860 -1.0671
 7169TIP3    H245703   2.383   5.992  10.357  0.6497 -1.3595  0.5058
 7170TIP3   OH245704   4.481   5.575  10.443  0.3017 -0.8355  0.3687
 7170TIP3    H145705   4.574   5.589  10.461  0.1534  0.2555  0.3543
 7170TIP3    H245706   4.463   5.631  10.368 -0.7786  0.4370  1.5198
 7171TIP3   OH245707   6.212   5.433  11.158  0.4296  0.4819 -0.6273
 7171TIP3    H145708   6.148   5.363  11.168 -1.4983  2.2023 -0.2157
 7171TIP3    H245709   6.283   5.410  11.218 -2.0284  0.8580  2.6685
 7172TIP3   OH245710   4.423   6.564  11.842  0.5184  0.2064  0.4572
 7172TIP3    H145711   4.494   6.508  11.873 -1.0228 -0.2543  3.5541
 7172TIP3    H245712   4.440   6.649  11.882 -0.5958  0.0978  1.2212
 7173TIP3   OH245713   3.619   3.188  10.604  0.2337  0.0902 -0.4996
 7173TIP3    H145714   3.684   3.210  10.671 -0.0751 -0.4651 -0.0140
 7173TIP3    H245715   3.665   3.130  10.544 -0.1405 -1.3227  0.5233
 7174TIP3   OH245716   4.375   6.271  10.415  0.5425 -0.2356 -0.4080
 7174TIP3    H145717   4.430   6.307  10.346 -0.7224 -1.1150 -1.9374
 7174TIP3    H245718   4.290   6.313  10.402  0.2412 -0.5365  0.5316
 7175TIP3   OH245719   6.361   0.844  10.796 -0.1795 -0.2253 -0.0532
 7175TIP3    H145720   6.453   0.834  10.823  0.0870  0.7811 -0.5410
 7175TIP3    H245721   6.353   0.936  10.771 -1.1808 -0.4362 -0.5730
 7176TIP3   OH245722   4.777   1.181   9.376 -0.0617 -0.8664  0.1285
 7176TIP3    H145723   4.821   1.228   9.306  1.0174 -1.8163  0.1404
 7176TIP3    H245724   4.782   1.240   9.451 -1.3677  0.2228 -0.6069
 7177TIP3   OH245725   4.203   6.037  10.449  0.1172 -0.0509  0.5194
 7177TIP3    H145726   4.117   6.067  10.421  0.8923  0.7619 -1.1669
 7177TIP3    H245727   4.211   6.067  10.539 -0.4076  2.0945 -0.0810
 7178TIP3   OH245728   2.763   3.688  12.393 -0.3623  0.4262  0.2575
 7178TIP3    H145729   2.670   3.667  12.384  0.3650 -4.0661  0.4192
 7178TIP3    H245730   2.770   3.733  12.477 -2.2901 -0.4545  0.9514
 7179TIP3   OH245731   3.114   6.684  11.769  0.0800  0.3677  0.4218
 7179TIP3    H145732   3.176   6.748  11.802 -0.1668  0.5849  0.4711
 7179TIP3    H245733   3.041   6.737  11.735  0.7160  0.2185 -1.3064
 7180TIP3   OH245734   1.098   3.135   9.624  0.0618 -0.1648  0.2522
 7180TIP3    H145735   1.149   3.058   9.602 -1.3081 -1.5544  1.6821
 7180TIP3    H245736   1.163   3.203   9.643  1.2771 -0.6347 -1.9194
 7181TIP3   OH245737   0.052   3.376  11.878 -0.2304 -0.2364  0.0462
 7181TIP3    H145738   0.004   3.294  11.867  0.8127 -0.7794 -0.5947
 7181TIP3    H245739   0.049   3.392  11.973  0.6801 -1.7230  0.3549
 7182TIP3   OH245740   5.256   5.637  11.555  0.0663  0.0198  0.2665
 7182TIP3    H145741   5.174   5.602  11.520  0.1922 -0.2208  0.2164
 7182TIP3    H245742   5.309   5.560  11.574  0.9485  0.2089 -1.2898
 7183TIP3   OH245743   5.791   4.382   9.238 -0.4088 -0.6148 -0.4511
 7183TIP3    H145744   5.763   4.356   9.150 -0.4428 -0.8332 -0.3772
 7183TIP3    H245745   5.719   4.357   9.295  0.2101 -1.8356 -0.1628
 7184TIP3   OH245746   6.143   0.693  10.198 -0.5699 -0.1750 -0.0579
 7184TIP3    H145747   6.064   0.652  10.165 -0.2338 -1.8273  1.0816
 7184TIP3    H245748   6.124   0.712  10.290 -0.7324  2.3780 -0.5318
 7185TIP3   OH245749   5.084   0.129  11.050 -0.6114 -0.9637  0.4814
 7185TIP3    H145750   5.044   0.157  10.968  0.0408 -1.9222 -0.1937
 7185TIP3    H245751   5.118   0.209  11.090  0.7997 -0.7009 -1.1490
 7186TIP3   OH245752   1.612   6.566  12.808 -0.3781  0.5423  0.2862
 7186TIP3    H145753   1.653   6.643  12.768 -0.7000  1.7679  2.1272
 7186TIP3    H245754   1.543   6.540  12.747  0.1676  1.3176 -0.6858
 7187TIP3   OH245755   2.294   5.579  11.461 -0.1540  0.5620 -0.3518
 7187TIP3    H145756   2.287   5.504  11.520  0.7707 -0.4332 -1.4458
 7187TIP3    H245757   2.303   5.655  11.519 -1.8877 -0.0374  0.8005
 7188TIP3   OH245758   1.846   4.781  11.865 -0.1169 -0.6847 -0.1574
 7188TIP3    H145759   1.907   4.851  11.843 -2.6593  1.8023  0.0543
 7188TIP3    H245760   1.851   4.720  11.791  2.9719 -0.9537  0.1727
 7189TIP3   OH245761   3.156   3.052  10.610 -1.0497 -0.9583 -0.5288
 7189TIP3    H145762   3.220   3.000  10.561  0.8305  2.2390 -1.8109
 7189TIP3    H245763   3.158   3.016  10.698  0.7068 -2.5417 -1.1478
 7190TIP3   OH245764   2.800   0.041  10.702 -0.2314  0.0977  0.1501
 7190TIP3    H145765   2.716   0.022  10.743 -0.3784 -0.1270 -0.2468
 7190TIP3    H245766   2.781   0.113  10.641  0.2422  1.2848  1.3647
 7191TIP3   OH245767   5.989   0.151   9.172 -0.7414  0.3217  0.2500
 7191TIP3    H145768   5.952   0.117   9.091  0.4645 -0.0876 -0.1499
 7191TIP3    H245769   5.920   0.206   9.209 -1.2688  0.5993 -1.1075
 7192TIP3   OH245770   2.560   1.777   9.276 -0.2772  0.0691 -0.5633
 7192TIP3    H145771   2.534   1.715   9.207 -0.1202  0.0982 -0.6477
 7192TIP3    H245772   2.616   1.840   9.232  0.9627 -0.6993 -0.1139
 7193TIP3   OH245773   5.917   1.099  10.615  0.5238  0.7009  0.2613
 7193TIP3    H145774   5.933   1.080  10.523  0.8758  0.2024  0.4211
 7193TIP3    H245775   6.004   1.113  10.653  0.3690  1.0970  0.4784
 7194TIP3   OH245776   2.291   5.019   9.357  0.2179  0.0282 -0.3190
 7194TIP3    H145777   2.277   5.114   9.355 -1.7575 -0.2277 -0.8655
 7194TIP3    H245778   2.381   5.008   9.325  0.6581  1.7203  0.1937
 7195TIP3   OH245779   4.004   3.861  12.089 -0.0467  1.1757 -0.1442
 7195TIP3    H145780   4.026   3.913  12.166 -0.4756  0.5074  0.4423
 7195TIP3    H245781   4.057   3.782  12.097  0.0551  1.1886 -0.6443
 7196TIP3   OH245782   4.585   2.909  11.210 -0.2493 -0.2890  0.6941
 7196TIP3    H145783   4.523   2.977  11.236  1.3301  1.9689 -1.0513
 7196TIP3    H245784   4.663   2.925  11.262  0.3638 -0.3335 -0.1873
 7197TIP3   OH245785   1.658   3.281  12.069 -0.7515  0.1335 -0.5532
 7197TIP3    H145786   1.644   3.372  12.041  3.4944  0.2817 -3.1666
 7197TIP3    H245787   1.717   3.289  12.144  1.0079 -0.3051 -1.8056
 7198TIP3   OH245788   4.169   1.519  11.197  0.0941  0.4017 -0.2326
 7198TIP3    H145789   4.237   1.585  11.210 -0.5925  1.2616 -0.8346
 7198TIP3    H245790   4.087   1.569  11.195 -0.5268 -0.5617  0.0654
 7199TIP3   OH245791   2.431   0.361   9.216 -0.1178 -0.0345  0.0135
 7199TIP3    H145792   2.443   0.271   9.247 -0.2032 -0.3695 -0.9038
 7199TIP3    H245793   2.518   0.386   9.183 -0.3157 -0.1109 -0.5720
 7200TIP3   OH245794   4.235   6.122  12.490  0.6191  0.6969  0.3461
 7200TIP3    H145795   4.313   6.066  12.489  0.8836  0.9335 -2.7543
 7200TIP3    H245796   4.162   6.061  12.500  1.0482  0.1005 -0.0919
 7201TIP3   OH245797   4.951   0.985   9.409 -0.2467 -0.0893 -0.0413
 7201TIP3    H145798   4.906   0.973   9.492 -0.9539 -0.2077 -0.4335
 7201TIP3    H245799   4.889   1.033   9.355 -0.3088 -1.1346 -0.9287
 7202TIP3   OH245800   6.107   3.522  11.076 -0.4139 -0.1112  0.1043
 7202TIP3    H145801   6.046   3.448  11.078  0.7131 -1.0983 -0.8361
 7202TIP3    H245802   6.055   3.596  11.044 -1.9089 -0.1123  2.3425
 7203TIP3   OH245803   0.365   1.457   9.840  0.5052  0.4758  0.2173
 7203TIP3    H145804   0.310   1.378   9.844 -1.1599  1.5937  0.2958
 7203TIP3    H245805   0.329   1.508   9.768  2.6555  0.4339 -0.9704
 7204TIP3   OH245806   2.551   6.051  10.064 -0.2451 -0.3647  0.2432
 7204TIP3    H145807   2.520   6.059  10.154  0.5321  1.7615  0.3829
 7204TIP3    H245808   2.567   5.957  10.052 -1.2505 -0.8053  1.9827
 7205TIP3   OH245809   2.375   3.684  11.644 -0.5376  0.0225 -0.5397
 7205TIP3    H145810   2.292   3.641  11.664 -1.0615  0.9395 -0.6716
 7205TIP3    H245811   2.354   3.747  11.576 -0.0653  1.3585  0.4883
 7206TIP3   OH245812   3.253   6.648  10.566  0.3032  0.5389  0.0890
 7206TIP3    H145813   3.316   6.576  10.569 -2.1381 -1.7522  0.0542
 7206TIP3    H245814   3.212   6.648  10.653 -2.3131 -0.6694 -1.0590
 7207TIP3   OH245815   3.333   3.210   9.954 -0.0787 -0.0774 -0.4482
 7207TIP3    H145816   3.383   3.249   9.882  3.1534 -0.3143  1.4825
 7207TIP3    H245817   3.300   3.286  10.003  1.3612  0.1797  0.1559
 7208TIP3   OH245818   3.155   3.815  10.309 -0.9499  0.2014  0.3352
 7208TIP3    H145819   3.085   3.825  10.373  0.0910  1.5754  1.3117
 7208TIP3    H245820   3.157   3.898  10.261 -0.4016 -0.0646 -0.1197
 7209TIP3   OH245821   3.519   4.963  12.122  0.0041 -0.0793  0.1117
 7209TIP3    H145822   3.482   4.959  12.210  0.7157 -0.7255  0.3964
 7209TIP3    H245823   3.444   4.962  12.064 -0.4617 -0.0300  0.7060
 7210TIP3   OH245824   5.808   2.587  10.404 -1.1717  0.1028  0.3872
 7210TIP3    H145825   5.805   2.682  10.406 -0.5740  0.1294  0.3147
 7210TIP3    H245826   5.791   2.560  10.494  1.3263  0.3929  1.0316
 7211TIP3   OH245827   1.843   4.473   9.404  0.6693 -0.2952  0.6320
 7211TIP3    H145828   1.894   4.392   9.395 -0.5215 -1.0401  0.3571
 7211TIP3    H245829   1.819   4.496   9.314  0.6263  0.1069  0.7475
 7212TIP3   OH245830   2.676   3.980  11.143  0.0007 -0.2126 -0.0032
 7212TIP3    H145831   2.605   4.039  11.166  0.4598  0.2008  0.3681
 7212TIP3    H245832   2.677   3.915  11.213  0.4700  0.2138  0.3869
 7213TIP3   OH245833   1.023   1.580  10.443  0.2250 -0.3131  0.8932
 7213TIP3    H145834   1.119   1.582  10.449  0.2280  1.1602  0.6986
 7213TIP3    H245835   0.999   1.667  10.413 -1.1791 -0.7344  0.7247
 7214TIP3   OH245836   3.137   2.349   9.213  0.3169 -0.1034  0.3019
 7214TIP3    H145837   3.048   2.319   9.228  0.8347 -1.4808  0.8264
 7214TIP3    H245838   3.154   2.331   9.121  0.6451 -1.5779  0.6274
 7215TIP3   OH245839   2.654   2.588  10.208 -0.3949  0.4513  0.1746
 7215TIP3    H145840   2.632   2.563  10.118  1.4553  0.4617 -0.3303
 7215TIP3    H245841   2.749   2.605  10.205  0.0145 -0.9946  2.4378
 7216TIP3   OH245842   4.268   1.610   9.520  0.6496 -0.6721 -0.0539
 7216TIP3    H145843   4.341   1.570   9.473  0.9037 -0.4853  0.1780
 7216TIP3    H245844   4.254   1.552   9.595  0.2968 -0.9266 -0.3138
 7217TIP3   OH245845   1.499   6.331  12.040  0.5520  0.0068  0.4707
 7217TIP3    H145846   1.442   6.303  12.111 -0.5090  0.8121 -0.0408
 7217TIP3    H245847   1.455   6.301  11.960  3.7056 -4.7485  0.0654
 7218TIP3   OH245848   1.274   6.245  11.002  0.0475  0.0575 -0.6786
 7218TIP3    H145849   1.292   6.329  11.044 -0.1536  0.7623 -1.9526
 7218TIP3    H245850   1.352   6.192  11.020 -1.0547 -0.6407  2.7682
 7219TIP3   OH245851   3.522   1.843  11.631 -0.3267 -0.0478  0.1704
 7219TIP3    H145852   3.561   1.772  11.681  0.9994 -0.0722 -0.8454
 7219TIP3    H245853   3.593   1.877  11.577 -2.0318 -1.3142 -3.2032
 7220TIP3   OH245854   3.706   1.145  12.393 -0.9107  0.4774 -0.6274
 7220TIP3    H145855   3.768   1.217  12.403 -1.1452  0.8046 -1.5261
 7220TIP3    H245856   3.748   1.072  12.439 -1.5322  1.6516  2.0153
 7221TIP3   OH245857   5.718   3.853  11.119  0.4086  0.0159  0.3485
 7221TIP3    H145858   5.769   3.903  11.182  0.7929  0.1347 -0.0545
 7221TIP3    H245859   5.631   3.848  11.158  0.5943  0.2464  0.8013
 7222TIP3   OH245860   0.933   2.785  10.008  0.1395 -0.0715  0.2067
 7222TIP3    H145861   1.004   2.741  10.054 -0.0555 -1.5725 -0.8588
 7222TIP3    H245862   0.978   2.846   9.949  0.4490  0.3743  0.8853
 7223TIP3   OH245863   2.745   1.900   9.123 -0.1170 -0.6207 -0.4702
 7223TIP3    H145864   2.734   1.910   9.028 -0.5774 -1.4693 -0.5184
 7223TIP3    H245865   2.837   1.920   9.139  0.5597 -2.6943 -1.4310
 7224TIP3   OH245866   6.469   1.061   9.397 -0.1012  0.2669 -0.0658
 7224TIP3    H145867   6.385   1.023   9.369  0.4509 -0.3224 -0.9734
 7224TIP3    H245868   6.470   1.148   9.356  0.4794 -0.3991 -1.5198
 7225TIP3   OH245869   4.511   4.389  11.474 -0.2061  0.0276 -0.0940
 7225TIP3    H145870   4.498   4.328  11.402 -1.5822  0.6930 -0.4403
 7225TIP3    H245871   4.582   4.350  11.526 -1.0088 -1.8223 -0.3128
 7226TIP3   OH245872   1.708   0.336  11.333  0.3235  0.2171 -0.0022
 7226TIP3    H145873   1.797   0.351  11.365  0.2088 -0.0892  0.4728
 7226TIP3    H245874   1.656   0.406  11.373  0.3511  0.3940 -0.2772
 7227TIP3   OH245875   1.545   1.175  10.754 -0.4900  0.0626 -0.2210
 7227TIP3    H145876   1.637   1.196  10.766 -0.2321 -1.5215  0.7919
 7227TIP3    H245877   1.545   1.087  10.717 -1.6123 -0.2906  0.5798
 7228TIP3   OH245878   1.150   5.782  12.411  0.6044  0.0822  0.2382
 7228TIP3    H145879   1.056   5.764  12.399  0.6685  0.2644 -0.6598
 7228TIP3    H245880   1.182   5.710  12.465  0.1734 -0.6130 -0.4088
 7229TIP3   OH245881   5.310   0.455  12.365  0.2280  0.1773 -0.1231
 7229TIP3    H145882   5.341   0.545  12.378 -0.8499  0.5947 -0.2774
 7229TIP3    H245883   5.215   0.462  12.374  0.2352 -1.2050  1.1993
 7230TIP3   OH245884   1.205   3.752  10.372 -0.5694 -0.1677  0.0490
 7230TIP3    H145885   1.202   3.840  10.411  0.9381  0.0757 -0.3343
 7230TIP3    H245886   1.242   3.697  10.441  0.4072 -0.0858 -0.3952
 7231TIP3   OH245887   2.080   2.535   9.902  0.2451 -0.2969 -0.2155
 7231TIP3    H145888   2.012   2.481   9.942  0.1258 -1.0445 -1.3833
 7231TIP3    H245889   2.033   2.608   9.862  0.3171  0.1617  0.5086
 7232TIP3   OH245890   3.836   4.601  11.862  0.5681 -0.1987 -0.4422
 7232TIP3    H145891   3.904   4.569  11.921 -1.0771 -2.3490  0.4626
 7232TIP3    H245892   3.883   4.649  11.794  2.8433 -0.6247  0.7376
 7233TIP3   OH245893   2.489   2.828   9.342  0.0474  0.5090  0.4138
 7233TIP3    H145894   2.467   2.899   9.402 -1.3158  0.9663 -0.5991
 7233TIP3    H245895   2.584   2.833   9.332  0.0727  1.5661  1.0984
 7234TIP3   OH245896   0.390   2.370   9.883  0.0290 -0.0573 -0.3520
 7234TIP3    H145897   0.409   2.411   9.798 -0.5993 -0.0020 -0.4692
 7234TIP3    H245898   0.302   2.334   9.873 -0.9422  1.8002  0.9816
 7235TIP3   OH245899   6.272   6.216  11.785  0.3102  0.4383  0.4685
 7235TIP3    H145900   6.320   6.148  11.831  1.3372  0.1686 -0.9400
 7235TIP3    H245901   6.265   6.184  11.695  0.4925  2.0001 -0.1360
 7236TIP3   OH245902   5.403   1.740  12.245 -0.2942  0.5185  0.8695
 7236TIP3    H145903   5.321   1.785  12.265 -0.4627  1.1311 -0.9366
 7236TIP3    H245904   5.441   1.719  12.330 -1.0556  2.5822  1.7897
 7237TIP3   OH245905   2.829   3.471  10.457 -0.2472 -0.3672  0.1295
 7237TIP3    H145906   2.902   3.432  10.505  0.4465  0.2131 -0.4453
 7237TIP3    H245907   2.751   3.425  10.491  0.2799 -0.3705  1.3950
 7238TIP3   OH245908   0.868   1.515  11.865 -0.2218  0.3065 -0.2882
 7238TIP3    H145909   0.826   1.600  11.852  1.0269  1.7203  3.4768
 7238TIP3    H245910   0.818   1.474  11.936  1.6360 -0.1503  0.8419
 7239TIP3   OH245911   5.127   3.616  11.026  0.6557  0.4585 -0.5575
 7239TIP3    H145912   5.111   3.532  10.984 -0.1293 -0.2276  1.0226
 7239TIP3    H245913   5.059   3.622  11.094  1.2568  1.9534 -0.0490
 7240TIP3   OH245914   6.362   4.905   9.460  0.3805 -0.0889 -0.2628
 7240TIP3    H145915   6.331   4.911   9.370 -0.4848  0.8639  0.0746
 7240TIP3    H245916   6.305   4.840   9.501  0.2172  0.0943 -0.1955
 7241TIP3   OH245917   3.106   6.629  10.840  0.1786  0.1133  0.4873
 7241TIP3    H145918   3.120   6.568  10.912  2.2241  0.2131  0.2232
 7241TIP3    H245919   3.018   6.665  10.855 -0.1965 -1.2840  1.8303
 7242TIP3   OH245920   3.729   0.559   9.998  0.1598 -0.0152 -0.2153
 7242TIP3    H145921   3.742   0.489   9.934  0.3600  0.7093 -0.9775
 7242TIP3    H245922   3.799   0.546  10.062  0.8703  0.1323 -0.9465
 7243TIP3   OH245923   4.422   0.304  11.303  0.3350 -0.5491  0.6713
 7243TIP3    H145924   4.429   0.253  11.221 -0.2540 -1.7637  1.3511
 7243TIP3    H245925   4.344   0.358  11.291  0.1882 -0.8023  0.4739
 7244TIP3   OH245926   2.056   4.060  12.906 -0.6771 -0.1081  0.4448
 7244TIP3    H145927   2.106   4.115  12.846 -0.8249  0.9552  1.2700
 7244TIP3    H245928   1.964   4.080  12.888 -0.8243 -1.4821 -0.5241
 7245TIP3   OH245929   2.461   1.086  12.571  0.1401 -0.6572  0.3760
 7245TIP3    H145930   2.454   1.164  12.516 -0.1168 -1.7554 -1.2366
 7245TIP3    H245931   2.414   1.018  12.522 -0.8715 -1.4934  2.3980
 7246TIP3   OH245932   1.842   1.308  11.953 -0.3987  0.2523  0.0231
 7246TIP3    H145933   1.932   1.339  11.948 -1.2607  3.3683  0.9753
 7246TIP3    H245934   1.833   1.271  12.041 -0.2349  0.7186  0.2390
 7247TIP3   OH245935   1.760   2.561  10.756 -0.1403 -0.3262  0.8318
 7247TIP3    H145936   1.844   2.605  10.760 -0.9456  1.2164  1.4167
 7247TIP3    H245937   1.747   2.526  10.844  0.4750 -1.7868  0.3859
 7248TIP3   OH245938   5.262   1.905  10.075  0.2851 -0.2675  0.0127
 7248TIP3    H145939   5.174   1.917  10.112  0.5957  1.3259  0.3219
 7248TIP3    H245940   5.317   1.881  10.150  0.3265 -0.0994  0.0375
 7249TIP3   OH245941   3.769   4.064  10.101  0.1439  0.5817  0.3671
 7249TIP3    H145942   3.767   4.001  10.173 -2.2927  0.1114 -0.0032
 7249TIP3    H245943   3.814   4.019  10.030  0.0570 -0.0325  0.6999
 7250TIP3   OH245944   2.716   0.305  10.957 -0.1817 -0.1712  0.4492
 7250TIP3    H145945   2.748   0.215  10.955  0.0752 -0.0720 -0.1124
 7250TIP3    H245946   2.623   0.296  10.978  0.0374 -0.5016  1.3391
 7251TIP3   OH245947   4.146   6.169  11.633 -0.3462  0.3230  0.0653
 7251TIP3    H145948   4.180   6.172  11.722 -1.2892  1.3328  0.4133
 7251TIP3    H245949   4.088   6.093  11.631 -1.1596  0.9178  0.6382
 7252TIP3   OH245950   5.390   3.208  11.250  0.1132  0.5600  0.4700
 7252TIP3    H145951   5.310   3.219  11.199  1.1948  0.3083 -1.3780
 7252TIP3    H245952   5.455   3.263  11.205  1.1207  0.3150  1.5715
 7253TIP3   OH245953   6.437   6.626  12.029 -0.1058  0.2027 -0.1162
 7253TIP3    H145954   6.498   6.644  11.957 -1.3093 -1.8161 -1.7802
 7253TIP3    H245955   6.352   6.619  11.986 -1.2018  0.8965  1.8381
 7254TIP3   OH245956   5.801   0.445   9.394 -0.7998  0.0209 -0.0175
 7254TIP3    H145957   5.835   0.373   9.447  1.6345  1.2819  0.3269
 7254TIP3    H245958   5.722   0.473   9.439  0.6179  0.3600  2.4667
 7255TIP3   OH245959   6.061   0.362  12.060  0.0277  0.5998 -0.2714
 7255TIP3    H145960   6.085   0.440  12.011 -1.6650  0.5998 -1.1782
 7255TIP3    H245961   6.138   0.342  12.114  1.1396  1.8401 -1.3438
 7256TIP3   OH245962   0.482   6.217   9.897  0.5641 -0.4892 -0.1205
 7256TIP3    H145963   0.545   6.286   9.918 -0.2022  0.1900 -0.0344
 7256TIP3    H245964   0.489   6.156   9.970  0.4262  0.0860  0.3806
 7257TIP3   OH245965   3.728   1.682  12.789 -0.5518  0.1120 -0.0029
 7257TIP3    H145966   3.772   1.628  12.723 -2.0137 -2.2166  0.7846
 7257TIP3    H245967   3.667   1.736  12.739  0.9583  1.1083 -0.8245
 7258TIP3   OH245968   0.429   2.564  12.393  0.1780 -0.1413 -0.6017
 7258TIP3    H145969   0.476   2.572  12.476 -1.0366  1.7802 -0.0204
 7258TIP3    H245970   0.364   2.497  12.408 -0.5794  0.7661  0.3207
 7259TIP3   OH245971   1.127   2.464  10.574 -0.5145 -0.1961  0.5668
 7259TIP3    H145972   1.135   2.530  10.505 -1.1801  1.7085  2.2216
 7259TIP3    H245973   1.067   2.399  10.538  0.4179 -0.1042 -1.2419
 7260TIP3   OH245974   3.589   3.719  11.704  0.5742 -0.1449 -0.1514
 7260TIP3    H145975   3.502   3.698  11.737  0.2394  1.7462  0.2960
 7260TIP3    H245976   3.574   3.777  11.630  1.4342 -1.2377 -1.2134
 7261TIP3   OH245977   5.319   4.735  10.637 -0.0643  0.2236  0.6414
 7261TIP3    H145978   5.384   4.804  10.627  1.9108 -1.7311 -1.0450
 7261TIP3    H245979   5.235   4.780  10.632  1.1034  2.7234  1.9035
 7262TIP3   OH245980   0.856   6.369  11.820 -0.0341  0.4393 -0.1311
 7262TIP3    H145981   0.927   6.317  11.858 -0.0571  0.7701  0.3751
 7262TIP3    H245982   0.866   6.456  11.859 -0.7965  0.4543  0.0529
 7263TIP3   OH245983   2.825   4.891  11.810  0.0176  0.5558 -0.0359
 7263TIP3    H145984   2.771   4.851  11.878 -0.3590 -0.0623 -0.6821
 7263TIP3    H245985   2.776   4.877  11.729  2.0215 -1.8826 -0.9793
 7264TIP3   OH245986   2.225   4.108  13.102 -1.2678  0.5286 -0.0266
 7264TIP3    H145987   2.207   4.062  13.183  0.1866  1.6488  1.0084
 7264TIP3    H245988   2.168   4.068  13.037 -0.4603 -2.3582  0.8897
 7265TIP3   OH245989   5.796   3.637  19.242  0.1337  0.1355 -0.1242
 7265TIP3    H145990   5.756   3.597  19.319 -0.5305  1.0218  0.0102
 7265TIP3    H245991   5.722   3.671  19.192  0.4579 -1.4165 -1.7521
 7266TIP3   OH245992   6.176   1.186  10.683  0.3417  0.0035  0.2819
 7266TIP3    H145993   6.221   1.263  10.719  2.2248 -0.3091 -1.2810
 7266TIP3    H245994   6.234   1.153  10.615 -2.1927 -0.5619 -1.7746
 7267TIP3   OH245995   4.505   4.978  10.670  0.8970  0.1557  0.0291
 7267TIP3    H145996   4.563   4.921  10.720 -0.6234  0.2646  1.9990
 7267TIP3    H245997   4.502   5.059  10.720 -2.1857 -0.3973  0.9077
 7268TIP3   OH245998   3.208   6.457   9.826  0.8298 -0.2688 -0.3622
 7268TIP3    H145999   3.154   6.411   9.761  1.0082  0.5839 -1.1323
 7268TIP3    H246000   3.240   6.534   9.780  1.5866 -0.0419  0.5184
 7269TIP3   OH246001   2.888   4.460  11.350  0.1225  0.0475  0.0274
 7269TIP3    H146002   2.981   4.459  11.369  0.0615 -2.1426  0.4526
 7269TIP3    H246003   2.882   4.445  11.256  0.2020 -1.6545  0.2666
 7270TIP3   OH246004   3.417   4.552   9.738  0.1648 -0.3822 -0.1851
 7270TIP3    H146005   3.428   4.530   9.831 -1.7110 -1.4288 -0.1532
 7270TIP3    H246006   3.403   4.646   9.737 -2.8535 -0.7022  1.0200
 7271TIP3   OH246007   6.616   1.270  11.098  0.1273  0.1198 -0.5809
 7271TIP3    H146008   6.581   1.211  11.031 -0.0939 -0.2092 -0.1774
 7271TIP3    H246009   6.707   1.240  11.111 -0.3656 -0.9854  0.5523
 7272TIP3   OH246010   0.995   2.579  11.984  0.8712  0.0381  0.3552
 7272TIP3    H146011   1.072   2.617  11.941 -0.3041  2.3376  0.1156
 7272TIP3    H246012   1.030   2.506  12.035  2.8095 -0.6970 -1.8069
 7273TIP3   OH246013   5.010   1.900   9.184 -0.1791  0.0275 -0.0280
 7273TIP3    H146014   5.074   1.929   9.249  0.9978  0.2338 -1.2380
 7273TIP3    H246015   4.983   1.813   9.214  1.2929 -0.4204  0.0989
 7274TIP3   OH246016   6.660   3.186   9.291 -0.3612  0.0368  0.2881
 7274TIP3    H146017   6.627   3.263   9.244  1.4413  1.5759  1.4059
 7274TIP3    H246018   6.706   3.135   9.225 -1.3626  0.0321 -0.4241
 7275TIP3   OH246019   2.030   4.991  10.406  0.1111  0.9487  0.5721
 7275TIP3    H146020   2.025   4.968  10.313  0.4029  1.8554  0.3163
 7275TIP3    H246021   1.942   5.024  10.427 -0.0753  0.3573  0.7295
 7276TIP3   OH246022   3.599   6.710  11.293 -0.0390 -0.4107 -0.1703
 7276TIP3    H146023   3.617   6.628  11.339  1.8722 -1.4609 -2.5429
 7276TIP3    H246024   3.619   6.779  11.357  0.9707 -1.7939  1.0568
 7277TIP3   OH246025   0.115   3.953  10.590  0.6223 -0.0611  0.1186
 7277TIP3    H146026   0.100   3.935  10.683 -1.5063  0.5252 -0.0538
 7277TIP3    H246027   0.111   4.048  10.582  0.7018 -0.1089 -0.5749
 7278TIP3   OH246028   3.212   2.949  10.323 -0.3161  0.0277  0.1050
 7278TIP3    H146029   3.286   2.914  10.372  0.6163  1.9902  0.1783
 7278TIP3    H246030   3.236   3.040  10.304 -2.1094  0.3070 -1.0832
 7279TIP3   OH246031   5.117   5.195   9.934 -0.2187 -0.3411 -0.6520
 7279TIP3    H146032   5.111   5.253   9.859 -2.7581  0.2699 -0.0862
 7279TIP3    H246033   5.098   5.251  10.009 -0.1455 -1.4062  0.1871
 7280TIP3   OH246034   0.293   2.885  11.113  0.4278  0.3281 -0.3034
 7280TIP3    H146035   0.277   2.906  11.205 -0.6553 -0.8989 -0.1801
 7280TIP3    H246036   0.371   2.830  11.114  0.9055  0.9848 -0.2257
 7281TIP3   OH246037   1.883   0.304  10.606 -0.2865 -0.9434  0.1575
 7281TIP3    H146038   1.955   0.326  10.666 -1.6884 -0.2258  1.6662
 7281TIP3    H246039   1.926   0.285  10.523  1.5826  0.2219  0.7910
 7282TIP3   OH246040   3.566   5.590  11.392 -0.1143  0.2250  0.0028
 7282TIP3    H146041   3.528   5.511  11.429  0.5603 -0.8156 -1.4344
 7282TIP3    H246042   3.548   5.658  11.456  2.1834 -1.7151  2.9929
 7283TIP3   OH246043   1.681   1.812  10.386 -0.1069  0.0896  0.1022
 7283TIP3    H146044   1.594   1.780  10.360 -0.6084  0.9175  0.6961
 7283TIP3    H246045   1.742   1.762  10.332 -1.0263  0.6412 -1.5383
 7284TIP3   OH246046   0.304   5.003  11.200  0.4426  0.4434  0.3338
 7284TIP3    H146047   0.242   5.075  11.203 -0.4822 -0.3352  0.2133
 7284TIP3    H246048   0.253   4.926  11.222  1.2012 -0.3190 -0.4756
 7285TIP3   OH246049   6.302   2.617  11.293 -0.0030 -0.0324 -0.0379
 7285TIP3    H146050   6.334   2.555  11.359 -0.2997  0.0641  0.2018
 7285TIP3    H246051   6.382   2.656  11.257  0.2530 -1.6375 -1.2831
 7286TIP3   OH246052   4.078   5.366  11.085 -0.8263 -0.6125 -0.1957
 7286TIP3    H146053   4.060   5.408  11.001  0.2684 -1.4296 -0.8682
 7286TIP3    H246054   4.026   5.415  11.148  0.2251  1.6153 -0.9604
 7287TIP3   OH246055   0.812   3.468  12.203  0.6776 -0.1150  0.1957
 7287TIP3    H146056   0.841   3.540  12.260 -0.2035 -0.3587  0.9819
 7287TIP3    H246057   0.749   3.420  12.257 -0.1466 -0.3843 -0.9840
 7288TIP3   OH246058   2.429   4.387  10.941  0.1432 -0.0945 -0.4125
 7288TIP3    H146059   2.483   4.382  10.862  1.5950  1.7031  0.3856
 7288TIP3    H246060   2.487   4.424  11.007 -1.2533 -0.8621  1.3236
 7289TIP3   OH246061   1.652   4.266   9.961  0.1849 -0.2114  0.3102
 7289TIP3    H146062   1.588   4.295   9.896 -0.9975  1.8216  2.2101
 7289TIP3    H246063   1.602   4.260  10.042  1.5667 -2.8156  1.0738
 7290TIP3   OH246064   5.841   6.243   9.703  0.4487 -0.4158  0.2668
 7290TIP3    H146065   5.896   6.289   9.767 -0.0176 -0.7410  0.9114
 7290TIP3    H246066   5.763   6.298   9.695  1.5014  0.8727 -1.8305
 7291TIP3   OH246067   5.060   3.050  12.497  0.1012  0.4050 -0.4024
 7291TIP3    H146068   5.154   3.055  12.480  0.0868 -0.9150 -1.0141
 7291TIP3    H246069   5.044   2.958  12.518 -1.1994  0.3952 -1.2963
 7292TIP3   OH246070   4.601   4.412  12.476  0.1781 -0.1700  0.1310
 7292TIP3    H146071   4.534   4.387  12.412 -0.4304  0.5548  0.4713
 7292TIP3    H246072   4.596   4.345  12.544  0.1141 -0.3656 -0.0634
 7293TIP3   OH246073   0.997   0.058  10.218  0.2925 -0.1206  0.0242
 7293TIP3    H146074   0.924   0.065  10.157  0.6899  2.8093 -0.2445
 7293TIP3    H246075   1.041  -0.023  10.193 -0.6417  0.0133 -2.3189
 7294TIP3   OH246076   3.533   2.666   9.199  0.0305  0.1581  0.7234
 7294TIP3    H146077   3.573   2.616   9.127 -1.3654 -0.5602  0.4198
 7294TIP3    H246078   3.598   2.733   9.219  1.9036 -1.6190  0.9986
 7295TIP3   OH246079   0.459   4.502  11.629 -0.3180  0.7700 -0.3032
 7295TIP3    H146080   0.363   4.502  11.626 -0.5456  2.4782  2.8794
 7295TIP3    H246081   0.486   4.546  11.549 -2.0429 -0.9644 -1.9631
 7296TIP3   OH246082   3.043   2.189  10.403 -0.1589 -0.4601 -0.0816
 7296TIP3    H146083   3.020   2.096  10.407  0.0250 -0.5357 -0.7225
 7296TIP3    H246084   3.083   2.207  10.488 -1.8020 -0.5228  0.7490
 7297TIP3   OH246085   1.992   0.678  10.025  0.1060 -0.2698 -0.6984
 7297TIP3    H146086   2.077   0.664  10.067  0.3360  0.0264 -1.0632
 7297TIP3    H246087   2.012   0.686   9.932 -0.4658 -1.4882 -0.9344
 7298TIP3   OH246088   0.742   5.749  11.846 -0.1385 -0.1774 -0.0440
 7298TIP3    H146089   0.745   5.783  11.757 -0.2943  2.1983  0.7899
 7298TIP3    H246090   0.807   5.679  11.848  0.4706  0.3032 -1.7880
 7299TIP3   OH246091   6.533   0.261   9.804 -0.1434 -0.4454  0.2280
 7299TIP3    H146092   6.503   0.261   9.713 -1.5015 -0.1667  0.6510
 7299TIP3    H246093   6.463   0.304   9.853  2.0098  2.6368  0.9588
 7300TIP3   OH246094   6.553   1.902  11.602 -0.4850 -0.1087 -0.0028
 7300TIP3    H146095   6.616   1.905  11.530 -0.2986 -0.5734  0.1394
 7300TIP3    H246096   6.542   1.809  11.620 -1.9250 -0.0882 -0.6453
 7301TIP3   OH246097   4.364   5.564  12.138 -0.2490  0.1108 -0.2919
 7301TIP3    H146098   4.421   5.596  12.209  1.6268 -1.5439 -0.9474
 7301TIP3    H246099   4.344   5.474  12.163 -2.5281  0.5880 -0.1894
 7302TIP3   OH246100   5.900   2.488  10.170 -0.3374 -0.1389  0.0598
 7302TIP3    H146101   5.990   2.457  10.176  0.3021  1.6911  0.9746
 7302TIP3    H246102   5.883   2.526  10.257 -1.3717  1.0587 -0.6332
 7303TIP3   OH246103   6.231   5.898  11.747  0.2201 -0.4953  0.4251
 7303TIP3    H146104   6.249   5.932  11.835  2.6434  1.1149 -0.5596
 7303TIP3    H246105   6.194   5.973  11.700  0.5362 -0.8164 -0.3557
 7304TIP3   OH246106   2.617   0.242  10.274 -0.2428  0.3268 -0.8099
 7304TIP3    H146107   2.584   0.263  10.187 -2.9384  0.6966  0.2006
 7304TIP3    H246108   2.584   0.313  10.329  1.1584 -0.0467  0.5826
 7305TIP3   OH246109   6.471   1.910  11.877  0.9183  0.7325 -0.2410
 7305TIP3    H146110   6.392   1.866  11.844  2.0699  0.2372 -2.5761
 7305TIP3    H246111   6.511   1.847  11.937  0.4157  0.2890 -0.3628
 7306TIP3   OH246112   2.641   0.607  12.649  0.0956 -0.1958 -0.4618
 7306TIP3    H146113   2.638   0.604  12.745  0.5731 -0.7773 -0.4604
 7306TIP3    H246114   2.734   0.613  12.628  0.2004 -2.6311 -0.9433
 7307TIP3   OH246115   2.127   1.260  11.629  0.0668  0.1098 -0.5555
 7307TIP3    H146116   2.135   1.342  11.677  0.0888 -1.0429  1.5291
 7307TIP3    H246117   2.214   1.246  11.591 -0.0208  1.1635 -1.1846
 7308TIP3   OH246118   0.792   6.328  11.542  0.3524  0.2161  0.6153
 7308TIP3    H146119   0.800   6.359  11.632  0.6066 -0.1018  0.7047
 7308TIP3    H246120   0.849   6.251  11.538  0.6645  0.4746  0.0693
 7309TIP3   OH246121   3.809   0.734  10.355 -0.0501  0.1005 -0.0385
 7309TIP3    H146122   3.857   0.714  10.436 -1.0860 -0.2288  0.5156
 7309TIP3    H246123   3.812   0.653  10.305 -0.3051 -0.0189  0.1397
 7310TIP3   OH246124   0.548   5.340   9.820  0.5966 -0.1211 -0.0407
 7310TIP3    H146125   0.514   5.424   9.789 -1.2889 -0.7988  0.0346
 7310TIP3    H246126   0.642   5.345   9.805  0.7161  2.4399  1.0159
 7311TIP3   OH246127   1.646   0.581   9.777  0.1540  0.0339 -0.4806
 7311TIP3    H146128   1.642   0.677   9.777 -0.8085  0.0969  2.3932
 7311TIP3    H246129   1.725   0.560   9.826  1.2206 -0.7441 -2.4046
 7312TIP3   OH246130   1.148   4.482  10.296  0.3003 -0.1990  0.6709
 7312TIP3    H146131   1.221   4.474  10.234 -0.7518 -1.6146 -0.4703
 7312TIP3    H246132   1.168   4.561  10.347  2.2294 -0.1272 -0.1024
 7313TIP3   OH246133   4.360   2.226  10.292  0.7494  0.2102  0.2561
 7313TIP3    H146134   4.307   2.303  10.271 -2.1852 -1.3277  1.4392
 7313TIP3    H246135   4.420   2.257  10.360  0.7214  1.8160 -0.4079
 7314TIP3   OH246136   5.298   1.701   9.910  0.7169 -0.0528  0.3558
 7314TIP3    H146137   5.381   1.710   9.864  1.3613 -0.1225  1.4574
 7314TIP3    H246138   5.298   1.771   9.975  0.8655 -1.2652  1.7258
 7315TIP3   OH246139   4.042   4.233  10.703 -0.0958  0.3819  0.3127
 7315TIP3    H146140   3.968   4.208  10.758 -0.3766 -1.2396 -0.7387
 7315TIP3    H246141   4.056   4.158  10.646  0.3983  1.8468 -1.5966
 7316TIP3   OH246142   2.755   4.006  12.346  0.2468  0.5383 -0.5337
 7316TIP3    H146143   2.786   4.076  12.402  0.6757  0.9596 -1.2746
 7316TIP3    H246144   2.821   3.937  12.355 -0.3473  0.0691  0.4543
 7317TIP3   OH246145   5.267   5.029  11.998  0.7580 -0.3217 -0.0492
 7317TIP3    H146146   5.280   5.012  11.904 -1.9390 -0.5801 -0.4510
 7317TIP3    H246147   5.294   4.948  12.041  2.2069 -0.1369 -0.5435
 7318TIP3   OH246148   3.510   4.161  10.103  0.3512 -0.2390 -0.4138
 7318TIP3    H146149   3.556   4.244  10.114 -0.9636  0.4945 -0.2132
 7318TIP3    H246150   3.577   4.100  10.072  2.1831 -0.0742  2.8731
 7319TIP3   OH246151   2.887   2.533  12.241  0.0225  0.0267  0.5204
 7319TIP3    H146152   2.820   2.494  12.297 -0.9849 -1.7447 -1.7552
 7319TIP3    H246153   2.963   2.477  12.252 -0.0702 -0.1271  0.3912
 7320TIP3   OH246154   2.405   4.883  10.573  0.2397 -0.3161  0.1735
 7320TIP3    H146155   2.398   4.812  10.509  1.5942 -0.4896  0.1901
 7320TIP3    H246156   2.442   4.841  10.651  0.9519  0.3719  0.2198
 7321TIP3   OH246157   2.705   0.296   9.821 -0.0715 -0.1670 -0.5744
 7321TIP3    H146158   2.671   0.208   9.803 -0.5886  0.4813 -3.1155
 7321TIP3    H246159   2.634   0.340   9.868 -0.4752 -0.5933 -0.7740
 7322TIP3   OH246160   5.211   3.071  10.972  0.0361 -0.1404 -0.0962
 7322TIP3    H146161   5.136   3.038  10.923  0.4693 -2.7376  0.8670
 7322TIP3    H246162   5.172   3.111  11.050 -0.3873 -0.2533 -0.2469
 7323TIP3   OH246163   3.906   1.785   9.295  0.1828  0.5266 -0.3735
 7323TIP3    H146164   3.866   1.737   9.223  1.0374  1.1599 -1.2888
 7323TIP3    H246165   3.841   1.780   9.366 -0.5617 -0.3096 -1.0894
 7324TIP3   OH246166   6.290   0.085  12.372  0.3719  0.4176 -0.0541
 7324TIP3    H146167   6.309   0.156  12.310 -0.2879  0.6954  0.0574
 7324TIP3    H246168   6.240   0.127  12.442 -0.8416 -0.3356 -0.4506
 7325TIP3   OH246169   6.000   5.523  10.981  0.2786 -0.0054  0.3015
 7325TIP3    H146170   5.936   5.456  11.002  2.0353 -1.6255  0.7486
 7325TIP3    H246171   6.082   5.491  11.018  1.8946  0.8277 -2.2598
 7326TIP3   OH246172   5.655   5.247  11.665  0.4501 -0.2257 -0.2904
 7326TIP3    H146173   5.612   5.319  11.712 -0.8674 -0.3978 -1.1739
 7326TIP3    H246174   5.591   5.176  11.669  0.8641 -0.6519 -1.2353
 7327TIP3   OH246175   0.251   1.884  11.598  0.2436  0.2507 -0.2620
 7327TIP3    H146176   0.203   1.839  11.528 -0.0588  2.4043 -1.5283
 7327TIP3    H246177   0.223   1.840  11.678 -0.7103 -1.1851 -1.3219
 7328TIP3   OH246178   3.661   4.736  10.411  0.4364 -0.3657  0.3741
 7328TIP3    H146179   3.690   4.700  10.327  3.4745  2.3918  0.0335
 7328TIP3    H246180   3.588   4.793  10.388 -0.0608 -1.1477 -0.0420
 7329TIP3   OH246181   0.565   1.668  11.783 -0.5097  0.1045 -0.5082
 7329TIP3    H146182   0.539   1.576  11.786 -1.7168  0.4518  0.0880
 7329TIP3    H246183   0.591   1.682  11.692 -0.4962 -0.7676 -0.6540
 7330TIP3   OH246184   5.868   3.572   9.180 -0.3288  0.2468  0.2564
 7330TIP3    H146185   5.818   3.507   9.229  1.9542 -1.3045  0.7066
 7330TIP3    H246186   5.913   3.522   9.112  0.2561  1.6273 -0.4195
 7331TIP3   OH246187   6.010   0.439   9.768 -0.0843 -0.0451  0.3869
 7331TIP3    H146188   6.004   0.498   9.692 -1.8481  0.2573  0.7269
 7331TIP3    H246189   5.921   0.435   9.803  0.5393 -0.8078  1.9874
 7332TIP3   OH246190   3.229   1.041   9.283 -0.0162 -0.6712  0.3680
 7332TIP3    H146191   3.303   1.018   9.340  0.5439  0.9971  0.3506
 7332TIP3    H246192   3.153   1.039   9.341  0.6562  1.8385  1.4663
 7333TIP3   OH246193   5.247   0.678   9.491 -0.1235  0.6197  0.0249
 7333TIP3    H146194   5.301   0.633   9.555  1.3906  0.8124 -1.0672
 7333TIP3    H246195   5.308   0.737   9.445 -1.3035  1.0354 -1.0736
 7334TIP3   OH246196   2.874   0.258  12.241 -0.1560  0.5320 -0.1092
 7334TIP3    H146197   2.831   0.175  12.221  0.1591  0.5468 -0.8541
 7334TIP3    H246198   2.909   0.288  12.158 -0.2123  1.3889  0.1688
 7335TIP3   OH246199   0.850   6.145  12.783 -0.4923  0.5104  0.1945
 7335TIP3    H146200   0.783   6.077  12.777  2.9947 -3.1748 -1.9751
 7335TIP3    H246201   0.882   6.139  12.873 -1.9393  1.2466  0.7939
 7336TIP3   OH246202   0.832   1.134  12.869 -0.3768  0.3345 -0.7455
 7336TIP3    H146203   0.794   1.221  12.879 -0.4214  0.4952 -2.0992
 7336TIP3    H246204   0.898   1.144  12.800  1.2014 -0.2389  0.6194
 7337TIP3   OH246205   2.540   1.996  10.181 -0.6015  0.1356 -1.1037
 7337TIP3    H146206   2.565   2.088  10.172  1.5420 -0.1873  0.9641
 7337TIP3    H246207   2.551   1.960  10.093 -0.1421  1.5255 -1.6432
 7338TIP3   OH246208   6.330   4.009   9.533 -0.8644 -0.0076 -0.3451
 7338TIP3    H146209   6.356   4.050   9.451  0.4446 -0.0531  0.0155
 7338TIP3    H246210   6.235   4.001   9.528 -0.7029 -1.0784 -2.3308
 7339TIP3   OH246211   4.306   1.239  11.866 -0.0854  0.1519 -0.3771
 7339TIP3    H146212   4.394   1.278  11.866  0.0685 -0.1957 -0.2151
 7339TIP3    H246213   4.318   1.153  11.825 -0.2444 -0.1351  0.1750
 7340TIP3   OH246214   2.061   4.600  10.747 -0.3072 -0.0395 -0.1309
 7340TIP3    H146215   2.029   4.673  10.799 -0.7032  0.2700 -0.7967
 7340TIP3    H246216   2.077   4.637  10.660  2.6895  0.0410  0.3388
 7341TIP3   OH246217   0.463   6.596   9.996 -0.4901  0.2563  0.3915
 7341TIP3    H146218   0.491   6.673   9.947  0.3761 -1.8405 -2.7233
 7341TIP3    H246219   0.380   6.571   9.957 -0.1658 -1.0585  0.4809
 7342TIP3   OH246220   4.077   2.480   9.743  0.0607 -0.5117  0.2803
 7342TIP3    H146221   4.109   2.538   9.812 -1.0918  0.2583  0.1951
 7342TIP3    H246222   4.028   2.538   9.684  0.0921 -1.3437 -0.5808
 7343TIP3   OH246223   6.051   6.087   9.208 -0.4051 -0.5382 -0.9284
 7343TIP3    H146224   5.988   6.048   9.269  0.2382 -0.9129 -0.4907
 7343TIP3    H246225   6.028   6.049   9.123 -2.2811  1.1295 -1.2542
 7344TIP3   OH246226   1.281   5.745  13.151 -0.6291  0.1829  0.1079
 7344TIP3    H146227   1.324   5.678  13.204  1.8558  0.6549 -1.1971
 7344TIP3    H246228   1.189   5.740  13.178  0.2116 -0.6331  3.2906
 7345TIP3   OH246229   1.071   2.134  12.424 -0.2573  0.5985  0.0195
 7345TIP3    H146230   1.150   2.161  12.470  0.0293 -1.0187  0.5576
 7345TIP3    H246231   0.999   2.157  12.484 -0.1564  1.5786 -0.2317
 7346TIP3   OH246232   2.306   2.889  11.088 -0.2153 -0.2141  0.2701
 7346TIP3    H146233   2.261   2.941  11.155 -0.5515 -1.9568  1.4565
 7346TIP3    H246234   2.340   2.813  11.135  0.3612 -1.0289 -1.3850
 7347TIP3   OH246235   1.814   1.534  11.243  0.2167  0.4875 -0.0676
 7347TIP3    H146236   1.772   1.515  11.327  0.4177  0.1963 -0.0324
 7347TIP3    H246237   1.840   1.449  11.209 -0.3490  0.5538 -0.6842
 7348TIP3   OH246238   6.395   0.275  10.436 -0.1379 -0.0635  0.1798
 7348TIP3    H146239   6.488   0.257  10.422 -0.1175 -0.4300  0.7245
 7348TIP3    H246240   6.381   0.255  10.529 -0.1540  2.6221  0.8218
 7349TIP3   OH246241   6.508   3.953  11.267 -0.0020  0.0506 -0.5517
 7349TIP3    H146242   6.447   4.027  11.273 -0.2357 -0.1327 -0.6516
 7349TIP3    H246243   6.472   3.887  11.326 -1.2686 -1.0170 -2.4203
 7350TIP3   OH246244   5.157   3.683   9.685  0.7638  0.2244 -0.3498
 7350TIP3    H146245   5.221   3.753   9.671 -0.7881  1.7683 -0.0137
 7350TIP3    H246246   5.099   3.716   9.753  2.1458 -2.9592  2.6557
 7351TIP3   OH246247   3.773   0.905  12.925 -0.1631  0.0181  0.0303
 7351TIP3    H146248   3.686   0.868  12.942 -0.2326 -0.2213 -0.8315
 7351TIP3    H246249   3.824   0.833  12.889  0.0382  0.4573 -0.5854
 7352TIP3   OH246250   3.351   3.848   9.740  0.4758  0.5265  0.6127
 7352TIP3    H146251   3.392   3.879   9.821 -0.9021  0.5126  1.3358
 7352TIP3    H246252   3.257   3.855   9.756  0.1577  1.6897 -1.4338
 7353TIP3   OH246253   3.766   0.288   9.404  0.0785 -0.2966 -0.0929
 7353TIP3    H146254   3.770   0.330   9.318  0.6280  0.2461  0.1901
 7353TIP3    H246255   3.704   0.216   9.393  0.2359 -0.3072 -0.9772
 7354TIP3   OH246256   5.968   2.057  12.121 -0.5395  0.0997 -0.0611
 7354TIP3    H146257   5.884   2.022  12.091 -0.4465  1.0418 -1.4756
 7354TIP3    H246258   5.962   2.151  12.105  0.9087  0.1321 -0.5084
 7355TIP3   OH246259   3.640   2.659   9.672 -0.4636 -0.5320  0.0150
 7355TIP3    H146260   3.675   2.570   9.671 -0.8959 -0.7128 -1.0813
 7355TIP3    H246261   3.688   2.704   9.602 -0.3864  0.0387  0.4326
 7356TIP3   OH246262   0.918   5.340  10.805 -0.5309  0.1428  0.2771
 7356TIP3    H146263   0.894   5.263  10.755  0.1137  1.4608 -2.2062
 7356TIP3    H246264   0.854   5.407  10.780  0.5127  1.1723  0.2531
 7357TIP3   OH246265   2.058   0.071   9.830  0.7370 -0.3076  0.1170
 7357TIP3    H146266   2.132   0.087   9.772  1.0924 -0.6360  0.4707
 7357TIP3    H246267   2.097   0.058   9.916  0.2599 -0.3752  0.3299
 7358TIP3   OH246268   3.751   2.419  11.483 -0.0919 -0.3304  0.3578
 7358TIP3    H146269   3.796   2.502  11.492 -0.5976  0.0544 -0.5611
 7358TIP3    H246270   3.761   2.395  11.391 -0.7518 -0.8173  0.4024
 7359TIP3   OH246271   4.048   3.789  10.110 -0.2985 -0.1197 -0.2077
 7359TIP3    H146272   4.054   3.873  10.155  1.7942  0.5920 -1.6577
 7359TIP3    H246273   3.963   3.792  10.065 -1.1150  0.3570  1.3155
 7360TIP3   OH246274   5.601   1.975  10.541 -0.6320 -0.4699 -0.3368
 7360TIP3    H146275   5.539   2.032  10.586  0.0047 -0.4911  0.5850
 7360TIP3    H246276   5.678   1.974  10.597  0.2053 -0.4681 -1.4484
 7361TIP3   OH246277   3.367   3.374  11.763  0.0670  0.0450  0.3840
 7361TIP3    H146278   3.349   3.414  11.848  1.8917  0.6635  0.5223
 7361TIP3    H246279   3.402   3.446  11.710  1.2813 -0.8590 -0.0814
 7362TIP3   OH246280   3.936   5.857  12.268 -0.0516  0.4825 -0.1567
 7362TIP3    H146281   3.875   5.838  12.196  0.5049  0.9810 -0.7761
 7362TIP3    H246282   4.022   5.853  12.227  0.2438  1.3030  0.3633
 7363TIP3   OH246283   4.553   5.857   9.886  0.3574 -0.4691  0.4127
 7363TIP3    H146284   4.514   5.836   9.971  1.5770  0.4450  1.2303
 7363TIP3    H246285   4.575   5.950   9.893  1.3838 -0.6268 -0.5253
 7364TIP3   OH246286   4.044   5.553  12.872  0.0042  0.4830 -0.3049
 7364TIP3    H146287   4.113   5.538  12.937  0.6602  0.3408 -1.0274
 7364TIP3    H246288   4.060   5.641  12.839 -0.3160  0.5452 -0.2994
 7365TIP3   OH246289   3.430   2.947  11.474  0.8085 -0.0948  0.1187
 7365TIP3    H146290   3.410   2.854  11.464 -1.5820  0.4193 -0.4342
 7365TIP3    H246291   3.356   2.983  11.522  2.2126  1.3726  1.3253
 7366TIP3   OH246292   0.730   0.057  11.316 -0.1767  0.0493 -0.0179
 7366TIP3    H146293   0.651   0.048  11.370 -0.4730 -1.1574 -0.6280
 7366TIP3    H246294   0.711   0.131  11.259  0.5888  2.1194  2.2207
 7367TIP3   OH246295   5.419   2.572  11.396  0.3245  0.6406 -0.2098
 7367TIP3    H146296   5.348   2.540  11.452  0.1852  1.2167 -0.0491
 7367TIP3    H246297   5.406   2.527  11.312  1.0806 -0.9391  0.4758
 7368TIP3   OH246298   1.380   0.541   9.178 -0.1717 -0.5071 -0.7000
 7368TIP3    H146299   1.329   0.525   9.257  0.8012  0.2877  0.1152
 7368TIP3    H246300   1.445   0.471   9.176  0.6188  0.1861 -0.0782
 7369TIP3   OH246301   4.202   4.179   9.632 -0.6219 -0.9129 -0.6403
 7369TIP3    H146302   4.274   4.129   9.669 -1.4365 -1.1903  0.6204
 7369TIP3    H246303   4.208   4.163   9.538  0.9328 -0.9347 -0.5574
 7370TIP3   OH246304   5.027   1.994  11.942 -0.9181  0.3219 -0.2942
 7370TIP3    H146305   5.021   2.065  11.878 -1.2467  2.0221  1.5326
 7370TIP3    H246306   5.114   1.957  11.929 -0.6588  1.1955 -1.1638
 7371TIP3   OH246307   1.771   2.262  12.453 -0.6297  0.4812  0.3114
 7371TIP3    H146308   1.826   2.340  12.461 -0.5095  0.4870 -0.5448
 7371TIP3    H246309   1.772   2.224  12.541  1.6668 -0.1303  0.0890
 7372TIP3   OH246310   1.178   1.034   9.369 -0.2989 -0.1770 -0.2943
 7372TIP3    H146311   1.186   1.056   9.462 -0.4799 -0.0111 -0.3171
 7372TIP3    H246312   1.173   0.939   9.367 -0.2659 -0.1825 -0.1360
 7373TIP3   OH246313   3.135   3.292   9.512 -0.9382 -0.4183 -0.4330
 7373TIP3    H146314   3.100   3.277   9.600  1.1160 -3.9755 -0.0373
 7373TIP3    H246315   3.064   3.265   9.454 -2.3483  2.0487  0.0348
 7374TIP3   OH246316   6.625   0.796  11.561  0.1618  0.3421 -0.1758
 7374TIP3    H146317   6.644   0.889  11.566 -0.5822  0.5731 -1.1599
 7374TIP3    H246318   6.529   0.791  11.555 -0.0254 -0.6337  2.3250
 7375TIP3   OH246319   3.230   2.737  10.600  0.5141  0.0473 -0.1921
 7375TIP3    H146320   3.315   2.761  10.565  1.2197 -1.4702  0.3875
 7375TIP3    H246321   3.221   2.644  10.579 -0.6248 -0.0151  0.4850
 7376TIP3   OH246322   5.425   1.489  10.702 -0.0831  0.2101  0.3938
 7376TIP3    H146323   5.409   1.496  10.797 -0.4660 -0.9863  0.4318
 7376TIP3    H246324   5.487   1.560  10.683 -0.0097  0.4733  1.5378
 7377TIP3   OH246325   2.443   0.010  12.135 -0.5378  0.7517  0.2129
 7377TIP3    H146326   2.392   0.076  12.086 -0.9095  0.0364 -0.3826
 7377TIP3    H246327   2.467  -0.055  12.069 -0.5709  0.0442  0.8833
 7378TIP3   OH246328   0.680   1.100  10.668 -0.1308 -0.4805 -0.1856
 7378TIP3    H146329   0.735   1.037  10.621  0.8183 -0.1986  0.5174
 7378TIP3    H246330   0.643   1.155  10.599  0.9967 -0.2633 -0.6482
 7379TIP3   OH246331   0.215   3.895  10.332  0.4898 -0.0772  0.3157
 7379TIP3    H146332   0.140   3.886  10.273  0.9831  0.0415 -0.3487
 7379TIP3    H246333   0.177   3.921  10.416 -0.4240 -2.3803  0.6755
 7380TIP3   OH246334   0.092   0.604  10.459 -0.1835 -0.1745 -0.4550
 7380TIP3    H146335   0.097   0.538  10.389 -0.8053 -2.0085  1.1352
 7380TIP3    H246336   0.175   0.594  10.506 -0.0294  0.6153 -0.5510
 7381TIP3   OH246337   3.958   3.609  11.766 -0.3867 -0.2806 -0.1837
 7381TIP3    H146338   3.942   3.515  11.756 -0.8671 -0.2057 -0.1382
 7381TIP3    H246339   3.913   3.633  11.847 -1.4815  0.2633 -0.9275
 7382TIP3   OH246340   3.881   4.254  11.334 -0.4337  0.0413  0.1785
 7382TIP3    H146341   3.931   4.300  11.402 -0.8394  3.5187 -1.6375
 7382TIP3    H246342   3.948   4.216  11.277  0.1422  1.8790 -0.4458
 7383TIP3   OH246343   6.465   4.838  10.657  0.1893  0.2450 -0.4888
 7383TIP3    H146344   6.391   4.832  10.597  0.9544  0.7560 -1.5057
 7383TIP3    H246345   6.489   4.747  10.675 -0.1685  0.0890 -0.7960
 7384TIP3   OH246346   2.293   4.135  12.335 -0.5730  0.2400 -0.0508
 7384TIP3    H146347   2.231   4.150  12.264 -2.1062 -0.4270  1.0766
 7384TIP3    H246348   2.368   4.093  12.293 -1.8281 -0.9968 -1.1649
 7385TIP3   OH246349   2.674   1.345  10.297  0.0850 -0.5355  0.0654
 7385TIP3    H146350   2.613   1.298  10.240  0.0280 -0.3140 -0.0583
 7385TIP3    H246351   2.741   1.378  10.237  2.0814 -3.3948  0.4919
 7386TIP3   OH246352   2.589   6.362  12.190  0.3150  0.2466  0.1359
 7386TIP3    H146353   2.539   6.393  12.265 -0.0158  0.0968 -0.0229
 7386TIP3    H246354   2.534   6.296  12.149  0.5894  0.1661 -0.1119
 7387TIP3   OH246355   2.153   5.287  12.277  0.4047 -0.0982  0.3646
 7387TIP3    H146356   2.196   5.205  12.254 -1.4770 -0.5525 -1.7961
 7387TIP3    H246357   2.060   5.270  12.267 -0.0998  2.0218  0.8988
 7388TIP3   OH246358   1.415   6.249  11.762  0.6210 -0.4347  0.3082
 7388TIP3    H146359   1.475   6.194  11.711  0.3523 -1.4281  1.0298
 7388TIP3    H246360   1.363   6.187  11.813 -1.8753  0.3095 -1.1659
 7389TIP3   OH246361   5.249   6.270   9.243  0.1539  0.3745 -0.4728
 7389TIP3    H146362   5.277   6.178   9.243  2.1802  0.8992 -1.8906
 7389TIP3    H246363   5.308   6.313   9.305  2.6910  1.4750 -3.3728
 7390TIP3   OH246364   3.315   4.083  10.585 -0.5808 -0.7194 -0.4440
 7390TIP3    H146365   3.361   4.112  10.506  0.0247  1.3358  0.5968
 7390TIP3    H246366   3.325   3.988  10.585  0.9756 -0.6034 -1.8764
 7391TIP3   OH246367   3.325   0.041  11.455  0.5158 -0.3058 -0.4672
 7391TIP3    H146368   3.286   0.052  11.369 -2.6236 -1.1095  0.7005
 7391TIP3    H246369   3.256   0.068  11.516  2.6284  0.3067  1.8242
 7392TIP3   OH246370   3.490   1.205  11.131 -0.6826  0.4279  0.6631
 7392TIP3    H146371   3.512   1.293  11.102  0.2331  0.0066  0.0165
 7392TIP3    H246372   3.520   1.148  11.060  0.4939 -0.5408  1.8689
 7393TIP3   OH246373   1.345   0.042   9.499 -0.4934 -0.4009 -0.0638
 7393TIP3    H146374   1.419   0.030   9.559  1.1102  1.5293 -1.5136
 7393TIP3    H246375   1.346  -0.037   9.445  1.8158  0.3622 -1.2964
 7394TIP3   OH246376   5.537   0.709  12.183 -0.0984 -0.0424 -0.6224
 7394TIP3    H146377   5.495   0.633  12.142  0.1229  0.3521 -1.6102
 7394TIP3    H246378   5.473   0.779  12.173 -0.8301 -0.3522  1.3866
 7395TIP3   OH246379   1.444   3.560   9.817  0.1288  0.5988  0.0860
 7395TIP3    H146380   1.517   3.584   9.760 -1.1596  0.1572 -1.8504
 7395TIP3    H246381   1.482   3.555   9.904  1.9959  2.2505 -0.5685
 7396TIP3   OH246382   5.355   1.151  11.310 -0.1794  0.0373 -0.0628
 7396TIP3    H146383   5.440   1.176  11.275  0.3416 -0.1593  1.0172
 7396TIP3    H246384   5.375   1.088  11.379 -1.2926 -1.0857 -0.7260
 7397TIP3   OH246385   0.001   2.618  11.581  0.2572 -0.2405 -0.4658
 7397TIP3    H146386   0.033   2.553  11.644  0.9417 -0.2269 -0.7950
 7397TIP3    H246387   0.042   2.700  11.609 -2.6174  0.7083  1.5907
 7398TIP3   OH246388   6.446   4.238  11.008  0.4667  0.6327  0.0616
 7398TIP3    H146389   6.462   4.145  10.992  0.2175  0.5341  0.3774
 7398TIP3    H246390   6.507   4.283  10.949 -0.7982  0.3054 -1.5492
 7399TIP3   OH246391   1.846   5.168  12.577 -0.4019 -0.0848 -0.0227
 7399TIP3    H146392   1.815   5.225  12.648 -0.6674 -0.7258  0.3768
 7399TIP3    H246393   1.920   5.216  12.539  1.8684 -1.0925  2.7221
 7400TIP3   OH246394   4.442   1.749   9.783 -0.2965  0.5022  0.4437
 7400TIP3    H146395   4.481   1.786   9.862 -0.0073  1.0740  0.0379
 7400TIP3    H246396   4.362   1.800   9.769 -0.9930 -0.3992  1.0438
 7401TIP3   OH246397   6.662   1.711  11.208 -0.2291  0.1345 -0.4820
 7401TIP3    H146398   6.657   1.720  11.113 -0.7753  0.6898 -0.4075
 7401TIP3    H246399   6.626   1.624  11.225  0.0796 -0.0580 -0.7986
 7402TIP3   OH246400   6.304   0.040   9.910  0.3976  0.0524 -0.4561
 7402TIP3    H146401   6.238  -0.016   9.870 -0.6494  0.6266  0.4122
 7402TIP3    H246402   6.275   0.129   9.891  0.9246  0.3197 -0.0508
 7403TIP3   OH246403   2.661   6.141  12.829 -0.0202 -1.0585  0.3897
 7403TIP3    H146404   2.716   6.186  12.765 -1.6194 -0.4489 -0.6092
 7403TIP3    H246405   2.722   6.085  12.877  1.4047 -0.6898 -0.9020
 7404TIP3   OH246406   2.640   3.720  12.122 -0.2887  0.3796  0.1424
 7404TIP3    H146407   2.613   3.683  12.038 -0.2567 -0.0701  0.3286
 7404TIP3    H246408   2.563   3.768  12.154 -0.7784 -0.6405  0.5267
 7405TIP3   OH246409   5.319   4.498   9.730  0.1048 -0.2135  0.3291
 7405TIP3    H146410   5.352   4.584   9.702 -0.9792  0.4151  0.8949
 7405TIP3    H246411   5.395   4.440   9.726  1.0043  0.9236  0.5434
 7406TIP3   OH246412   3.529   2.241   9.943 -0.1127  0.2306  0.4478
 7406TIP3    H146413   3.500   2.303  10.010  0.6140  0.4717  0.5395
 7406TIP3    H246414   3.539   2.158   9.990 -2.2451 -0.2815  0.0993
 7407TIP3   OH246415   3.267   6.615  12.672  0.7858  0.4870 -0.0712
 7407TIP3    H146416   3.301   6.526  12.662  0.1896  0.4078 -1.8370
 7407TIP3    H246417   3.317   6.653  12.745  2.6219 -0.5488 -0.7306
 7408TIP3   OH246418   5.724   1.067  10.183 -0.2282  0.1889  0.0240
 7408TIP3    H146419   5.776   1.004  10.232  0.1967 -0.3262 -1.0380
 7408TIP3    H246420   5.771   1.077  10.100 -0.9582  0.9549 -0.3126
 7409TIP3   OH246421   1.633   0.305   9.647 -0.1116 -0.1840 -0.2404
 7409TIP3    H146422   1.618   0.368   9.576  0.4208 -0.0014 -0.1974
 7409TIP3    H246423   1.722   0.325   9.678 -0.8063  0.6303  1.3682
 7410TIP3   OH246424   6.485   0.898  10.058  0.0415  0.4555  0.2183
 7410TIP3    H146425   6.531   0.973  10.094 -1.4965  0.9140  1.3293
 7410TIP3    H246426   6.521   0.823  10.106  0.9425  0.5588 -0.2665
 7411TIP3   OH246427   6.553   5.538  10.677  0.3707 -0.2380 -0.8540
 7411TIP3    H146428   6.607   5.493  10.742 -0.5908 -0.4391 -0.1676
 7411TIP3    H246429   6.495   5.595  10.729 -1.5145 -1.5809 -1.3781
 7412TIP3   OH246430   2.592   6.028   9.147 -0.4081  0.3566  0.9591
 7412TIP3    H146431   2.669   6.013   9.094 -1.0649 -0.8514  0.3051
 7412TIP3    H246432   2.626   6.046   9.235  0.6562  1.7571  0.2881
 7413TIP3   OH246433   5.245   4.250  11.392  0.7703 -0.3745 -0.0347
 7413TIP3    H146434   5.240   4.175  11.451  1.9297  0.8525  1.7177
 7413TIP3    H246435   5.171   4.237  11.331 -2.0036 -0.5772  3.0727
 7414TIP3   OH246436   6.136   2.509  10.503 -0.3028 -0.2929  0.3730
 7414TIP3    H146437   6.112   2.424  10.539 -0.6258 -0.3504  0.0356
 7414TIP3    H246438   6.157   2.491  10.411  1.6691 -0.3384  0.8039
 7415TIP3   OH246439   0.117   2.687  11.255 -0.0548  0.5128  0.3359
 7415TIP3    H146440   0.084   2.646  11.335 -3.3958 -0.2124 -1.2501
 7415TIP3    H246441   0.165   2.618  11.210 -0.3576  0.1707  0.5368
 7416TIP3   OH246442   6.468   1.012  11.231 -0.2728  0.2698  0.6150
 7416TIP3    H146443   6.529   1.014  11.157 -1.3715  1.8702 -0.3376
 7416TIP3    H246444   6.523   1.003  11.308  0.9661 -0.7674 -0.3511
 7417TIP3   OH246445   1.224   3.250  11.503  0.1162 -0.2000  0.6774
 7417TIP3    H146446   1.204   3.324  11.561  0.7635  0.7360 -0.2631
 7417TIP3    H246447   1.209   3.284  11.415  0.9703 -1.0273  0.2027
 7418TIP3   OH246448   2.926   3.855  10.483  0.5935  0.0398  0.6022
 7418TIP3    H146449   2.868   3.929  10.497 -0.3409 -0.3891 -0.8019
 7418TIP3    H246450   2.895   3.788  10.543 -1.8603 -0.9547 -1.5606
 7419TIP3   OH246451   3.330   3.511  11.164 -0.5050 -0.0816  0.0980
 7419TIP3    H146452   3.319   3.589  11.218 -0.1155 -0.6600  1.0308
 7419TIP3    H246453   3.251   3.508  11.110  0.2053  1.8585 -1.1394
 7420TIP3   OH246454   6.332   4.416  10.741  0.2322 -0.1575  0.1395
 7420TIP3    H146455   6.406   4.361  10.768  1.4695  1.1813 -0.4204
 7420TIP3    H246456   6.345   4.429  10.647 -0.8640 -0.1051 -0.0139
 7421TIP3   OH246457   2.155   0.499  12.271  0.2306 -0.1703 -0.0041
 7421TIP3    H146458   2.167   0.580  12.321 -0.3567 -0.6313  0.9083
 7421TIP3    H246459   2.108   0.441  12.331 -1.2999 -0.4342 -1.3875
 7422TIP3   OH246460   5.254   5.115   9.148 -0.7278  0.1948 -0.2290
 7422TIP3    H146461   5.190   5.048   9.174  0.2351 -0.6283  0.0849
 7422TIP3    H246462   5.207   5.169   9.084 -1.1066 -1.6902 -1.6619
 7423TIP3   OH246463   4.492   0.298  10.060  0.8271  0.2908 -0.4771
 7423TIP3    H146464   4.528   0.213  10.036 -0.2658  0.2144 -1.9735
 7423TIP3    H246465   4.452   0.284  10.146  0.7301 -0.6710 -0.6712
 7424TIP3   OH246466   6.389   5.698  12.366  0.4017  0.4557 -0.3793
 7424TIP3    H146467   6.482   5.678  12.375 -0.1229 -1.2520  1.9579
 7424TIP3    H246468   6.379   5.785  12.406  0.8455  0.2550  0.1752
 7425TIP3   OH246469   3.793   1.101  13.127 -0.2364 -0.1200  0.9550
 7425TIP3    H146470   3.868   1.150  13.094 -0.5743 -0.5275 -0.5009
 7425TIP3    H246471   3.790   1.022  13.072 -1.6377 -0.1723  1.0696
 7426TIP3   OH246472   2.486   3.281  10.384 -0.1458  1.1074  0.1372
 7426TIP3    H146473   2.543   3.349  10.420  1.2781  0.9609 -1.6997
 7426TIP3    H246474   2.473   3.307  10.292 -1.2030 -0.0594 -0.0642
 7427TIP3   OH246475   0.742   0.984  10.115 -0.3395 -0.0019  0.3943
 7427TIP3    H146476   0.809   1.047  10.089  0.7156 -1.4534 -0.5828
 7427TIP3    H246477   0.791   0.907  10.143 -1.5926 -1.0611 -0.1993
 7428TIP3   OH246478   4.920   3.903  11.073 -0.0546  0.2875  0.0094
 7428TIP3    H146479   4.832   3.926  11.104  0.1266  0.4240  0.4395
 7428TIP3    H246480   4.906   3.855  10.992 -0.5955 -0.8142  0.7338
 7429TIP3   OH246481   2.414   6.140  12.060  0.6679 -0.1282  0.0912
 7429TIP3    H146482   2.416   6.095  11.976  0.9666  0.0184  0.0202
 7429TIP3    H246483   2.372   6.077  12.120  0.8499 -0.4008 -0.0653
 7430TIP3   OH246484   1.187   2.488  11.551 -0.3325 -1.0244  0.1527
 7430TIP3    H146485   1.191   2.515  11.459  0.0133  0.4580  0.5829
 7430TIP3    H246486   1.116   2.539  11.589  0.8650 -0.0603  1.1835
 7431TIP3   OH246487   2.704   3.400  11.141 -0.0700  0.0350  0.3626
 7431TIP3    H146488   2.632   3.427  11.200 -1.7457 -2.5174 -0.3733
 7431TIP3    H246489   2.761   3.347  11.196 -0.2283 -0.2029  0.2970
 7432TIP3   OH246490   1.685   2.750  12.252  0.1153 -0.3374 -0.0874
 7432TIP3    H146491   1.630   2.687  12.206  0.1379  0.2546 -0.9324
 7432TIP3    H246492   1.760   2.698  12.282  0.2759 -0.6656 -1.0211
 7433TIP3   OH246493   5.693   4.692  11.364 -0.8903 -0.3486  0.3900
 7433TIP3    H146494   5.626   4.637  11.405 -0.3183 -1.9876 -0.7633
 7433TIP3    H246495   5.676   4.685  11.270  0.7444 -0.6468  0.0793
 7434TIP3   OH246496   0.723   5.908  12.449  0.4292 -0.1531  0.1259
 7434TIP3    H146497   0.670   5.981  12.479 -0.2926 -0.8224  0.5281
 7434TIP3    H246498   0.776   5.883  12.524  1.9111  0.9953 -0.4907
 7435TIP3   OH246499   5.568   5.779   9.059  0.2104  0.3437  0.0468
 7435TIP3    H146500   5.535   5.725   9.131  0.6236 -0.8416 -0.6324
 7435TIP3    H246501   5.655   5.744   9.040  0.9892  2.0168  0.3520
 7436TIP3   OH246502   5.119   1.772  12.444  0.1818  0.7813 -0.0193
 7436TIP3    H146503   5.118   1.715  12.521  1.1440  0.2565 -0.3689
 7436TIP3    H246504   5.167   1.850  12.473 -0.9118  1.3137  0.3851
 7437TIP3   OH246505   6.608   3.443   9.141  0.9103 -0.0684  0.0938
 7437TIP3    H146506   6.615   3.478   9.052 -4.0806 -1.3056 -1.1174
 7437TIP3    H246507   6.569   3.514   9.192  2.2638  0.0948  0.9517
 7438TIP3   OH246508   0.457   3.804  11.689  0.1998 -0.0288  0.3522
 7438TIP3    H146509   0.532   3.779  11.743  0.7584  0.6251 -0.1092
 7438TIP3    H246510   0.423   3.884  11.730  0.0222 -0.0779  0.3022
 7439TIP3   OH246511   0.833   5.832   9.299 -0.7960 -0.8424  0.5096
 7439TIP3    H146512   0.925   5.830   9.326 -0.2001 -0.0893 -1.3511
 7439TIP3    H246513   0.809   5.924   9.301 -1.6686 -1.0676  1.3720
 7440TIP3   OH246514   1.583   1.990  11.489  0.0949 -0.2803 -0.1050
 7440TIP3    H146515   1.497   2.031  11.479 -0.6518 -1.8462 -0.4295
 7440TIP3    H246516   1.571   1.928  11.561  1.0628 -0.2438  0.0909
 7441TIP3   OH246517   2.667   5.122  10.969 -0.1811 -0.5893  0.1694
 7441TIP3    H146518   2.712   5.135  10.885 -1.2751 -0.3876 -0.3976
 7441TIP3    H246519   2.611   5.046  10.955 -1.4903  0.3398  0.2335
 7442TIP3   OH246520   1.254   0.224   9.323 -0.3922  0.1623  0.1357
 7442TIP3    H146521   1.229   0.189   9.237 -0.1785 -0.5554  0.3570
 7442TIP3    H246522   1.295   0.149   9.368  0.2423  0.7516  0.5506
 7443TIP3   OH246523   1.939   5.786  11.380 -0.0351 -0.0488  0.1432
 7443TIP3    H146524   1.925   5.876  11.409 -0.9486 -0.6253  1.5873
 7443TIP3    H246525   1.886   5.777  11.301 -2.4481 -0.1531  1.6675
 7444TIP3   OH246526   0.124   2.321   9.872 -0.1841 -0.2565  0.8397
 7444TIP3    H146527   0.066   2.245   9.869 -1.1604  0.5128 -0.2454
 7444TIP3    H246528   0.073   2.393   9.836  0.9480  0.7887  1.2278
 7445TIP3   OH246529   4.024   1.852   9.775 -0.7674 -0.9202  0.3285
 7445TIP3    H146530   4.115   1.844   9.747 -0.7386 -0.4476  0.2774
 7445TIP3    H246531   3.989   1.924   9.723 -1.0877 -0.9047  0.5598
 7446TIP3   OH246532   5.884   3.655  10.732 -0.9806  0.3314 -0.0041
 7446TIP3    H146533   5.836   3.703  10.664  0.1318  2.2631  0.5014
 7446TIP3    H246534   5.873   3.563  10.708 -1.3018  0.9004 -2.3390
 7447TIP3   OH246535   2.873   3.707   9.481 -0.7421 -0.1489  0.4445
 7447TIP3    H146536   2.836   3.775   9.536 -1.2562 -0.9849  1.1546
 7447TIP3    H246537   2.952   3.746   9.443  0.0272  0.2092  2.3324
 7448TIP3   OH246538   6.399   3.942  10.198  0.6315  0.0454 -0.6411
 7448TIP3    H146539   6.484   3.957  10.240  0.9582  0.2398 -1.3550
 7448TIP3    H246540   6.335   3.964  10.265  1.0811  3.6277 -1.2081
 7449TIP3   OH246541   1.159   0.458   9.414 -0.4830 -0.0239  1.1843
 7449TIP3    H146542   1.098   0.435   9.484  0.0669 -1.4378  1.2447
 7449TIP3    H246543   1.201   0.375   9.391  1.7467  0.9467  1.4568
 7450TIP3   OH246544   5.572   2.479   9.528 -0.3144 -0.6556  0.4791
 7450TIP3    H146545   5.654   2.430   9.536  0.7147  0.8032 -0.5980
 7450TIP3    H246546   5.595   2.558   9.478 -2.4785 -0.4296 -0.2959
 7451TIP3   OH246547   2.498   2.577  11.609 -0.0743 -0.4923 -0.3935
 7451TIP3    H146548   2.586   2.539  11.603 -0.6389 -1.9251  0.1119
 7451TIP3    H246549   2.440   2.502  11.617 -1.1275  0.4839  1.9112
 7452TIP3   OH246550   5.313   1.509   9.447  0.7768 -0.7849  0.1685
 7452TIP3    H146551   5.309   1.516   9.542  2.0535  0.0179  0.1847
 7452TIP3    H246552   5.403   1.484   9.428  0.6104 -0.6703 -0.8394
 7453TIP3   OH246553   1.464   3.771  12.248 -0.1063  0.5951 -0.6709
 7453TIP3    H146554   1.520   3.810  12.182  0.4297  2.1666  0.6524
 7453TIP3    H246555   1.525   3.733  12.312 -0.5435  1.1591  0.1006
 7454TIP3   OH246556   4.569   0.360  11.527  0.3965  0.2657 -0.1186
 7454TIP3    H146557   4.605   0.297  11.464 -1.7004  0.1132 -1.2601
 7454TIP3    H246558   4.522   0.424  11.473  0.0419  1.1587  1.2012
 7455TIP3   OH246559   4.621   3.107  11.850  0.2437 -0.0015  0.1946
 7455TIP3    H146560   4.534   3.139  11.826 -0.2741 -0.1736  1.7374
 7455TIP3    H246561   4.639   3.146  11.935  1.8045  0.2133 -0.1868
 7456TIP3   OH246562   6.114   1.238   9.459 -0.5877 -0.0392 -0.1857
 7456TIP3    H146563   6.180   1.286   9.508 -0.6125 -0.3742  0.1779
 7456TIP3    H246564   6.070   1.305   9.407 -2.0322  0.6894  1.8678
 7457TIP3   OH246565   1.249   5.911  12.735 -0.1111  0.0415 -0.0307
 7457TIP3    H146566   1.328   5.956  12.705 -1.3747  1.0462 -2.1048
 7457TIP3    H246567   1.177   5.966  12.704 -1.6979 -2.3244 -0.8375
 7458TIP3   OH246568   0.874   2.901   9.668 -0.1807 -0.5300 -0.2020
 7458TIP3    H146569   0.950   2.843   9.658  0.0433 -0.0844 -1.2292
 7458TIP3    H246570   0.899   2.961   9.739 -0.2557 -1.4097  0.5936
 7459TIP3   OH246571   2.697   5.519  13.015  0.5059 -0.2287  0.0823
 7459TIP3    H146572   2.702   5.451  13.082  0.6671  0.5543  0.8844
 7459TIP3    H246573   2.709   5.601  13.063  1.0020  0.3259 -0.9581
 7460TIP3   OH246574   2.883   2.421  11.944  0.4092 -0.5861 -0.4565
 7460TIP3    H146575   2.942   2.377  12.005  1.1846 -0.1685 -0.8782
 7460TIP3    H246576   2.822   2.469  11.999  0.8949 -0.4814 -0.0027
 7461TIP3   OH246577   4.393   1.120   9.377 -0.6381 -0.2142 -0.0807
 7461TIP3    H146578   4.415   1.047   9.319 -0.2419 -0.7241  0.7072
 7461TIP3    H246579   4.478   1.155   9.404 -0.8263  0.3057 -0.1493
 7462TIP3   OH246580   4.164   0.207  11.804  0.0959 -0.3686  0.2341
 7462TIP3    H146581   4.178   0.204  11.709  2.0320  0.4719  0.4512
 7462TIP3    H246582   4.117   0.125  11.824 -0.0198 -0.7263 -1.3794
 7463TIP3   OH246583   2.105   1.842  10.143  0.3298  0.1660 -0.4347
 7463TIP3    H146584   2.145   1.758  10.166 -0.0612  0.1239  0.1272
 7463TIP3    H246585   2.170   1.907  10.171  0.7738  0.0506 -1.1646
 7464TIP3   OH246586   3.906   0.290  10.513 -0.1544  0.0098  0.3409
 7464TIP3    H146587   3.981   0.308  10.458 -0.8554 -1.0585 -1.0284
 7464TIP3    H246588   3.944   0.251  10.593  0.7141 -3.1951 -1.4399
 7465TIP3   OH246589   2.594   5.275  11.786 -0.0661  0.2090 -0.0282
 7465TIP3    H146590   2.660   5.237  11.728  0.1546 -0.7273  0.8127
 7465TIP3    H246591   2.510   5.248  11.749 -0.0123  1.4178 -1.1127
 7466TIP3   OH246592   1.971   2.143  11.991  0.0125  0.2749  0.2191
 7466TIP3    H146593   1.985   2.159  11.897 -0.5773  2.0201  0.3813
 7466TIP3    H246594   2.039   2.195  12.034 -1.8852  2.4919  0.7965
 7467TIP3   OH246595   3.038   5.970  11.105 -0.2853 -0.0515  0.0958
 7467TIP3    H146596   3.069   5.990  11.193 -1.1414 -0.3176  0.4670
 7467TIP3    H246597   3.036   5.874  11.101 -0.4066 -0.0404 -0.1537
 7468TIP3   OH246598   1.943   0.710  12.755 -0.0757  0.7424 -0.2233
 7468TIP3    H146599   2.003   0.758  12.698  0.2215  0.7184  0.0642
 7468TIP3    H246600   1.930   0.767  12.830  1.2670 -0.1143  0.7171
 7469TIP3   OH246601   3.017   3.997  11.560  0.3973  0.2129  0.2736
 7469TIP3    H146602   3.071   3.919  11.571  2.3050  1.6195  1.6124
 7469TIP3    H246603   3.043   4.033  11.476 -1.1690 -1.0380 -0.7911
 7470TIP3   OH246604   3.790   6.454  12.151  0.1718 -0.5829 -0.0143
 7470TIP3    H146605   3.809   6.451  12.244 -0.0708 -1.0663  0.0196
 7470TIP3    H246606   3.843   6.385  12.112 -0.4838 -1.0469 -0.0982
 7471TIP3   OH246607   1.125   0.897  12.020  0.2279 -0.4267 -0.6348
 7471TIP3    H146608   1.183   0.945  11.960  0.6284 -1.0135 -0.7250
 7471TIP3    H246609   1.184   0.859  12.085 -0.2302  0.4448  0.3181
 7472TIP3   OH246610   2.735   3.833  10.254 -0.2238 -0.0881  0.3436
 7472TIP3    H146611   2.740   3.764  10.320 -2.0743 -0.2581  0.3505
 7472TIP3    H246612   2.792   3.802  10.183 -1.7772 -2.1770 -0.1020
 7473TIP3   OH246613   3.028   5.368   9.802 -0.0560 -0.6690 -0.7615
 7473TIP3    H146614   3.026   5.437   9.736 -0.4247 -0.2945 -0.3706
 7473TIP3    H246615   2.945   5.378   9.850  0.9966  0.2842  0.9888
 7474TIP3   OH246616   5.603   0.814   9.978  0.2289  0.5808 -0.2714
 7474TIP3    H146617   5.539   0.743   9.970  0.8319  0.1680 -2.1074
 7474TIP3    H246618   5.609   0.831  10.072 -2.1669  0.2926  0.0152
 7475TIP3   OH246619   2.899   6.523  10.065 -0.3273 -0.0986 -0.6591
 7475TIP3    H146620   2.870   6.439  10.031 -0.0168 -0.4718 -0.0157
 7475TIP3    H246621   2.832   6.549  10.128 -0.4731  0.1883 -0.9278
 7476TIP3   OH246622   5.073   1.206  12.565 -0.2377  0.0323 -0.2594
 7476TIP3    H146623   5.009   1.146  12.606  2.3892 -1.4089  2.1456
 7476TIP3    H246624   5.075   1.281  12.623  1.0869 -0.5023  0.4258
 7477TIP3   OH246625   2.091   2.970  10.899  0.9219 -0.3883 -0.1237
 7477TIP3    H146626   2.155   2.946  10.967 -0.0086 -1.5598  0.3681
 7477TIP3    H246627   2.068   2.887  10.857 -0.8726 -0.1170  0.2430
 7478TIP3   OH246628   6.226   4.935  11.714 -0.6586 -0.4728 -0.4951
 7478TIP3    H146629   6.179   4.852  11.703  0.4137 -1.1759  0.0976
 7478TIP3    H246630   6.281   4.942  11.636 -0.7552 -0.3098 -0.5482
 7479TIP3   OH246631   6.037   1.268  18.628 -0.1894 -0.7963 -0.0652
 7479TIP3    H146632   6.103   1.213  18.586  0.9166  0.3759  0.0571
 7479TIP3    H246633   5.954   1.241  18.589  0.6161 -0.8307 -1.8128
 7480TIP3   OH246634   3.677   6.379  10.006  0.4341 -0.2677  0.3766
 7480TIP3    H146635   3.584   6.383  10.029  0.8218 -0.6354  2.1889
 7480TIP3    H246636   3.698   6.286  10.008  1.1123 -0.1114  1.2908
 7481TIP3   OH246637   5.834   6.697   9.340  0.4398  0.1774 -0.2765
 7481TIP3    H146638   5.848   6.606   9.365  1.1307  0.2949 -0.2143
 7481TIP3    H246639   5.922   6.730   9.318  0.2325  0.8878 -0.0739
 7482TIP3   OH246640   3.799   5.092  10.466  0.1935 -0.0109 -0.1181
 7482TIP3    H146641   3.752   5.138  10.535 -1.0205  0.6857 -1.3567
 7482TIP3    H246642   3.810   5.003  10.499  0.5392  0.5464  1.3607
 7483TIP3   OH246643   4.941   3.916  10.744  0.6337  0.0932  0.2486
 7483TIP3    H146644   4.885   3.969  10.687  0.3068 -0.7766 -0.2653
 7483TIP3    H246645   4.924   3.826  10.716 -1.4863 -0.6571  3.3886
 7484TIP3   OH246646   6.536   3.981  11.613  0.1841  0.4506  0.1224
 7484TIP3    H146647   6.483   4.044  11.564 -1.4658 -0.1699  1.0073
 7484TIP3    H246648   6.507   3.895  11.580 -1.4136 -0.0092  2.4914
 7485TIP3   OH246649   1.490   1.946  12.267  0.1993  0.0460 -0.4000
 7485TIP3    H146650   1.461   1.971  12.355  1.7788  1.6554 -0.2968
 7485TIP3    H246651   1.580   1.978  12.261  0.2424 -0.3435 -2.4960
 7486TIP3   OH246652   6.377   6.539  12.347 -0.0489 -0.1130  0.4758
 7486TIP3    H146653   6.441   6.540  12.276 -1.5958  0.5679 -0.9717
 7486TIP3    H246654   6.361   6.631  12.367 -1.3219 -0.2309  0.0952
 7487TIP3   OH246655   0.148   5.111   9.482 -0.1246  0.0030 -0.4585
 7487TIP3    H146656   0.118   5.028   9.518  0.9511 -0.1502  0.1329
 7487TIP3    H246657   0.200   5.087   9.406  0.8172  0.0723  0.1506
 7488TIP3   OH246658   1.802   3.825  10.799 -0.0151 -0.1012  0.1259
 7488TIP3    H146659   1.780   3.743  10.843  1.1898  0.5809  2.1146
 7488TIP3    H246660   1.726   3.881  10.814 -0.7334 -0.7103 -1.0242
 7489TIP3   OH246661   3.233   6.367  12.487  0.1255 -0.4852 -0.2024
 7489TIP3    H146662   3.226   6.281  12.447 -0.1800 -0.9658  0.8650
 7489TIP3    H246663   3.298   6.356  12.556 -1.0401 -0.2692  0.9633
 7490TIP3   OH246664   5.373   5.036   9.879 -0.1324 -0.0278 -0.3258
 7490TIP3    H146665   5.398   5.116   9.926 -0.2775 -0.8384  1.2183
 7490TIP3    H246666   5.279   5.047   9.862  0.3437  1.2046 -2.4046
 7491TIP3   OH246667   1.543   6.143  11.087  0.1038  0.4904  0.6329
 7491TIP3    H146668   1.593   6.079  11.036 -0.0825 -0.1024  1.1834
 7491TIP3    H246669   1.517   6.096  11.166 -0.5075  1.0844  0.7941
 7492TIP3   OH246670   2.344   4.186  10.623  0.5402  0.1088  0.3173
 7492TIP3    H146671   2.391   4.149  10.697 -0.4306 -1.0464  0.3862
 7492TIP3    H246672   2.404   4.177  10.549  1.3883  0.9701  0.8771
 7493TIP3   OH246673   2.629   0.647  10.954 -0.4245  0.0266  0.1642
 7493TIP3    H146674   2.605   0.726  10.907 -2.0072  0.0568  0.9824
 7493TIP3    H246675   2.725   0.652  10.961 -0.0294 -0.1050 -3.1982
 7494TIP3   OH246676   5.523   1.485  12.499  0.1875  0.2156 -0.0135
 7494TIP3    H146677   5.612   1.487  12.534  0.4886  0.3818 -0.7567
 7494TIP3    H246678   5.497   1.577  12.494  0.2380  0.2114 -0.4281
 7495TIP3   OH246679   4.439   6.094  11.528 -0.2591 -0.3888 -0.0237
 7495TIP3    H146680   4.369   6.148  11.565 -0.8827 -1.2928  0.1593
 7495TIP3    H246681   4.512   6.155  11.515 -1.1999  0.6518 -0.5800
 7496TIP3   OH246682   1.044   4.083  11.615 -0.0962 -0.1745 -0.0575
 7496TIP3    H146683   0.956   4.073  11.652  0.3363 -0.0543  1.0356
 7496TIP3    H246684   1.035   4.053  11.525 -0.9959 -1.2784  0.3742
 7497TIP3   OH246685   1.531   3.970  12.594 -0.1348  0.2354 -0.3247
 7497TIP3    H146686   1.562   3.938  12.509 -2.0490 -0.8440 -0.6793
 7497TIP3    H246687   1.509   4.062  12.579  0.0156  0.1879 -0.8594
 7498TIP3   OH246688   2.746   5.109  11.602  0.0293 -0.8067 -0.0652
 7498TIP3    H146689   2.815   5.081  11.541  1.4258  0.9749  0.5942
 7498TIP3    H246690   2.699   5.029  11.623  2.1560 -2.1983 -0.2623
 7499TIP3   OH246691   5.438   0.793  12.638 -0.2192  0.4678  0.0274
 7499TIP3    H146692   5.397   0.871  12.675 -2.4274 -1.3052  1.6083
 7499TIP3    H246693   5.396   0.782  12.553 -0.1248  0.8277 -0.0663
 7500TIP3   OH246694   4.077   2.053  12.009  0.5530 -0.4533 -0.0061
 7500TIP3    H146695   4.071   1.980  12.071 -0.7495 -0.0567  0.3756
 7500TIP3    H246696   4.083   2.131  12.065  0.0940 -0.1415 -0.3816
 7501TIP3   OH246697   5.859   0.927  11.817  0.5762  0.1053  0.1589
 7501TIP3    H146698   5.888   0.836  11.807  1.4878  0.3656  0.3538
 7501TIP3    H246699   5.867   0.964  11.730  1.2717  0.2972  0.2989
 7502TIP3   OH246700   0.137   5.362  11.821 -0.2230  0.0071 -0.0756
 7502TIP3    H146701   0.144   5.369  11.726  1.7810 -2.1827 -0.1771
 7502TIP3    H246702   0.101   5.447  11.849  1.2183  1.5519 -2.5716
 7503TIP3   OH246703   3.381   2.537  10.455  0.2369  0.0577  0.3223
 7503TIP3    H146704   3.457   2.530  10.512  1.1596 -0.7955 -0.9694
 7503TIP3    H246705   3.367   2.448  10.423 -0.4382  0.4665 -0.5563
 7504TIP3   OH246706   2.586   1.447  11.852 -0.6494 -0.1973  0.2886
 7504TIP3    H146707   2.541   1.439  11.768  0.9184 -3.2755 -0.3994
 7504TIP3    H246708   2.669   1.489  11.830  0.2899 -2.1019 -0.0241
 7505TIP3   OH246709   4.743   0.216  11.333  0.2301  0.0152 -0.4292
 7505TIP3    H146710   4.769   0.291  11.280  1.3691  1.7312  2.3000
 7505TIP3    H246711   4.671   0.176  11.285 -0.0516  2.5281 -2.3089
 7506TIP3   OH246712   2.323   2.369  11.676 -0.1660 -0.4546 -0.3066
 7506TIP3    H146713   2.290   2.318  11.602 -1.5691 -1.3470  0.8803
 7506TIP3    H246714   2.264   2.348  11.748  1.0550  0.5172  1.0406
 7507TIP3   OH246715   1.506   1.805   9.986 -0.1714 -0.5155 -0.5484
 7507TIP3    H146716   1.597   1.826   9.965  0.1433 -1.4760 -0.1860
 7507TIP3    H246717   1.473   1.764   9.906 -0.2949 -0.1700 -0.6785
 7508TIP3   OH246718   0.210   6.163   9.892 -0.0714 -0.0976 -0.2027
 7508TIP3    H146719   0.305   6.165   9.889  0.0952 -2.9420  0.4331
 7508TIP3    H246720   0.182   6.174   9.801  0.8772  0.2301 -0.4607
 7509TIP3   OH246721   0.586   2.064  10.930  0.5267  0.0046  0.0209
 7509TIP3    H146722   0.675   2.067  10.964  0.5690  0.1796 -0.1059
 7509TIP3    H246723   0.549   2.151  10.951  0.5270  0.0837 -0.3092
 7510TIP3   OH246724   4.216   3.268  10.612 -0.0153 -0.8009  0.1399
 7510TIP3    H146725   4.193   3.358  10.635 -1.8765 -1.0794 -0.4768
 7510TIP3    H246726   4.308   3.259  10.639 -0.5097  0.4849  2.5284
 7511TIP3   OH246727   0.249   1.761  12.192 -0.0422 -0.2783  0.1277
 7511TIP3    H146728   0.249   1.817  12.270 -1.3479 -0.4845  0.2904
 7511TIP3    H246729   0.317   1.799  12.136  0.6570  0.1045  1.1891
 7512TIP3   OH246730   4.547   1.042  10.880 -0.3741  0.6085  0.3897
 7512TIP3    H146731   4.541   1.032  10.975  1.8839  2.2109  0.7769
 7512TIP3    H246732   4.581   0.958  10.849 -0.5111  0.2982  1.0662
 7513TIP3   OH246733   0.581   5.446  11.030 -0.4618  0.0503  0.1858
 7513TIP3    H146734   0.528   5.376  10.992  1.1919 -1.3809  0.4253
 7513TIP3    H246735   0.645   5.467  10.963 -1.4657  2.0200 -0.2335
 7514TIP3   OH246736   0.270   0.697   9.332 -0.0265 -0.1134 -0.1703
 7514TIP3    H146737   0.280   0.695   9.427  1.6289 -0.3177 -0.3188
 7514TIP3    H246738   0.300   0.611   9.303 -2.4737 -0.8541 -0.7682
 7515TIP3   OH246739   5.768   6.171  10.302  0.3730  0.5627 -0.2750
 7515TIP3    H146740   5.732   6.257  10.325 -0.3629  0.5151 -1.1891
 7515TIP3    H246741   5.691   6.114  10.296  0.8328 -0.1042  0.0686
 7516TIP3   OH246742   6.269   2.594  10.946 -0.4165 -0.0789 -0.7649
 7516TIP3    H146743   6.225   2.570  11.028  0.7279  2.2588  0.6556
 7516TIP3    H246744   6.200   2.594  10.881 -2.0393  0.9375  0.8514
 7517TIP3   OH246745   0.981   0.161   9.438 -0.4682  0.7456 -0.2223
 7517TIP3    H146746   1.073   0.167   9.462 -0.8135  1.8280  0.9931
 7517TIP3    H246747   0.981   0.141   9.345  0.9813 -1.9883  0.2496
 7518TIP3   OH246748   4.739   0.579  13.015  0.3595 -0.0869 -0.4421
 7518TIP3    H146749   4.647   0.603  13.027  0.3466 -0.2770 -0.1685
 7518TIP3    H246750   4.756   0.514  13.082  0.9774  0.6802  0.1572
 7519TIP3   OH246751   5.597   1.894  10.274 -0.0623 -0.5499 -0.0404
 7519TIP3    H146752   5.604   1.917  10.367 -0.7472 -2.6872  0.6045
 7519TIP3    H246753   5.535   1.821  10.273 -3.3462  1.9609 -2.6478
 7520TIP3   OH246754   3.426   1.772   9.198 -0.5356  0.0656  0.1178
 7520TIP3    H146755   3.396   1.695   9.149  0.3776 -1.2254  1.4703
 7520TIP3    H246756   3.367   1.776   9.274  0.6504 -0.5418  1.0983
 7521TIP3   OH246757   3.565   1.445  10.298 -0.3943  0.0100 -0.1842
 7521TIP3    H146758   3.629   1.456  10.228 -1.4350  0.4027 -1.0883
 7521TIP3    H246759   3.618   1.434  10.377  0.8300  2.3807 -0.5787
 7522TIP3   OH246760   1.091   5.318  11.858  0.0617  0.0576  0.1663
 7522TIP3    H146761   1.169   5.320  11.913  1.2686 -0.2676 -1.4667
 7522TIP3    H246762   1.081   5.225  11.835  0.0629  0.2999 -0.8203
 7523TIP3   OH246763   6.181   5.802  10.336 -0.0422 -0.0221  0.0546
 7523TIP3    H146764   6.237   5.878  10.349  0.8281 -0.8954  1.9312
 7523TIP3    H246765   6.207   5.767  10.251  0.1878  1.2462 -0.4138
 7524TIP3   OH246766   3.698   0.965  10.276 -0.1766  0.2504  0.0088
 7524TIP3    H146767   3.677   0.950  10.184  1.3842 -0.1427 -0.3253
 7524TIP3    H246768   3.741   0.883  10.303  1.2628  1.1220  0.4615
 7525TIP3   OH246769   5.887   5.052   9.397 -0.4469 -0.4888 -0.1608
 7525TIP3    H146770   5.888   5.147   9.398  0.3302 -0.4871  0.5994
 7525TIP3    H246771   5.818   5.028   9.335  0.8130  0.5571 -2.0083
 7526TIP3   OH246772   4.020   0.328  11.533  0.1948  0.0093 -0.3886
 7526TIP3    H146773   3.958   0.256  11.547  0.0705 -0.2083 -1.9081
 7526TIP3    H246774   3.965   0.406  11.527  0.4263  0.5574  2.8550
 7527TIP3   OH246775   3.286   2.199  10.675 -0.0955  0.5340 -1.1505
 7527TIP3    H146776   3.292   2.293  10.696  0.2401 -0.1669  2.5982
 7527TIP3    H246777   3.211   2.168  10.725  1.6450 -1.7276  0.2552
 7528TIP3   OH246778   6.432   1.257  11.530  0.2180  0.3237 -0.5632
 7528TIP3    H146779   6.357   1.220  11.577 -0.2619  0.7269 -1.0020
 7528TIP3    H246780   6.483   1.301  11.598  1.1657 -1.6641  0.1025
 7529TIP3   OH246781   6.637   0.285  12.352 -0.0752  0.4106  0.7055
 7529TIP3    H146782   6.646   0.318  12.441  1.3483  0.7764  0.4435
 7529TIP3    H246783   6.718   0.310  12.308 -0.7998  0.3373 -0.7368
 7530TIP3   OH246784   1.316   0.671  11.870  0.2600 -0.6950 -0.7673
 7530TIP3    H146785   1.382   0.729  11.832  0.1360 -0.7862 -1.1201
 7530TIP3    H246786   1.243   0.729  11.892  0.3512 -0.6349 -0.6243
 7531TIP3   OH246787   0.495   6.244  12.124 -0.0865  0.6553 -0.0213
 7531TIP3    H146788   0.573   6.214  12.169 -0.2198  1.1265  0.5457
 7531TIP3    H246789   0.520   6.251  12.032 -0.4305 -2.4294 -0.4309
 7532TIP3   OH246790   1.562   3.994   9.906 -0.6268  0.2426  0.0880
 7532TIP3    H146791   1.567   3.984  10.001  1.0766  3.0993  0.4202
 7532TIP3    H246792   1.523   4.080   9.893 -1.4376 -0.3638 -1.8567
 7533TIP3   OH246793   5.688   1.273   9.877  0.0143  0.6460 -0.4071
 7533TIP3    H146794   5.696   1.292   9.784  0.8276  1.6347 -0.1566
 7533TIP3    H246795   5.777   1.252   9.905 -0.5116 -1.4511 -0.2024
 7534TIP3   OH246796   3.008   2.700   9.355 -0.0593 -0.4643  0.2175
 7534TIP3    H146797   3.079   2.705   9.291  1.6312  3.1392  2.0589
 7534TIP3    H246798   3.051   2.703   9.440 -2.3588  0.4544  1.4600
 7535TIP3   OH246799   1.309   2.573   9.723  0.0839  0.1344 -0.0509
 7535TIP3    H146800   1.356   2.564   9.640  0.3915 -1.0263  0.2343
 7535TIP3    H246801   1.374   2.605   9.785  0.1114 -0.0146 -0.0044
 7536TIP3   OH246802   0.311   1.216  12.590 -0.4146 -0.0376  0.3075
 7536TIP3    H146803   0.396   1.195  12.629  0.3946  1.2131 -0.6882
 7536TIP3    H246804   0.322   1.193  12.497 -1.2137  0.0270  0.1930
 7537TIP3   OH246805   2.848   1.896   9.805  0.0895  0.2190 -0.4806
 7537TIP3    H146806   2.889   1.912   9.891  1.2072  0.3456 -1.0237
 7537TIP3    H246807   2.758   1.872   9.826  0.1336  0.9828  0.6988
 7538TIP3   OH246808   2.179   6.215  10.231  0.3295  0.2601  0.1973
 7538TIP3    H146809   2.185   6.249  10.321 -2.1064  0.4650  0.3533
 7538TIP3    H246810   2.238   6.140  10.230  0.0765 -0.0226  2.1264
 7539TIP3   OH246811   4.687   5.791  10.193  0.4535  0.2944 -0.5134
 7539TIP3    H146812   4.595   5.808  10.213  0.6376 -0.7421  1.5195
 7539TIP3    H246813   4.727   5.878  10.190 -0.1571  0.6891  1.1550
 7540TIP3   OH246814   4.501   2.596  10.202 -1.1738  0.0559 -0.4395
 7540TIP3    H146815   4.445   2.598  10.124 -1.7519 -1.7768 -0.1341
 7540TIP3    H246816   4.448   2.638  10.270 -1.5376 -0.2216 -0.5445
 7541TIP3   OH246817   0.956   5.562  11.840  0.2400  0.3149 -0.6965
 7541TIP3    H146818   1.022   5.611  11.791 -0.3948 -0.7580 -2.7364
 7541TIP3    H246819   0.978   5.470  11.825 -0.1673 -0.0569  0.8138
 7542TIP3   OH246820   3.043   1.751  10.031 -0.3197 -0.1091  0.0819
 7542TIP3    H146821   3.006   1.703  10.105 -0.3593 -0.5987 -0.2554
 7542TIP3    H246822   3.010   1.840  10.042  3.4295  1.1773  3.3854
 7543TIP3   OH246823   1.074   5.170  10.292  0.4287 -0.0466  0.4916
 7543TIP3    H146824   1.078   5.254  10.338 -0.7287  0.7111 -0.7225
 7543TIP3    H246825   1.094   5.105  10.360  0.5179  1.1427  1.6522
 7544TIP3   OH246826   3.586   5.855  10.783 -0.3146  0.7229  0.1361
 7544TIP3    H146827   3.511   5.884  10.835 -1.6878 -2.3243  0.0970
 7544TIP3    H246828   3.572   5.895  10.697 -1.7092  0.5463  0.2485
 7545TIP3   OH246829   1.031   3.978  11.915  0.4519 -0.1495  0.6031
 7545TIP3    H146830   1.088   3.954  11.843  0.2422 -1.4627  0.8475
 7545TIP3    H246831   0.997   3.895  11.947 -1.5829  0.5703  0.4760
 7546TIP3   OH246832   6.499   4.098   9.301 -0.3376  0.7110  0.0711
 7546TIP3    H146833   6.437   4.057   9.240  1.2845  0.4438 -1.4752
 7546TIP3    H246834   6.556   4.026   9.330  0.9892  1.3901 -0.7472
 7547TIP3   OH246835   5.218   0.262   9.279 -0.0411 -0.3385 -0.1537
 7547TIP3    H146836   5.226   0.215   9.196  0.6053 -1.8445  0.7217
 7547TIP3    H246837   5.306   0.259   9.317  0.0955  1.8641 -0.1655
 7548TIP3   OH246838   0.635   2.541  11.177  0.0158  0.5666  0.0345
 7548TIP3    H146839   0.693   2.573  11.107  1.4385  0.0829  0.9557
 7548TIP3    H246840   0.563   2.604  11.178 -0.1556  0.4674 -1.9955
 7549TIP3   OH246841   1.619   1.694  12.024 -0.6493  0.2921 -0.0742
 7549TIP3    H146842   1.678   1.647  11.965 -0.0877 -0.7505  1.2494
 7549TIP3    H246843   1.565   1.625  12.063 -1.9116  1.1052 -0.3461
 7550TIP3   OH246844   6.453   6.442  12.973  0.4240  0.4091  0.3755
 7550TIP3    H146845   6.446   6.520  13.028  0.5959  1.2013 -0.6967
 7550TIP3    H246846   6.537   6.453  12.927 -0.5783  0.7578 -1.4831
 7551TIP3   OH246847   1.694   4.571  11.175 -0.7055 -0.2197 -0.0645
 7551TIP3    H146848   1.622   4.626  11.143 -1.9417 -0.1612  2.5556
 7551TIP3    H246849   1.662   4.482  11.167 -0.6581 -0.2571  0.1657
 7552TIP3   OH246850   3.820   4.590  10.582  0.4151 -0.0869 -0.2070
 7552TIP3    H146851   3.778   4.504  10.587 -0.3503  0.2843 -0.1681
 7552TIP3    H246852   3.760   4.644  10.530 -0.8021  1.3618  2.4431
 7553TIP3   OH246853   4.825   4.930  12.222  0.1176 -0.0129  0.7435
 7553TIP3    H146854   4.773   4.886  12.289  0.7436  0.9061  1.8541
 7553TIP3    H246855   4.896   4.869  12.203  0.4995  0.1285  1.6570
 7554TIP3   OH246856   1.715   5.102  10.655 -0.1082 -0.0016  0.0114
 7554TIP3    H146857   1.769   5.045  10.600 -1.0516 -0.1368 -0.8080
 7554TIP3    H246858   1.685   5.046  10.726  0.5693 -0.0044  0.3004
 7555TIP3   OH246859   5.264   0.006  12.813 -0.5045  0.0626 -0.2474
 7555TIP3    H146860   5.269   0.101  12.801 -2.6903  0.1794 -0.7963
 7555TIP3    H246861   5.174  -0.016  12.787  0.0049 -2.1864 -0.2989
 7556TIP3   OH246862   6.577   4.942   9.975  0.0813 -0.5139 -0.4802
 7556TIP3    H146863   6.536   4.987  10.049 -0.9197  0.2892 -1.4834
 7556TIP3    H246864   6.510   4.880   9.945  0.9667 -1.7871  0.0720
 7557TIP3   OH246865   2.222   3.298  10.273 -0.7627 -0.0407  0.3112
 7557TIP3    H146866   2.267   3.274  10.192 -0.7052 -1.2242  0.6827
 7557TIP3    H246867   2.243   3.229  10.334 -2.1092 -0.0041  0.8624
 7558TIP3   OH246868   4.417   0.517  12.485 -0.2061  0.1147 -0.0609
 7558TIP3    H146869   4.409   0.463  12.563 -0.0134  0.4349  0.1858
 7558TIP3    H246870   4.498   0.565  12.497  0.2456 -0.4306 -0.8456
 7559TIP3   OH246871   5.688   4.952   9.261  0.1011  0.3795  0.1424
 7559TIP3    H146872   5.604   4.946   9.305  0.2994 -0.7836  0.3965
 7559TIP3    H246873   5.713   4.861   9.244  0.8541  0.7377 -0.7982
 7560TIP3   OH246874   6.630   4.338   9.396 -0.6256 -0.5468 -0.1249
 7560TIP3    H146875   6.574   4.270   9.358  1.0836 -0.9492 -2.0628
 7560TIP3    H246876   6.719   4.309   9.377  0.2028  1.1495  0.9825
 7561TIP3   OH246877   1.614   5.330  10.761 -1.2579 -0.0400  0.0005
 7561TIP3    H146878   1.557   5.302  10.833 -1.4769 -0.2928 -0.2660
 7561TIP3    H246879   1.624   5.251  10.708 -0.9404  0.0968 -0.1399
 7562TIP3   OH246880   2.563   6.687  10.825 -0.5771  1.0498  0.1005
 7562TIP3    H146881   2.525   6.731  10.749 -0.8887  1.1056  0.2897
 7562TIP3    H246882   2.505   6.613  10.841  1.7533 -1.5597 -2.3442
 7563TIP3   OH246883   4.766   2.529  10.257  0.0148  0.0138  0.0173
 7563TIP3    H146884   4.828   2.572  10.198  1.4105 -1.1937  0.5375
 7563TIP3    H246885   4.680   2.557  10.226  0.7941  1.9667 -0.5617
 7564TIP3   OH246886   1.873   0.293   9.775  0.3209 -0.5583 -0.0354
 7564TIP3    H146887   1.940   0.228   9.792  0.6630 -0.6455 -1.5871
 7564TIP3    H246888   1.851   0.329   9.861  1.7362 -1.1319  0.5794
 7565TIP3   OH246889   2.626   0.012  11.748 -0.7342  0.1588  0.1339
 7565TIP3    H146890   2.598  -0.032  11.828  0.2348 -1.7252 -0.4918
 7565TIP3    H246891   2.665  -0.058  11.696  1.0854  1.8364 -0.8530
 7566TIP3   OH246892   3.159   0.126   9.319 -0.1225 -0.1207 -0.4293
 7566TIP3    H146893   3.216   0.181   9.372  0.2166 -0.4504 -0.4512
 7566TIP3    H246894   3.219   0.071   9.268 -0.3532  1.5628 -2.6754
 7567TIP3   OH246895   2.757  -0.000  12.210 -0.0701 -0.4293  0.6481
 7567TIP3    H146896   2.795  -0.007  12.123  1.3227 -1.7509  1.3124
 7567TIP3    H246897   2.683  -0.061  12.209  0.5219 -1.1557  0.6691
 7568TIP3   OH246898   6.323   0.329  12.223  0.2614 -0.2652 -0.1755
 7568TIP3    H146899   6.364   0.365  12.301  0.6430 -1.7591  0.3514
 7568TIP3    H246900   6.367   0.372  12.150  0.1056  0.9316  0.4230
 7569TIP3   OH246901   2.973   1.678  11.533 -0.0853  0.4573  0.0827
 7569TIP3    H146902   3.001   1.735  11.461 -0.0793  0.6052  0.2040
 7569TIP3    H246903   3.055   1.650  11.573 -0.1226  1.3061  0.7651
 7570TIP3   OH246904   5.985   3.045  10.997  0.3990  0.9196  0.2392
 7570TIP3    H146905   6.032   3.042  11.081  1.7570  2.0322 -0.4339
 7570TIP3    H246906   6.045   3.006  10.934  0.4962  2.4273 -0.6571
 7571TIP3   OH246907   1.766   5.921  10.462 -0.0742 -0.1865  0.6601
 7571TIP3    H146908   1.729   5.833  10.452 -2.0095  0.3145  2.7727
 7571TIP3    H246909   1.845   5.908  10.514  0.3890 -0.7755 -0.1555
 7572TIP3   OH246910   0.443   3.143   9.001  0.0385 -0.2255 -0.1029
 7572TIP3    H146911   0.529   3.136   8.961  0.1633 -1.0888  0.3013
 7572TIP3    H246912   0.411   3.053   9.007 -0.2973 -0.0544  1.0152
 7573TIP3   OH246913   1.071   6.275  12.351  0.0830 -0.1995  0.3659
 7573TIP3    H146914   1.035   6.362  12.335 -0.5550 -0.3208  1.0620
 7573TIP3    H246915   1.008   6.216  12.311  1.0276 -0.3215 -0.9965
 7574TIP3   OH246916   5.473   1.123  10.012 -0.3379 -0.2510 -0.2169
 7574TIP3    H146917   5.538   1.082  10.068  0.7724  1.4053 -0.2104
 7574TIP3    H246918   5.515   1.204   9.983 -2.3751  0.8407 -0.2785
 7575TIP3   OH246919   0.983   5.946  12.072  0.3141  0.2335 -0.1948
 7575TIP3    H146920   0.964   5.853  12.059 -2.5180  0.6194  0.4734
 7575TIP3    H246921   1.071   5.948  12.110 -0.3865 -2.3405  1.8191
 7576TIP3   OH246922   0.306   3.971  12.096  0.1873  0.2433 -0.1585
 7576TIP3    H146923   0.290   3.910  12.025  1.8643  0.8477 -1.1011
 7576TIP3    H246924   0.223   3.973  12.145 -1.6198  1.0595 -3.0361
 7577TIP3   OH246925   0.134   4.758  10.774 -0.3872  0.3199 -0.7050
 7577TIP3    H146926   0.200   4.690  10.762 -1.2469 -1.4089  2.9114
 7577TIP3    H246927   0.182   4.831  10.815 -0.2817 -0.0585 -0.1381
 7578TIP3   OH246928   4.427   0.523   9.912  0.1358  0.5083 -0.6305
 7578TIP3    H146929   4.460   0.439   9.946 -0.1950  0.4590 -0.4296
 7578TIP3    H246930   4.478   0.537   9.833  0.0043 -0.0194 -0.8149
 7579TIP3   OH246931   0.075   5.539   9.649 -0.0317  0.2281  0.3710
 7579TIP3    H146932   0.098   5.626   9.681 -0.2080  0.7098 -0.7559
 7579TIP3    H246933  -0.010   5.551   9.606  0.7594 -0.0919 -1.3966
 7580TIP3   OH246934   1.601   6.379  10.262  0.1683  0.0450  0.1639
 7580TIP3    H146935   1.645   6.297  10.284  1.9596  1.1023  0.7882
 7580TIP3    H246936   1.537   6.392  10.332  0.7233 -0.2391  0.7316
 7581TIP3   OH246937   1.467   2.926  11.119 -0.1623  0.6801  0.7018
 7581TIP3    H146938   1.407   2.910  11.191 -0.8145  0.9180  0.2161
 7581TIP3    H246939   1.446   3.014  11.088  0.5843  0.8598  0.6671
 7582TIP3   OH246940   5.302   0.621  10.535  0.0150  0.4272 -0.2113
 7582TIP3    H146941   5.272   0.556  10.471 -0.1809  0.6323 -0.3272
 7582TIP3    H246942   5.269   0.704  10.502 -2.7299  0.2313  1.6658
 7583TIP3   OH246943   6.207   1.900  10.810  0.2751  0.2427  0.0521
 7583TIP3    H146944   6.118   1.922  10.784  0.5123  0.4242 -0.6465
 7583TIP3    H246945   6.224   1.816  10.769  0.0278 -0.3554  1.1557
 7584TIP3   OH246946   4.902   0.663   9.497 -0.2552 -0.2600 -0.4157
 7584TIP3    H146947   4.945   0.722   9.436 -0.7047 -1.0353 -1.5289
 7584TIP3    H246948   4.971   0.634   9.556  0.0243  1.1349 -0.0227
 7585TIP3   OH246949   3.850   4.252  10.326  0.1611 -0.3239 -0.3014
 7585TIP3    H146950   3.848   4.170  10.276  0.5643 -0.7670  0.3882
 7585TIP3    H246951   3.941   4.281  10.321 -0.3307  1.0371 -2.0240
 7586TIP3   OH246952   1.884   5.869  12.090 -0.0729  0.6055 -0.2045
 7586TIP3    H146953   1.955   5.833  12.143 -1.1442  0.1207  0.9477
 7586TIP3    H246954   1.830   5.918  12.152 -0.2907  1.6967 -1.2145
 7587TIP3   OH246955   1.384   2.975  10.097  0.0180  0.1202 -0.4957
 7587TIP3    H146956   1.467   2.989  10.143  0.4935 -0.1008 -1.2752
 7587TIP3    H246957   1.377   3.047  10.035 -0.2923  0.0367 -0.5640
 7588TIP3   OH246958   5.719   6.521   9.119 -0.5850  0.9092  0.1214
 7588TIP3    H146959   5.627   6.548   9.112 -0.4930  1.2057  0.0593
 7588TIP3    H246960   5.760   6.590   9.171 -0.8127 -0.1835  1.8582
 7589TIP3   OH246961   1.730   1.251  11.130  0.0213  0.5388 -0.7610
 7589TIP3    H146962   1.797   1.202  11.082 -2.4753 -1.5471 -2.4293
 7589TIP3    H246963   1.694   1.313  11.066  0.7459  2.1336  0.3115
 7590TIP3   OH246964   4.371   6.361  11.206 -0.4425  0.4705  0.0980
 7590TIP3    H146965   4.435   6.413  11.256 -1.4631  0.4970  1.4217
 7590TIP3    H246966   4.388   6.385  11.115 -0.0799  2.2277  0.5842
 7591TIP3   OH246967   3.305   2.003   9.966  0.5159  0.4543  0.2765
 7591TIP3    H146968   3.398   1.986   9.984  0.0808 -0.1534  2.1627
 7591TIP3    H246969   3.276   2.058  10.038 -0.8516 -0.2952  0.3410
 7592TIP3   OH246970   5.928   0.609  11.420  0.3894  0.4011 -1.2115
 7592TIP3    H146971   5.889   0.694  11.398 -1.2292  0.2387  0.7413
 7592TIP3    H246972   5.880   0.546  11.367 -0.8644  0.3858 -0.1040
 7593TIP3   OH246973   4.776   1.648   9.799  0.1060 -0.3817 -0.1281
 7593TIP3    H146974   4.835   1.622   9.729  0.8665  0.2161  0.2748
 7593TIP3    H246975   4.770   1.744   9.792 -1.7350 -0.4955 -0.8670
 7594TIP3   OH246976   3.506   3.205  10.296 -0.0918  0.1061 -0.5084
 7594TIP3    H146977   3.510   3.149  10.218 -2.9744 -1.1604  0.0930
 7594TIP3    H246978   3.578   3.174  10.352  1.4494  0.4285 -2.2267
 7595TIP3   OH246979   5.408   1.708  10.269  0.3328  0.1336  0.0446
 7595TIP3    H146980   5.385   1.704  10.362  1.5131 -1.4065  0.3161
 7595TIP3    H246981   5.351   1.642  10.228  1.6605 -1.1419  0.1561
 7596TIP3   OH246982   0.277   3.002   9.865  0.1775  0.2266 -0.1475
 7596TIP3    H146983   0.248   3.077   9.918  0.3016  1.4182 -1.7101
 7596TIP3    H246984   0.230   2.928   9.903 -0.3781  1.1645  1.1023
 7597TIP3   OH246985   2.672   1.207   9.842 -0.3988  0.1299 -0.0137
 7597TIP3    H146986   2.677   1.128   9.788 -1.4080  0.2879 -0.3450
 7597TIP3    H246987   2.758   1.249   9.830 -0.5035  0.0324 -1.3114
 7598TIP3   OH246988   6.246   5.765  10.025  0.1921  0.5157  0.4790
 7598TIP3    H146989   6.308   5.691  10.021 -0.0076  0.3965 -1.1753
 7598TIP3    H246990   6.216   5.775   9.934 -2.4086  0.4272  1.2657
 7599TIP3   OH246991   1.294   1.367   9.297 -0.0980 -0.2468 -0.3403
 7599TIP3    H146992   1.257   1.316   9.226 -1.7156 -1.3143  1.1735
 7599TIP3    H246993   1.365   1.313   9.332  1.5719  0.8466 -1.8795
 7600TIP3   OH246994   6.131   2.281  12.304 -0.4728  0.8118  0.0859
 7600TIP3    H146995   6.083   2.326  12.234  0.7294  1.7589 -0.1620
 7600TIP3    H246996   6.135   2.344  12.375  1.7669  1.4180 -0.4896
 7601TIP3   OH246997   1.789   4.824  10.545 -0.0438  0.2353  0.2517
 7601TIP3    H146998   1.848   4.787  10.479  0.1089  0.8820  0.0104
 7601TIP3    H246999   1.836   4.814  10.628  0.0223 -0.0447  0.1802
 7602TIP3   OH247000   6.417   5.532   9.859  0.2926 -0.3053  0.2442
 7602TIP3    H147001   6.438   5.462   9.797  0.3400 -1.5400  1.5989
 7602TIP3    H247002   6.380   5.602   9.805 -1.8040 -2.2070 -0.9530
 7603TIP3   OH247003   1.921   3.167  11.205  0.2972 -0.4375 -0.7645
 7603TIP3    H147004   1.855   3.203  11.265  0.4323  1.2902 -1.6122
 7603TIP3    H247005   1.884   3.083  11.177 -0.4949 -0.5448  0.4877
 7604TIP3   OH247006   0.197   0.059  12.077 -0.0672  0.1519  0.6957
 7604TIP3    H147007   0.205   0.013  11.994  3.3926 -0.0922  1.0137
 7604TIP3    H247008   0.111   0.034  12.111 -1.0323 -0.7569 -2.1648
 7605TIP3   OH247009   4.739   4.499  11.795  0.0607  0.1201 -0.1456
 7605TIP3    H147010   4.686   4.577  11.813  1.1573  0.8936 -0.1113
 7605TIP3    H247011   4.793   4.525  11.720  0.3765 -0.6444 -0.1830
 7606TIP3   OH247012   5.992   4.353  10.133  1.0329 -0.3468  0.1515
 7606TIP3    H147013   6.014   4.348  10.226 -0.6348  0.9508  0.6658
 7606TIP3    H247014   6.045   4.425  10.099  2.2730 -1.3660 -0.1258
 7607TIP3   OH247015   4.192   2.209  11.329  0.8341 -0.4184 -0.5576
 7607TIP3    H147016   4.107   2.188  11.368 -0.8912  1.1648 -3.1539
 7607TIP3    H247017   4.197   2.152  11.252  1.8716 -0.0986 -0.7365
 7608TIP3   OH247018   6.511   5.998  12.183 -0.0878 -0.0343  0.5850
 7608TIP3    H147019   6.565   5.931  12.142  0.8577  2.6806 -3.2685
 7608TIP3    H247020   6.574   6.056  12.226 -0.5811 -0.0201  1.3009
 7609TIP3   OH247021   6.286   1.899  11.268 -0.3217 -0.6850  1.0988
 7609TIP3    H147022   6.267   1.993  11.265 -2.4089 -1.0850 -0.8707
 7609TIP3    H247023   6.337   1.882  11.189  0.6164 -1.1264  1.7821
 7610TIP3   OH247024   3.658   1.065  12.112 -0.7377 -1.0015 -0.2019
 7610TIP3    H147025   3.641   0.972  12.094 -3.3627 -0.9046  1.2916
 7610TIP3    H247026   3.686   1.067  12.203 -0.5019 -0.3473 -0.2896
 7611TIP3   OH247027   2.722   0.708  11.820  0.2688  0.1933 -0.4838
 7611TIP3    H147028   2.650   0.715  11.758  0.6806 -0.7733 -1.0869
 7611TIP3    H247029   2.690   0.650  11.888  0.5654 -0.4794 -0.9049
 7612TIP3   OH247030   4.266   3.487   9.530 -0.4356  0.1633 -0.3142
 7612TIP3    H147031   4.190   3.544   9.532 -0.7806 -0.3039  0.3331
 7612TIP3    H247032   4.248   3.424   9.460 -1.0316 -0.4529  0.3790
 7613TIP3   OH247033   3.837   0.980   9.959  0.0032 -0.2476 -0.3386
 7613TIP3    H147034   3.915   0.998   9.906  0.0976 -0.3945 -0.2512
 7613TIP3    H247035   3.798   1.066   9.973 -1.0078 -0.3753 -2.1362
 7614TIP3   OH247036   5.696   2.044  10.043 -0.1727  0.3904 -0.5754
 7614TIP3    H147037   5.659   1.991  10.113  1.8821  0.4196  0.6261
 7614TIP3    H247038   5.685   2.134  10.072  3.9424  0.4131  1.7683
 7615TIP3   OH247039   1.336   0.628  11.198 -0.4909  0.3154  0.0693
 7615TIP3    H147040   1.271   0.671  11.143  0.9849  2.0402 -0.4026
 7615TIP3    H247041   1.326   0.668  11.284 -0.6623 -0.0909  0.2421
 7616TIP3   OH247042   5.544   0.375  10.249 -0.3128  0.6549 -0.1173
 7616TIP3    H147043   5.633   0.341  10.241 -0.8081 -0.8823  0.6893
 7616TIP3    H247044   5.556   0.465  10.279  0.9471 -0.2966  2.5458
 7617TIP3   OH247045   4.577   6.552  12.285  0.0309 -0.2924 -0.0860
 7617TIP3    H147046   4.594   6.630  12.232 -2.1565  2.1500  2.5153
 7617TIP3    H247047   4.648   6.551  12.350 -0.5590  0.1942  0.5688
 7618TIP3   OH247048   5.032   6.560  10.897  0.3503 -0.0195 -0.1382
 7618TIP3    H147049   4.989   6.587  10.816 -0.3549  0.7216  0.4613
 7618TIP3    H247050   5.012   6.631  10.959  1.4778 -0.2244  0.4827
 7619TIP3   OH247051   0.657   0.311  11.018 -0.2835  0.1863 -0.1960
 7619TIP3    H147052   0.697   0.384  10.971  1.2333  0.1338  0.9433
 7619TIP3    H247053   0.592   0.352  11.074 -0.6785  0.4618 -0.8402
 7620TIP3   OH247054   6.152   3.758  12.051 -0.2792 -0.1057 -0.2119
 7620TIP3    H147055   6.075   3.808  12.079 -0.3183  0.6233 -1.5543
 7620TIP3    H247056   6.159   3.687  12.115 -1.3424  0.5207  0.6350
 7621TIP3   OH247057   5.387   0.030  11.370  0.1437 -0.1552  0.0879
 7621TIP3    H147058   5.460   0.091  11.371 -0.5838  0.7467 -0.2611
 7621TIP3    H247059   5.341   0.049  11.289 -1.3127  0.3213  0.9790
 7622TIP3   OH247060   0.330   6.430   9.451  0.2040  0.1224 -0.0122
 7622TIP3    H147061   0.392   6.394   9.515 -0.8332 -0.9383  0.4149
 7622TIP3    H247062   0.300   6.512   9.490 -0.9730 -0.8686  1.2304
 7623TIP3   OH247063   3.460   5.267  11.202  0.2853  0.5976  0.4353
 7623TIP3    H147064   3.544   5.310  11.187  0.3067  0.9453  1.4338
 7623TIP3    H247065   3.397   5.318  11.150  0.6175  0.6265  0.0607
 7624TIP3   OH247066   2.154   6.527  12.498  0.2521 -0.0804  0.2937
 7624TIP3    H147067   2.235   6.544  12.450  0.9685  0.4319  1.6333
 7624TIP3    H247068   2.179   6.465  12.567 -0.5480 -0.1299  0.5486
 7625TIP3   OH247069   4.429   0.698  11.406 -0.0930  0.5349  0.4271
 7625TIP3    H147070   4.368   0.680  11.477 -1.6824  3.3854 -0.0405
 7625TIP3    H247071   4.373   0.712  11.330  1.4374 -0.2771 -0.9143
 7626TIP3   OH247072   4.663   4.244  11.852 -0.2479  0.4890 -0.0637
 7626TIP3    H147073   4.712   4.323  11.829  0.8701 -0.1992 -0.0843
 7626TIP3    H247074   4.661   4.192  11.772 -1.1023  0.5494 -0.0896
 7627TIP3   OH247075   4.896   3.792  11.882  0.1224 -0.7927  0.3470
 7627TIP3    H147076   4.805   3.809  11.858  0.7575 -0.5025 -2.1113
 7627TIP3    H247077   4.931   3.877  11.905  0.3097 -0.5223 -0.8556
 7628TIP3   OH247078   1.582   6.530   9.909 -0.1346  0.3830 -0.3618
 7628TIP3    H147079   1.517   6.595   9.882 -1.3653 -1.7171 -2.9479
 7628TIP3    H247080   1.657   6.545   9.852 -0.1294  0.0266 -0.4528
 7629TIP3   OH247081   3.939   2.068  10.641 -0.0672  0.0610 -0.6316
 7629TIP3    H147082   3.964   1.976  10.645  2.3819  0.5681 -2.2941
 7629TIP3    H247083   4.009   2.111  10.592 -1.7278  2.6246 -1.0040
 7630TIP3   OH247084   3.694   2.390   9.663 -0.7293  0.1491  0.2383
 7630TIP3    H147085   3.622   2.328   9.652  1.0965 -2.4206  1.8501
 7630TIP3    H247086   3.756   2.367   9.594 -0.4858  0.9381  0.1869
 7631TIP3   OH247087   5.230   0.218  10.545  0.4452  0.0701  0.7218
 7631TIP3    H147088   5.296   0.181  10.603  0.3427  0.5913  1.1844
 7631TIP3    H247089   5.159   0.154  10.544  0.3650  0.1476  1.3273
 7632TIP3   OH247090   3.327   0.877  10.728  0.4118 -1.0166 -0.4778
 7632TIP3    H147091   3.284   0.890  10.644 -0.0685  1.8719  0.1173
 7632TIP3    H247092   3.324   0.963  10.771  0.7420 -2.3317  2.4514
 7633TIP3   OH247093   3.243   2.633   9.198 -0.3344 -0.1571  0.4665
 7633TIP3    H147094   3.336   2.649   9.210 -0.4023  0.5014  0.1500
 7633TIP3    H247095   3.237   2.541   9.175  0.1387 -0.4765  1.5527
 7634TIP3   OH247096   1.854   1.864  10.585 -0.1244 -0.0375 -0.1506
 7634TIP3    H147097   1.807   1.883  10.666 -0.1136 -0.1188 -0.1261
 7634TIP3    H247098   1.786   1.861  10.518 -0.0837  0.5135 -0.2273
 7635TIP3   OH247099   0.909   0.731   9.727 -0.3671  0.4251  0.1843
 7635TIP3    H147100   0.838   0.790   9.750 -0.6357  0.0240  0.4007
 7635TIP3    H247101   0.912   0.732   9.631 -1.0940 -0.0525  0.1519
 7636TIP3   OH247102   1.071   5.587  12.731 -0.5966  0.0752  0.7144
 7636TIP3    H147103   1.038   5.644  12.801 -2.3076  0.5106 -0.3866
 7636TIP3    H247104   1.060   5.498  12.765  1.1236  0.3256  2.0350
 7637TIP3   OH247105   5.679   0.610   9.568 -0.1182  0.6195 -0.2202
 7637TIP3    H147106   5.596   0.646   9.600 -0.6732  0.5517 -1.5348
 7637TIP3    H247107   5.720   0.682   9.520  1.3968  1.1804  1.7432
 7638TIP3   OH247108   0.732   2.666   9.881 -0.3081 -0.0078 -0.1227
 7638TIP3    H147109   0.798   2.727   9.915 -0.9085  0.5828  0.0082
 7638TIP3    H247110   0.657   2.722   9.861 -1.2223 -0.8222  0.8987
 7639TIP3   OH247111   6.202   3.934  10.400  0.0622 -0.5232  0.4234
 7639TIP3    H147112   6.260   3.924  10.475 -0.7131 -0.4683  1.0466
 7639TIP3    H247113   6.146   3.856  10.402  0.2460 -0.6878 -0.2952
 7640TIP3   OH247114   0.355   0.466  11.376 -0.0190 -0.2858  0.2499
 7640TIP3    H147115   0.382   0.557  11.367  1.4012 -0.8128 -1.1609
 7640TIP3    H247116   0.262   0.467  11.350  0.8392  0.2655 -3.2630
 7641TIP3   OH247117   5.174   2.561   9.536  0.2691  0.4836  0.4020
 7641TIP3    H147118   5.241   2.494   9.518 -0.6818 -0.4503  0.2473
 7641TIP3    H247119   5.091   2.513   9.534 -0.4572  1.7199  0.0712
 7642TIP3   OH247120   3.848   3.855  11.568  0.2041 -0.1566  0.1556
 7642TIP3    H147121   3.884   3.852  11.479 -0.1662  0.2283 -0.0134
 7642TIP3    H247122   3.859   3.767  11.601 -1.4494 -0.8444 -0.9989
 7643TIP3   OH247123   6.500   1.730  12.584  0.1697 -0.3094 -0.1538
 7643TIP3    H147124   6.556   1.657  12.610 -0.6733 -0.7526  0.4676
 7643TIP3    H247125   6.416   1.689  12.561  0.0747  0.3430 -1.0260
 7644TIP3   OH247126   4.818   4.450  10.467 -0.9750 -0.1269  0.1530
 7644TIP3    H147127   4.759   4.470  10.394  0.2186  1.4014 -0.4492
 7644TIP3    H247128   4.887   4.396  10.429 -0.5857  0.3002  0.2479
 7645TIP3   OH247129   0.245   5.529   9.027 -0.8626  0.6725 -0.0205
 7645TIP3    H147130   0.239   5.454   8.969  0.3464  0.5537 -0.0344
 7645TIP3    H247131   0.313   5.505   9.090 -0.3255  1.8049 -0.1340
 7646TIP3   OH247132   1.866   0.019  11.110 -0.1745  0.1818 -0.3040
 7646TIP3    H147133   1.886   0.111  11.098 -0.3879  0.1425 -1.0061
 7646TIP3    H247134   1.872  -0.019  11.022  2.4551 -0.9899  0.2860
 7647TIP3   OH247135   2.013   4.720   9.481 -0.2693 -0.1125 -0.4993
 7647TIP3    H147136   1.947   4.651   9.488 -1.2239  0.8784  0.7782
 7647TIP3    H247137   2.009   4.765   9.565  0.3005  1.5111 -1.3107
 7648TIP3   OH247138   1.775   0.057   9.645 -0.2091 -0.2293  0.1857
 7648TIP3    H147139   1.865   0.082   9.665  0.1440 -0.8228 -0.6191
 7648TIP3    H247140   1.727   0.140   9.644  0.4414  0.1517  0.0246
 7649TIP3   OH247141   4.781   1.291  11.515 -0.2007  0.1968 -0.0154
 7649TIP3    H147142   4.774   1.223  11.448  1.0478  2.4669 -2.6866
 7649TIP3    H247143   4.714   1.355  11.491  2.2525  2.5555 -1.1637
 7650TIP3   OH247144   5.226   3.177  11.497  0.3529  0.2533 -0.2820
 7650TIP3    H147145   5.278   3.212  11.425 -0.0367  0.1486 -0.6184
 7650TIP3    H247146   5.242   3.237  11.570 -0.1228  0.9965 -0.7841
 7651TIP3   OH247147   0.954   2.043   9.505 -0.2360  0.1164  0.2375
 7651TIP3    H147148   0.975   2.090   9.425  2.1900  0.1664  0.8308
 7651TIP3    H247149   0.975   2.104   9.575 -0.1284 -0.7204  0.9551
 7652TIP3   OH247150   3.478   1.624  12.609 -0.3781 -0.1454 -0.0554
 7652TIP3    H147151   3.503   1.715  12.626  0.3849 -0.2850 -0.3607
 7652TIP3    H247152   3.550   1.590  12.555 -1.5314 -0.4019 -1.4863
 7653TIP3   OH247153   0.233   4.501   9.201 -0.4262 -0.1295  0.7181
 7653TIP3    H147154   0.324   4.520   9.180 -0.0970  0.4445  2.4985
 7653TIP3    H247155   0.224   4.407   9.189 -0.0735  0.0197 -1.0292
 7654TIP3   OH247156   4.051   5.084  10.315  0.0489 -0.1563 -0.2216
 7654TIP3    H147157   4.112   5.130  10.373 -0.1716 -0.1621  0.0165
 7654TIP3    H247158   3.964   5.105  10.351 -0.1829  1.0391 -1.3947
 7655TIP3   OH247159   6.079   4.549  10.713  0.3147  0.5641  0.0136
 7655TIP3    H147160   6.131   4.475  10.742  1.1259  0.5838 -1.2731
 7655TIP3    H247161   5.988   4.518  10.715  0.5202 -0.0082  0.7481
 7656TIP3   OH247162   5.541   6.248   9.690  0.2281 -0.1363 -0.2923
 7656TIP3    H147163   5.512   6.226   9.778 -1.5192  1.2837 -0.4568
 7656TIP3    H247164   5.530   6.167   9.640  0.8258 -0.8318  0.6806
 7657TIP3   OH247165   2.235   6.189  10.809 -0.6121 -0.2457 -0.6666
 7657TIP3    H147166   2.326   6.159  10.811 -0.6459 -0.2947  0.3865
 7657TIP3    H247167   2.192   6.129  10.748 -0.2287 -1.0794 -0.1438
 7658TIP3   OH247168   0.215   1.150   9.381 -0.3667  0.3215 -0.0144
 7658TIP3    H147169   0.136   1.127   9.430  1.3811 -1.2070  2.2793
 7658TIP3    H247170   0.223   1.081   9.315 -0.2164 -0.3424  0.6853
 7659TIP3   OH247171   1.021   2.294   9.912  0.1760 -0.2632 -0.0951
 7659TIP3    H147172   1.016   2.296   9.817 -1.0621 -0.2410 -0.0491
 7659TIP3    H247173   0.931   2.309   9.941  0.5401 -0.2370  1.0795
 7660TIP3   OH247174   5.750   6.654  11.544 -0.2390  0.2154  0.2553
 7660TIP3    H147175   5.696   6.724  11.506 -0.4549 -0.7546 -1.3246
 7660TIP3    H247176   5.820   6.700  11.590  1.2657  1.5621 -3.0705
 7661TIP3   OH247177   6.226   2.550  12.020  0.0321  0.2616 -0.4326
 7661TIP3    H147178   6.248   2.567  12.112 -1.2197 -0.7335  0.0816
 7661TIP3    H247179   6.219   2.455  12.014 -0.3232  0.3403 -1.4680
 7662TIP3   OH247180   1.597   6.422  11.115  0.4884 -0.4786  0.5647
 7662TIP3    H147181   1.572   6.335  11.083 -2.0930  0.1950  0.5316
 7662TIP3    H247182   1.616   6.472  11.036 -1.4504 -0.0975  0.2753
 7663TIP3   OH247183   2.989   5.639  10.208  0.0222  0.1734  0.3726
 7663TIP3    H147184   2.975   5.570  10.273 -0.9369  0.8357  0.9091
 7663TIP3    H247185   3.052   5.603  10.147 -1.3496 -1.6387 -0.0510
 7664TIP3   OH247186   3.453   2.071  12.384  0.3240  0.0852  0.4157
 7664TIP3    H147187   3.530   2.019  12.360 -0.1830 -0.7174  0.4975
 7664TIP3    H247188   3.383   2.036  12.329 -0.0715  0.5374  0.6306
 7665TIP3   OH247189   5.218   1.273  10.061  0.0421  0.0093  0.1818
 7665TIP3    H147190   5.193   1.221   9.985 -0.3460  1.4418 -0.7125
 7665TIP3    H247191   5.312   1.287  10.051 -0.1186  0.7436 -0.4159
 7666TIP3   OH247192   4.024   4.476  12.021  0.4083 -0.2515 -0.1794
 7666TIP3    H147193   4.105   4.442  12.058  1.1685  0.0773 -1.4697
 7666TIP3    H247194   3.957   4.413  12.046  0.8873 -0.0975  1.6109
 7667TIP3   OH247195   6.234   4.845  12.079 -0.2672 -0.7143  0.2338
 7667TIP3    H147196   6.285   4.909  12.030 -1.5913  0.1012 -0.1068
 7667TIP3    H247197   6.143   4.863  12.056 -0.9188 -0.5323  2.6961
 7668TIP3   OH247198   0.708   5.534  10.803  0.3741  0.0509  0.1087
 7668TIP3    H147199   0.620   5.503  10.778 -0.1692  0.7537  1.0899
 7668TIP3    H247200   0.715   5.621  10.762 -0.4792  1.1653  2.1729
 7669TIP3   OH247201   4.138   4.077  11.623  0.3235 -0.2255 -0.6557
 7669TIP3    H147202   4.108   3.990  11.649 -1.4372  0.6510  0.4240
 7669TIP3    H247203   4.202   4.100  11.690  0.7532 -0.6521 -0.9121
 7670TIP3   OH247204   4.874   6.014  10.046 -0.6484 -0.1148 -0.7801
 7670TIP3    H147205   4.882   6.076   9.974 -0.3858  1.1508  0.2900
 7670TIP3    H247206   4.949   5.957  10.037 -0.0489  0.6799 -0.9306
 7671TIP3   OH247207   4.527   5.778  10.957  0.1319  0.0962 -0.2993
 7671TIP3    H147208   4.519   5.698  10.904  0.6189  0.4298 -0.8915
 7671TIP3    H247209   4.503   5.849  10.897 -1.3542  0.3313  0.5157
 7672TIP3   OH247210   3.479   0.464  10.071 -0.1534  0.0958 -0.0101
 7672TIP3    H147211   3.455   0.410   9.996  0.1993  1.7575 -1.3736
 7672TIP3    H247212   3.570   0.490  10.054  0.5583 -0.8939  1.8895
 7673TIP3   OH247213   5.391   2.786   9.481  0.1736 -0.1283  0.9718
 7673TIP3    H147214   5.453   2.826   9.542  0.6912 -0.6200  0.7753
 7673TIP3    H247215   5.376   2.698   9.516 -1.0727  0.2620  1.4856
 7674TIP3   OH247216   6.367   4.752  11.233 -0.2606  0.2641  0.6413
 7674TIP3    H147217   6.292   4.805  11.203 -0.5360  0.3482  1.4453
 7674TIP3    H247218   6.440   4.814  11.237  0.0983 -0.0113 -1.0270
 7675TIP3   OH247219   3.369   2.254  10.412 -0.4179  0.3290  0.4472
 7675TIP3    H147220   3.360   2.227  10.504  0.0646 -0.4182  0.2852
 7675TIP3    H247221   3.443   2.203  10.380 -2.3542 -1.6473 -1.1777
 7676TIP3   OH247222   3.025   5.921   9.587  0.0812  0.2842 -0.2989
 7676TIP3    H147223   2.990   6.009   9.600  0.0443  0.1729  0.4022
 7676TIP3    H247224   3.064   5.923   9.500  0.1436  1.0151 -0.2583
 7677TIP3   OH247225   1.898   2.302  11.722  0.0921  0.0195 -0.0619
 7677TIP3    H147226   1.905   2.212  11.689 -0.6373 -0.2452  0.4931
 7677TIP3    H247227   1.806   2.313  11.745 -0.2654  1.5717 -1.9646
 7678TIP3   OH247228   6.236   0.584   9.100  0.3889  0.1295 -0.5702
 7678TIP3    H147229   6.262   0.492   9.093  0.1453  0.1384 -1.7459
 7678TIP3    H247230   6.147   0.581   9.135 -0.2661 -0.1806 -2.1846
 7679TIP3   OH247231   2.104   5.226  11.854  0.1970  0.1796 -0.4681
 7679TIP3    H147232   2.068   5.144  11.889  0.0409  1.2322  2.0337
 7679TIP3    H247233   2.084   5.291  11.921  0.5717  2.2440 -2.2514
 7680TIP3   OH247234   4.081   4.820  12.591  0.0471  0.2447  0.9515
 7680TIP3    H147235   4.046   4.862  12.512  2.4683  0.1443 -0.2484
 7680TIP3    H247236   4.037   4.735  12.594  0.3621 -0.0074 -0.6446
 7681TIP3   OH247237   0.568   4.831   9.921 -0.0222  0.0802  0.0330
 7681TIP3    H147238   0.540   4.828   9.830 -1.2702 -0.0033  0.4130
 7681TIP3    H247239   0.657   4.867   9.917 -0.3366  0.7715 -1.1496
 7682TIP3   OH247240   1.788   0.533  10.988  0.2157 -0.4016  0.4014
 7682TIP3    H147241   1.749   0.601  11.042  0.2106 -0.0714 -0.0190
 7682TIP3    H247242   1.719   0.507  10.927  0.3582 -0.4680  0.2659
 7683TIP3   OH247243   5.805   1.286  11.273  0.0833 -0.1741 -0.1561
 7683TIP3    H147244   5.745   1.255  11.341 -0.3570  0.1288 -0.3999
 7683TIP3    H247245   5.748   1.330  11.209  0.2794 -1.8529 -1.5439
 7684TIP3   OH247246   1.819   6.519  12.246 -0.1433 -0.6104  0.5150
 7684TIP3    H147247   1.859   6.578  12.310  0.4452 -0.5504  0.1013
 7684TIP3    H247248   1.742   6.485  12.290 -0.3856  0.3174  0.8314
 7685TIP3   OH247249   6.345   6.351  11.039  0.0254 -0.6533  0.0205
 7685TIP3    H147250   6.411   6.383  11.100  0.1032  0.1805 -0.4939
 7685TIP3    H247251   6.395   6.322  10.962  0.0639 -3.0249  0.8530
 7686TIP3   OH247252   2.532   4.131  12.536  0.5017  0.7034  0.0692
 7686TIP3    H147253   2.440   4.137  12.509  0.2900 -1.0711  0.2849
 7686TIP3    H247254   2.580   4.177  12.468 -0.6535  3.3629  0.9000
 7687TIP3   OH247255   4.913   5.927  12.793  0.0638  0.0333  0.0912
 7687TIP3    H147256   4.968   5.982  12.737 -0.3412  2.0898  1.6402
 7687TIP3    H247257   4.954   5.930  12.879 -3.1123  2.9202  1.7368
 7688TIP3   OH247258   5.702   0.289   9.131 -0.0174  1.0465 -0.0741
 7688TIP3    H147259   5.731   0.358   9.071  3.6142  0.3616  0.6468
 7688TIP3    H247260   5.710   0.327   9.218  2.7378 -0.3418  0.3855
 7689TIP3   OH247261   4.196   0.676  12.660 -0.0014  0.8649  0.3859
 7689TIP3    H147262   4.260   0.640  12.598  1.0940  2.5645  0.4445
 7689TIP3    H247263   4.116   0.626  12.644  0.7636  0.0381 -1.1261
 7690TIP3   OH247264   5.537   3.116  10.824 -0.2952 -0.1525  0.2907
 7690TIP3    H147265   5.479   3.113  10.900  1.1766  0.0869  1.4696
 7690TIP3    H247266   5.546   3.209  10.803  0.7669 -0.0617  1.0382
 7691TIP3   OH247267   6.231   2.089   9.953  0.3911  0.0032  0.1500
 7691TIP3    H147268   6.257   2.096   9.862 -0.9516  0.0502 -0.2585
 7691TIP3    H247269   6.189   2.003   9.960 -1.0325  0.6630  0.2765
 7692TIP3   OH247270   5.846   3.059   9.685 -0.7530 -0.0772 -0.2386
 7692TIP3    H147271   5.780   3.068   9.754  1.4699  1.0899  1.8862
 7692TIP3    H247272   5.903   2.989   9.716 -0.1365 -0.0537 -1.2817
 7693TIP3   OH247273   0.931   3.630  17.137 -0.0590 -0.2433  0.2612
 7693TIP3    H147274   0.878   3.700  17.098 -1.0060 -0.9268  0.2763
 7693TIP3    H247275   0.929   3.560  17.073  1.8286  0.1373 -0.2500
 7694TIP3   OH247276   6.263   5.005  11.128  0.1139  0.5596 -0.5335
 7694TIP3    H147277   6.338   5.004  11.187  0.0107  2.7370 -0.2813
 7694TIP3    H247278   6.301   5.017  11.041  0.0892  0.8947 -0.4969
 7695TIP3   OH247279   6.305   1.609  11.375 -0.2475  0.3968 -0.1729
 7695TIP3    H147280   6.299   1.691  11.326  1.8032 -0.1308 -1.4423
 7695TIP3    H247281   6.360   1.552  11.321 -0.9590 -1.5644  1.0338
 7696TIP3   OH247282   6.643   4.676  11.329  0.1066  0.0777  0.5457
 7696TIP3    H147283   6.620   4.662  11.237 -2.7553 -0.1855  1.2100
 7696TIP3    H247284   6.611   4.764  11.349 -0.5462 -0.3790  1.6105
 7697TIP3   OH247285   2.708   5.610  11.385 -0.2123  0.0842  0.8500
 7697TIP3    H147286   2.685   5.519  11.367  0.2930  0.1078  0.0466
 7697TIP3    H247287   2.645   5.638  11.451 -1.1615 -0.4725  0.2009
 7698TIP3   OH247288   1.780   0.805  10.171 -0.3761 -0.4961 -0.0519
 7698TIP3    H147289   1.776   0.898  10.151  1.4806 -0.2931  0.3612
 7698TIP3    H247290   1.852   0.772  10.118  1.4072 -0.9257  2.4646
 7699TIP3   OH247291   2.605   2.443   9.864 -0.7169 -0.0745 -0.4381
 7699TIP3    H147292   2.622   2.510   9.798  0.5100  0.2163  0.1415
 7699TIP3    H247293   2.511   2.449   9.881 -0.6661  1.3755 -0.5473
 7700TIP3   OH247294   1.148   1.156  12.175  0.3190 -0.5761  0.2514
 7700TIP3    H147295   1.164   1.239  12.132  1.3771  0.4881  2.5080
 7700TIP3    H247296   1.198   1.092  12.124  1.7828  0.6726  0.0645
 7701TIP3   OH247297   3.879   1.106  10.632  0.3633  0.2937 -0.0918
 7701TIP3    H147298   3.806   1.053  10.665 -1.3312  1.4436 -1.8216
 7701TIP3    H247299   3.942   1.042  10.600 -0.7773 -0.7325 -0.3743
 7702TIP3   OH247300   6.358   0.344  11.170  0.1424  0.1927 -0.2243
 7702TIP3    H147301   6.328   0.269  11.221  1.1649  0.8159  1.3833
 7702TIP3    H247302   6.436   0.312  11.124 -0.2923 -0.1299 -0.7546
 7703TIP3   OH247303   4.866   0.064  12.416 -0.0294 -0.0498  0.4336
 7703TIP3    H147304   4.858  -0.026  12.384  1.2924 -0.1712  0.3575
 7703TIP3    H247305   4.868   0.118  12.338  2.7442 -0.3075  0.2011
 7704TIP3   OH247306   6.156   2.260  10.684  0.4075 -0.6716  0.9306
 7704TIP3    H147307   6.162   2.288  10.775  0.2836  1.7081  0.2925
 7704TIP3    H247308   6.234   2.207  10.670  0.2926 -1.2938  2.4660
 7705TIP3   OH247309   3.146   0.526   9.636  0.4729 -0.0346  0.2199
 7705TIP3    H147310   3.181   0.444   9.601  0.2343 -0.8333  1.7821
 7705TIP3    H247311   3.052   0.509   9.644  0.3112  0.6653 -0.1427
 7706TIP3   OH247312   3.111   2.386  10.183 -0.6867 -0.1574  0.1305
 7706TIP3    H147313   3.090   2.475  10.210  0.9428 -0.1422  1.5763
 7706TIP3    H247314   3.083   2.331  10.257 -0.1052 -0.6328  0.0088
 7707TIP3   OH247315   5.992   6.306  10.533 -0.1491  0.2168 -0.0856
 7707TIP3    H147316   5.987   6.401  10.524 -0.1201  0.2022 -0.2451
 7707TIP3    H247317   6.083   6.284  10.516  0.1315  0.2932  1.1820
 7708TIP3   OH247318   0.579   3.317   9.733  0.1264 -0.3901 -0.5136
 7708TIP3    H147319   0.501   3.328   9.787  1.0656 -0.4779  0.9099
 7708TIP3    H247320   0.598   3.406   9.701  0.3805 -0.0653  0.4990
 7709TIP3   OH247321   5.032   1.851  10.569 -0.1731  0.3328  0.2789
 7709TIP3    H147322   5.091   1.926  10.560  0.8695 -0.2800  1.7631
 7709TIP3    H247323   5.040   1.804  10.485  2.0490 -0.1426  0.7103
 7710TIP3   OH247324   0.969   5.370  11.094  0.3104 -0.4650 -0.1093
 7710TIP3    H147325   0.933   5.339  11.011 -1.7010 -1.4535  1.0380
 7710TIP3    H247326   0.961   5.466  11.089 -0.3963 -0.5504 -0.8057
 7711TIP3   OH247327   3.662   5.170  10.214  0.2455 -0.0325  0.3565
 7711TIP3    H147328   3.728   5.155  10.282  1.2664  0.1748 -0.5748
 7711TIP3    H247329   3.601   5.232  10.254 -0.3951 -1.5382  1.8626
 7712TIP3   OH247330   2.124   2.046  10.531 -0.0311 -0.2587  0.2442
 7712TIP3    H147331   2.136   2.043  10.626 -1.0292  1.9205  0.4895
 7712TIP3    H247332   2.038   2.006  10.516 -0.3669  0.4155  0.3752
 7713TIP3   OH247333   4.132   0.851  10.872  0.0030 -0.4240 -0.0156
 7713TIP3    H147334   4.214   0.869  10.825 -0.5351  2.3043 -0.0617
 7713TIP3    H247335   4.068   0.834  10.803 -0.0518  0.1628 -0.1112
 7714TIP3   OH247336   4.272   0.609  10.515 -0.3480  0.3574  0.3176
 7714TIP3    H147337   4.220   0.673  10.467  0.8081  2.4448  1.6759
 7714TIP3    H247338   4.347   0.591  10.458 -1.1606 -0.5843 -0.4864
 7715TIP3   OH247339   5.600   2.729  11.075  0.0959  0.2227 -0.1154
 7715TIP3    H147340   5.513   2.765  11.092  0.7376  1.4693  0.6278
 7715TIP3    H247341   5.644   2.796  11.022  1.1672  0.3776  0.9272
 7716TIP3   OH247342   5.312   2.142   9.042 -0.8954 -0.3802 -0.8881
 7716TIP3    H147343   5.263   2.164   9.121 -0.7805 -1.2982 -0.5412
 7716TIP3    H247344   5.378   2.210   9.034 -0.1408 -0.9046  0.4965
 7717TIP3   OH247345   6.388   5.001  11.910 -0.3094 -0.2503 -0.5380
 7717TIP3    H147346   6.453   5.068  11.890 -1.5143  1.2020  0.1874
 7717TIP3    H247347   6.333   4.997  11.832 -0.0454 -0.6668 -0.7097
 7718TIP3   OH247348   2.870   2.920   9.958  0.1584 -0.2599  0.5413
 7718TIP3    H147349   2.894   2.850  10.019  0.8517 -1.1656 -0.7267
 7718TIP3    H247350   2.827   2.875   9.886  1.7764  0.4131 -0.9284
 7719TIP3   OH247351   0.078   1.095  11.248 -0.0253  0.2500  0.0486
 7719TIP3    H147352   0.155   1.152  11.251 -0.0602  0.5054 -1.9270
 7719TIP3    H247353   0.035   1.108  11.332  1.5008  0.9367  0.7726
 7720TIP3   OH247354   0.603   6.549  11.692  0.1960  0.3837  0.1331
 7720TIP3    H147355   0.529   6.593  11.651  0.3587  0.8564  0.3418
 7720TIP3    H247356   0.680   6.595  11.658  0.5046 -1.0936 -1.3097
 7721TIP3   OH247357   6.334   4.902  12.841 -0.5135  0.4030  0.1505
 7721TIP3    H147358   6.386   4.875  12.765 -0.4679  1.0267 -0.0392
 7721TIP3    H247359   6.357   4.838  12.909  0.3717  0.5585  0.0152
 7722TIP3   OH247360   4.890   0.585  10.484  0.5924  0.2571  0.3440
 7722TIP3    H147361   4.949   0.626  10.420 -0.7311  0.4382 -0.8055
 7722TIP3    H247362   4.823   0.651  10.501  0.6925  0.0530  1.6244
 7723TIP3   OH247363   6.330   3.863  10.644  0.2847 -0.1941  0.6659
 7723TIP3    H147364   6.420   3.841  10.669  1.3113  0.2114 -2.2806
 7723TIP3    H247365   6.278   3.789  10.675  1.6826 -0.6785  2.0004
 7724TIP3   OH247366   1.765   1.874   9.896 -0.6386  0.4247  0.4106
 7724TIP3    H147367   1.776   1.898   9.988 -1.3368 -0.3343  0.7093
 7724TIP3    H247368   1.749   1.957   9.851 -0.3552  0.7938  0.9769
 7725TIP3   OH247369   4.932   5.252  10.808 -0.1116  0.0509 -0.1864
 7725TIP3    H147370   4.890   5.267  10.724  0.3104 -0.1740 -0.4406
 7725TIP3    H247371   4.898   5.168  10.838 -0.3545  0.1884 -0.0728
 7726TIP3   OH247372   6.578   6.219  10.625  0.4468  0.5053 -0.4098
 7726TIP3    H147373   6.542   6.255  10.544  1.5927  2.4083 -0.1492
 7726TIP3    H247374   6.673   6.225  10.614  0.6281  0.1065  0.7695
 7727TIP3   OH247375   5.727   5.086  10.682 -0.7957  0.0374  0.4125
 7727TIP3    H147376   5.646   5.035  10.691 -0.6644 -0.3743 -0.6879
 7727TIP3    H247377   5.796   5.026  10.710 -0.6426 -0.4079 -0.8677
 7728TIP3   OH247378   6.034   2.480  12.504  0.2054 -0.2984 -0.4305
 7728TIP3    H147379   6.064   2.571  12.498  0.3475 -0.4290 -2.3297
 7728TIP3    H247380   5.941   2.486  12.523  0.4455  0.1903  0.7236
 7729TIP3   OH247381   3.422   0.415  10.760  0.5540 -0.1709 -0.0283
 7729TIP3    H147382   3.346   0.360  10.780  0.4834 -0.3414 -0.7501
 7729TIP3    H247383   3.498   0.359  10.778  0.4784 -0.8046 -1.5339
 7730TIP3   OH247384   1.148   1.008  10.698  0.3786 -0.1455  0.2276
 7730TIP3    H147385   1.077   0.945  10.685 -0.6233  0.9126  0.5268
 7730TIP3    H247386   1.105   1.090  10.719  1.7011  0.4801  0.6021
 7731TIP3   OH247387   1.676   0.487   9.431 -0.4627  0.5332  0.1159
 7731TIP3    H147388   1.626   0.448   9.359  1.1038  0.0610 -0.7747
 7731TIP3    H247389   1.617   0.552   9.469 -1.2474  1.0233 -1.8061
 7732TIP3   OH247390   6.329   3.392  10.240  0.3712  0.4071 -0.5277
 7732TIP3    H147391   6.350   3.478  10.279 -0.5227  0.6202 -0.4912
 7732TIP3    H247392   6.401   3.375  10.180  1.2154  0.5914  0.3956
 7733TIP3   OH247393   4.003   1.605  10.122  0.2522 -0.6923  0.0880
 7733TIP3    H147394   3.968   1.692  10.100 -0.3992 -0.5344  1.6286
 7733TIP3    H247395   4.097   1.618  10.128  0.0487  0.3296  1.8999
 7734TIP3   OH247396   2.591   1.759   9.768 -0.7978  0.8488  0.0441
 7734TIP3    H147397   2.560   1.843   9.802 -1.6177  0.5980 -0.0483
 7734TIP3    H247398   2.511   1.709   9.752 -0.3320  0.1619 -0.1941
 7735TIP3   OH247399   1.319   3.203   9.956 -0.3020 -0.2949  0.7257
 7735TIP3    H147400   1.243   3.238   9.909  0.2480  0.5835  0.4652
 7735TIP3    H247401   1.328   3.261  10.032  1.0358  0.5990 -0.0757
 7736TIP3   OH247402   1.829   2.038  11.669 -0.0795  0.3631 -0.0952
 7736TIP3    H147403   1.823   1.971  11.600  0.2710  2.9239 -2.8043
 7736TIP3    H247404   1.793   1.995  11.747  0.8091 -3.1858 -1.4340
 7737TIP3   OH247405   4.530   1.325  10.879  0.7389 -0.2582 -0.1989
 7737TIP3    H147406   4.541   1.233  10.900  0.2018 -0.1018  0.8893
 7737TIP3    H247407   4.606   1.348  10.826  0.5610 -1.4658 -1.0080
 7738TIP3   OH247408   5.530   1.313  11.100  0.6853  0.3153 -0.2177
 7738TIP3    H147409   5.468   1.372  11.058  0.4626  0.2230 -0.0211
 7738TIP3    H247410   5.522   1.230  11.052 -1.0042 -0.4183  1.2112
 7739TIP3   OH247411   5.083   4.875  10.633 -0.2115 -0.4660  0.1819
 7739TIP3    H147412   5.054   4.912  10.716 -1.7811  2.0664 -1.3468
 7739TIP3    H247413   5.006   4.832  10.598 -0.2338  0.4149 -0.9077
 7740TIP3   OH247414   5.662   4.824  10.887 -0.1956  0.2776  0.1657
 7740TIP3    H147415   5.617   4.740  10.887  1.6233 -0.7477  0.3085
 7740TIP3    H247416   5.595   4.887  10.912 -2.0188 -0.8634 -1.5565
 7741TIP3   OH247417   4.531   4.201   9.225 -0.0857 -0.4347  0.0924
 7741TIP3    H147418   4.600   4.246   9.274 -0.4609 -1.4614  1.6418
 7741TIP3    H247419   4.578   4.140   9.169  0.3216  0.0998 -0.1569
 7742TIP3   OH247420   6.592   1.057  11.939 -0.3036 -0.0068 -0.3725
 7742TIP3    H147421   6.623   1.143  11.967 -0.7709  0.4512 -1.2119
 7742TIP3    H247422   6.664   1.021  11.888  0.1104 -0.3595  0.4524
 7743TIP3   OH247423   1.439   6.331  10.029  0.8985  0.0411  0.1300
 7743TIP3    H147424   1.476   6.411   9.992  0.5507  0.6904  1.1394
 7743TIP3    H247425   1.501   6.304  10.096  0.0030  0.6784  1.2638
 7744TIP3   OH247426   3.309   4.376  11.128  0.0476 -0.1888  0.0190
 7744TIP3    H147427   3.276   4.447  11.073  1.1884 -0.1872 -0.7149
 7744TIP3    H247428   3.317   4.302  11.068  0.2299 -0.5178  0.4480
 7745TIP3   OH247429   1.230   4.189  10.706 -0.5815  0.4475  0.1270
 7745TIP3    H147430   1.165   4.235  10.759  0.6048  0.2989  1.7969
 7745TIP3    H247431   1.315   4.216  10.743  0.2582 -0.4375 -1.0765
 7746TIP3   OH247432   1.065   5.038  11.824  0.0958  0.4633 -0.3366
 7746TIP3    H147433   1.030   4.966  11.876  0.0290  0.2712 -0.6520
 7746TIP3    H247434   1.147   5.004  11.789  0.1644  0.6112 -0.3197
 7747TIP3   OH247435   1.921   2.707   9.720 -0.0036 -0.2060 -0.6278
 7747TIP3    H147436   1.977   2.707   9.642  0.1939  1.1590 -0.5021
 7747TIP3    H247437   1.919   2.798   9.748 -2.5929 -0.1063 -0.8552
 7748TIP3   OH247438   1.074   5.755   9.401  0.1085 -0.3227  0.2051
 7748TIP3    H147439   1.141   5.807   9.357 -0.8186  0.6098 -0.1488
 7748TIP3    H247440   1.071   5.790   9.490  0.5192 -0.7874  0.4048
 7749TIP3   OH247441   1.008   3.206  12.195  0.2944  0.3213 -0.0348
 7749TIP3    H147442   1.097   3.213  12.228  0.8928  1.9741 -1.8625
 7749TIP3    H247443   0.980   3.296  12.182 -1.8519 -0.1381  0.9274
 7750TIP3   OH247444   1.320   6.254  12.233  0.2567 -0.4203  0.1363
 7750TIP3    H147445   1.233   6.237  12.267 -0.1924  0.4790 -0.5180
 7750TIP3    H247446   1.361   6.310  12.299  0.9381 -2.1046  1.2106
 7751TIP3   OH247447   6.568   2.158  11.683  0.1075 -0.1749  0.4163
 7751TIP3    H147448   6.555   2.196  11.769 -0.4677 -0.1512  0.3267
 7751TIP3    H247449   6.550   2.065  11.695 -0.3767 -0.1064  0.2404
 7752TIP3   OH247450   1.565   0.769  12.128 -0.0338  0.0107  0.5835
 7752TIP3    H147451   1.482   0.741  12.090  0.2626 -1.0250  0.6548
 7752TIP3    H247452   1.551   0.762  12.223 -0.3188  1.2268  0.6430
 7753TIP3   OH247453   6.390   2.383   9.356 -0.0136  0.7200  0.2312
 7753TIP3    H147454   6.391   2.473   9.387 -1.5040  1.1257 -0.7762
 7753TIP3    H247455   6.431   2.387   9.269  0.9818  0.1987  0.6548
 7754TIP3   OH247456   6.219   1.784  12.040  0.2584  0.7856 -0.0502
 7754TIP3    H147457   6.139   1.735  12.058 -0.2142  0.8411 -1.8292
 7754TIP3    H247458   6.238   1.766  11.948  2.2719  0.8238  0.3199
 7755TIP3   OH247459   1.130   6.143  10.315 -0.4864 -0.0182 -0.4539
 7755TIP3    H147460   1.101   6.233  10.307 -0.7764  0.0763  1.2393
 7755TIP3    H247461   1.220   6.144  10.282 -0.7116  0.7388 -1.0683
 7756TIP3   OH247462   6.257   6.111  11.517  0.5011  0.5481  0.2845
 7756TIP3    H147463   6.335   6.059  11.498 -0.5596 -0.6625 -0.9518
 7756TIP3    H247464   6.246   6.166  11.440 -1.0962 -0.9045 -0.5836
 7757TIP3   OH247465   1.233   5.014   9.791  0.2031 -0.0084  0.0927
 7757TIP3    H147466   1.215   5.061   9.873  1.7396  1.0246 -0.1117
 7757TIP3    H247467   1.155   5.029   9.737  0.9053  3.0531 -0.2522
 7758TIP3   OH247468   2.443   0.257  10.925  0.0517  0.3156 -0.0798
 7758TIP3    H147469   2.472   0.231  10.838  0.1864  0.4653 -0.0797
 7758TIP3    H247470   2.381   0.189  10.951  0.9221 -0.3925  0.2072
 7759TIP3   OH247471   2.027   6.031   9.322  0.1986 -0.4164 -0.3513
 7759TIP3    H147472   2.114   6.001   9.298 -0.4800 -1.5073 -1.5852
 7759TIP3    H247473   1.986   5.956   9.363 -0.6025 -0.3538 -1.0042
 7760TIP3   OH247474   6.581   6.252  10.889  0.0312 -0.4202 -0.2338
 7760TIP3    H147475   6.615   6.333  10.928 -0.5290 -0.0921 -0.4219
 7760TIP3    H247476   6.584   6.268  10.795 -0.0003 -0.6524 -0.2736
 7761TIP3   OH247477   3.416   6.566  11.861  0.1879  0.3510  0.4061
 7761TIP3    H147478   3.348   6.604  11.805  0.8162  1.3865  0.3090
 7761TIP3    H247479   3.481   6.531  11.800 -0.0996 -0.3443  0.4968
 7762TIP3   OH247480   0.611   3.785  11.255  0.4217 -0.0498 -0.1913
 7762TIP3    H147481   0.547   3.781  11.326  0.9197  1.1885  0.3683
 7762TIP3    H247482   0.573   3.845  11.191 -0.5059 -1.9762 -1.5215
 7763TIP3   OH247483   1.489   2.096  10.733  0.0851 -0.3274  0.1989
 7763TIP3    H147484   1.535   2.015  10.755 -0.3314 -0.1452  1.9477
 7763TIP3    H247485   1.526   2.161  10.792 -1.1260  0.2361  0.3713
 7764TIP3   OH247486   4.398   3.838   9.583  0.1518 -0.1175 -0.4648
 7764TIP3    H147487   4.454   3.864   9.509 -0.8213 -1.0157 -1.5552
 7764TIP3    H247488   4.311   3.831   9.545 -0.5592  0.3656  1.0164
 7765TIP3   OH247489   4.092   4.416  10.302 -0.1018 -0.2364 -0.4403
 7765TIP3    H147490   4.175   4.369  10.300  0.5157  0.6978  1.2955
 7765TIP3    H247491   4.073   4.428  10.395 -0.2809  2.7800 -0.7664
 7766TIP3   OH247492   0.589   5.251  11.273 -0.0516 -0.0270 -0.1611
 7766TIP3    H147493   0.573   5.329  11.220 -0.8520 -0.3539 -0.4080
 7766TIP3    H247494   0.654   5.201  11.223 -0.3944 -0.0683 -0.5707
 7767TIP3   OH247495   2.131   2.587  11.193 -0.2312 -0.1560 -0.0007
 7767TIP3    H147496   2.165   2.632  11.270 -0.3805  0.0394 -0.0501
 7767TIP3    H247497   2.151   2.494  11.209 -0.2625 -0.1169  0.2737
 7768TIP3   OH247498   3.409   5.388  10.694 -0.3143 -0.1103 -0.7595
 7768TIP3    H147499   3.339   5.440  10.733  0.2539  0.4682 -0.4951
 7768TIP3    H247500   3.365   5.336  10.626 -0.7330  1.4493 -1.7204
 7769TIP3   OH247501   4.230   4.854  10.635 -0.0026  0.4145 -0.1593
 7769TIP3    H147502   4.284   4.915  10.585 -0.2120  0.8722  0.1591
 7769TIP3    H247503   4.277   4.842  10.717  0.9302 -1.2332 -0.8738
 7770TIP3   OH247504   1.338   5.821  11.388  0.0971 -0.0091  0.2705
 7770TIP3    H147505   1.310   5.882  11.456  1.2877 -0.4684  1.2183
 7770TIP3    H247506   1.269   5.755  11.385 -0.5439  0.6481  0.1834
 7771TIP3   OH247507   0.932   1.918  12.274 -0.0752 -0.2661  0.4305
 7771TIP3    H147508   0.854   1.966  12.303  0.5176  0.5987  0.6283
 7771TIP3    H247509   1.003   1.955  12.326  0.8896  0.7596 -1.5308
 7772TIP3   OH247510   2.730   1.668   9.546 -0.0380  0.7405  0.1178
 7772TIP3    H147511   2.673   1.697   9.475 -0.5954 -0.1874  0.1625
 7772TIP3    H247512   2.681   1.690   9.626 -0.2572  0.1377  0.1605
 7773TIP3   OH247513   3.246   0.463  12.427 -0.3112 -0.1735  0.2012
 7773TIP3    H147514   3.223   0.554  12.406  0.6592  0.1223  0.3992
 7773TIP3    H247515   3.238   0.417  12.343  1.2969  0.5459 -0.3899
 7774TIP3   OH247516   0.021   2.269  11.111  0.0020  0.5690 -1.0397
 7774TIP3    H147517   0.009   2.283  11.205 -2.4858 -1.9163 -0.8513
 7774TIP3    H247518  -0.068   2.271  11.075  0.1757 -3.7935 -2.3606
 7775TIP3   OH247519   5.623   5.253  12.585  0.6733 -0.0812 -0.2929
 7775TIP3    H147520   5.709   5.294  12.590  1.1809 -1.2126  1.7702
 7775TIP3    H247521   5.574   5.305  12.521  2.4216  1.4405 -0.4686
 7776TIP3   OH247522   3.454   6.156  10.407  0.2361  0.3199  0.1642
 7776TIP3    H147523   3.382   6.164  10.470  0.1005  0.2712  0.0172
 7776TIP3    H247524   3.462   6.061  10.393  0.0731  0.3439 -0.1097
 7777TIP3   OH247525   4.962   2.699  10.845 -0.3106  0.2302 -0.4726
 7777TIP3    H147526   5.024   2.645  10.795 -0.9781 -0.6508 -0.3772
 7777TIP3    H247527   4.879   2.651  10.840 -0.4341  0.1795  1.3931
 7778TIP3   OH247528   5.741   0.427   9.761 -0.0721  0.2585  0.8537
 7778TIP3    H147529   5.705   0.475   9.686 -0.9879  0.4791  1.4241
 7778TIP3    H247530   5.664   0.390   9.805  0.5339 -0.7599  1.0876
 7779TIP3   OH247531   6.267   4.170   9.837 -0.4049 -0.2711 -0.0486
 7779TIP3    H147532   6.242   4.189   9.927 -1.5463 -1.2420 -0.1382
 7779TIP3    H247533   6.355   4.132   9.844  0.3788  1.5106  0.4399
 7780TIP3   OH247534   0.425   5.927  10.706 -0.7499 -0.5395 -0.0278
 7780TIP3    H147535   0.391   5.996  10.763  0.8599 -1.9712  2.9107
 7780TIP3    H247536   0.385   5.944  10.621 -0.6796  3.8288  0.5624
 7781TIP3   OH247537   0.331   3.156  10.805  0.4446 -0.4739 -0.7932
 7781TIP3    H147538   0.403   3.219  10.810  0.4503 -0.5502  0.5872
 7781TIP3    H247539   0.295   3.154  10.894 -0.6030 -1.2093 -1.2106
 7782TIP3   OH247540   6.293   4.428  12.504  0.2020  0.8479  0.3322
 7782TIP3    H147541   6.242   4.395  12.431 -0.7343  1.7284  0.5604
 7782TIP3    H247542   6.300   4.355  12.564 -1.5038  0.9150  0.6626
 7783TIP3   OH247543   4.869   1.205  10.594 -0.1979 -0.4929  0.3723
 7783TIP3    H147544   4.877   1.296  10.623 -1.6998 -0.5883  1.1743
 7783TIP3    H247545   4.776   1.194  10.575  0.2345 -1.3620 -1.4942
 7784TIP3   OH247546   0.315   0.582  12.999 -0.3444  0.9825  0.1490
 7784TIP3    H147547   0.302   0.523  12.925  3.0056 -0.9088  0.8632
 7784TIP3    H247548   0.385   0.641  12.971  0.6514  0.5339  1.5840
 7785TIP3   OH247549   2.698   6.017  11.816  0.3884  0.3646 -0.4856
 7785TIP3    H147550   2.747   6.015  11.898  0.3556  1.3533 -0.4379
 7785TIP3    H247551   2.613   5.979  11.839  1.0323 -1.2183 -0.5343
 7786TIP3   OH247552   5.835   5.913  11.279  0.4457 -0.0971  0.2817
 7786TIP3    H147553   5.859   5.851  11.210 -1.4579  1.3030 -1.7745
 7786TIP3    H247554   5.873   5.996  11.252  1.3323  0.1052  1.9975
 7787TIP3   OH247555   3.453   0.197   9.118  0.4480  0.1011  0.3830
 7787TIP3    H147556   3.435   0.104   9.135 -0.5700  0.7665  3.7250
 7787TIP3    H247557   3.370   0.231   9.084  0.2765  0.1201  0.8177
 7788TIP3   OH247558   4.932   1.503  11.644 -0.4723  0.4608 -0.0555
 7788TIP3    H147559   4.869   1.446  11.600 -1.0613 -0.4435  1.8692
 7788TIP3    H247560   4.892   1.590  11.641 -0.3147  0.5127 -1.5936
 7789TIP3   OH247561   0.494   2.977  12.173  0.6251  0.2612 -0.0511
 7789TIP3    H147562   0.513   3.012  12.260 -2.4434 -1.5416  1.4963
 7789TIP3    H247563   0.507   2.882  12.182  1.0088  0.0997 -1.8360
 7790TIP3   OH247564   5.536   2.304   9.215  0.7147  0.0442 -0.0991
 7790TIP3    H147565   5.442   2.289   9.227  0.5834  0.2279 -0.8286
 7790TIP3    H247566   5.552   2.388   9.256  0.6934 -0.2950  0.6143
 7791TIP3   OH247567   5.822   2.485  10.665 -0.2138  0.1164 -0.0837
 7791TIP3    H147568   5.778   2.446  10.741 -0.2364  1.0701  0.4055
 7791TIP3    H247569   5.833   2.412  10.604  0.5056 -0.8438  1.1521
 7792TIP3   OH247570   2.157   4.389  10.904 -0.1801  0.0125 -0.4816
 7792TIP3    H147571   2.136   4.466  10.850  0.6328 -0.2599 -1.2181
 7792TIP3    H247572   2.248   4.401  10.928 -0.1997 -0.4617 -0.1619
 7793TIP3   OH247573   2.965   1.823   9.558 -0.3120 -0.1605  0.2027
 7793TIP3    H147574   2.937   1.863   9.640  1.3327  0.0488  0.6980
 7793TIP3    H247575   2.894   1.762   9.535 -1.8102  1.3728  0.6039
 7794TIP3   OH247576   5.041   6.631   9.821  0.1497  0.1736 -0.5089
 7794TIP3    H147577   4.999   6.716   9.834  0.4202 -0.0289  2.0455
 7794TIP3    H247578   5.135   6.650   9.821  0.1915 -0.0239 -0.8593
 7795TIP3   OH247579   4.889   3.012   9.999 -0.6622 -0.0575  0.2524
 7795TIP3    H147580   4.883   3.107   9.996  0.6142  0.0128 -1.4588
 7795TIP3    H247581   4.800   2.983  10.021 -0.8557  1.5199  1.8049
 7796TIP3   OH247582   4.957   0.942  10.586  0.5921  0.2942  0.0302
 7796TIP3    H147583   5.052   0.956  10.590  0.5202  0.6396  0.5753
 7796TIP3    H247584   4.920   1.031  10.587  0.2771  0.1691 -0.5434
 7797TIP3   OH247585   4.688   0.440  12.345 -0.5044 -0.0719 -0.7897
 7797TIP3    H147586   4.610   0.386  12.359 -0.3573  0.2584  2.0838
 7797TIP3    H247587   4.657   0.515  12.295 -2.7904  1.3697  2.4271
 7798TIP3   OH247588   1.322   1.872   9.324 -0.5837  0.4564 -0.0574
 7798TIP3    H147589   1.232   1.901   9.305 -0.1827 -0.0328 -3.2975
 7798TIP3    H247590   1.312   1.785   9.361 -1.4891 -0.6249 -2.6297
 7799TIP3   OH247591   1.609   3.628   9.641 -0.0018  0.3603 -0.0857
 7799TIP3    H147592   1.703   3.610   9.650  0.0824  0.8467  0.0426
 7799TIP3    H247593   1.602   3.723   9.645 -0.6745  0.2723  1.5792
 7800TIP3   OH247594   6.187   4.609   9.464 -0.3016  0.0828  0.3107
 7800TIP3    H147595   6.144   4.690   9.437 -0.4670 -0.2302 -0.3766
 7800TIP3    H247596   6.260   4.599   9.402 -0.7185 -0.6675 -0.0677
 7801TIP3   OH247597   3.980   5.680   9.875 -0.1804 -1.0549  0.3377
 7801TIP3    H147598   4.014   5.766   9.901 -1.1129 -0.5877  0.0768
 7801TIP3    H247599   4.007   5.670   9.784 -0.5701 -0.7614  0.1848
 7802TIP3   OH247600   1.666   4.843   9.217  0.5099 -0.6913  0.0553
 7802TIP3    H147601   1.672   4.793   9.135 -1.4220 -0.2395 -0.4207
 7802TIP3    H247602   1.753   4.882   9.228  0.8859 -0.9479 -1.6682
 7803TIP3   OH247603   6.491   0.582  12.122  0.8504  0.3118 -0.4335
 7803TIP3    H147604   6.554   0.652  12.109  0.2069  1.5488  2.3577
 7803TIP3    H247605   6.493   0.565  12.216  0.3586 -2.8777 -0.8882
 7804TIP3   OH247606   4.776   1.041  11.348  0.5251 -0.0686  0.0825
 7804TIP3    H147607   4.782   1.023  11.254  0.6674 -0.8488  0.2406
 7804TIP3    H247608   4.827   0.972  11.389  0.8381  0.5324  0.7166
 7805TIP3   OH247609   0.105   0.712  11.352  0.2349 -0.3193  0.5207
 7805TIP3    H147610   0.195   0.744  11.361 -0.0817  0.3008  1.8089
 7805TIP3    H247611   0.072   0.709  11.442 -1.4498  0.7313 -0.0089
 7806TIP3   OH247612   3.466   4.884  10.307 -0.5962 -0.3352  0.1489
 7806TIP3    H147613   3.501   4.951  10.248 -1.1626  0.8308  1.0696
 7806TIP3    H247614   3.376   4.912  10.323 -0.0122  0.3520  2.8027
 7807TIP3   OH247615   3.903   1.619  10.367 -0.1229  0.5184 -0.1511
 7807TIP3    H147616   3.910   1.600  10.273  0.3551  1.6163 -0.3493
 7807TIP3    H247617   3.880   1.712  10.371  3.6876  1.5760  0.8337
 7808TIP3   OH247618   5.888   4.895  10.038 -0.0947 -0.1816 -0.4457
 7808TIP3    H147619   5.867   4.952  10.112 -1.2771  0.5865 -1.3146
 7808TIP3    H247620   5.804   4.882   9.994  0.6343 -0.2502 -1.8883
 7809TIP3   OH247621   5.848   6.209  11.630 -0.5245 -0.1644 -0.3214
 7809TIP3    H147622   5.885   6.264  11.562 -0.0979 -1.0764 -0.8491
 7809TIP3    H247623   5.797   6.143  11.583 -1.9576  0.4423  0.3530
 7810TIP3   OH247624   2.123   6.537  12.160  0.1778 -0.1991 -0.3446
 7810TIP3    H147625   2.175   6.461  12.135 -0.1251 -0.1880 -1.0302
 7810TIP3    H247626   2.034   6.502  12.171  0.1350 -0.0367 -0.1755
 7811TIP3   OH247627   4.175   2.971  10.751  0.1187 -0.2328 -0.2108
 7811TIP3    H147628   4.248   2.908  10.755 -0.5926 -1.3835 -2.8827
 7811TIP3    H247629   4.135   2.955  10.665 -1.5395  2.3373 -0.0126
 7812TIP3   OH247630   5.312   4.032  11.588  0.4414 -0.5349 -0.1212
 7812TIP3    H147631   5.272   3.983  11.660  0.4221 -1.6916 -0.9010
 7812TIP3    H247632   5.406   4.029  11.606  0.3789 -0.0793  0.3030
 7813TIP3   OH247633   2.574   4.365   9.874 -0.2594  0.1181  0.2185
 7813TIP3    H147634   2.652   4.414   9.900  1.4539 -0.8789 -2.5440
 7813TIP3    H247635   2.522   4.427   9.823  1.4484 -0.4860 -2.4715
 7814TIP3   OH247636   1.657   4.455  12.218  0.4298 -0.1314  0.3452
 7814TIP3    H147637   1.694   4.467  12.130  1.9940 -2.4111  0.6149
 7814TIP3    H247638   1.584   4.395  12.205  0.3995 -0.1407  0.5515
 7815TIP3   OH247639   1.406   1.115  11.032  0.0206 -0.0910 -0.1150
 7815TIP3    H147640   1.361   1.058  10.970 -0.3047 -1.1184  1.0217
 7815TIP3    H247641   1.468   1.164  10.979  0.0420 -1.2379 -1.1962
 7816TIP3   OH247642   3.924   2.631  11.464 -0.5929  0.0203  0.9365
 7816TIP3    H147643   3.907   2.603  11.374 -1.0754  0.7988  0.7803
 7816TIP3    H247644   3.986   2.704  11.455 -0.2779 -0.2003  1.2691
 7817TIP3   OH247645   3.718   4.047  10.672  0.0845 -0.0104  0.2043
 7817TIP3    H147646   3.681   3.959  10.678 -0.0269 -0.1098 -1.5091
 7817TIP3    H247647   3.763   4.049  10.588  2.0939  0.8478  1.2265
 7818TIP3   OH247648   0.765   2.615   9.601 -0.1686 -0.2125  0.4168
 7818TIP3    H147649   0.734   2.540   9.651 -2.3302  0.3106 -0.0330
 7818TIP3    H247650   0.757   2.690   9.661 -4.1288  0.6756 -0.8707
 7819TIP3   OH247651   1.674   1.148   9.777  0.3342 -0.3625 -0.5431
 7819TIP3    H147652   1.715   1.121   9.694  0.1176  2.5913 -1.7301
 7819TIP3    H247653   1.738   1.123   9.844  1.8077 -0.3247 -1.8789
 7820TIP3   OH247654   0.300   4.010  10.092 -0.5904  0.0198  0.2334
 7820TIP3    H147655   0.370   4.074  10.105 -0.8308  0.1406  0.9866
 7820TIP3    H247656   0.287   3.970  10.178 -1.9699  0.5535  0.3026
 7821TIP3   OH247657   3.600   0.295  10.456  0.1947  0.0487 -0.6937
 7821TIP3    H147658   3.602   0.255  10.543 -0.0554 -1.4965 -1.3624
 7821TIP3    H247659   3.686   0.278  10.419  0.3737  0.8896 -0.6808
 7822TIP3   OH247660   6.130   6.512  10.967  0.4808  0.0644  0.1501
 7822TIP3    H147661   6.208   6.461  10.985  1.0219  0.7359 -0.1973
 7822TIP3    H247662   6.117   6.503  10.872  0.2022  0.0356  0.1908
 7823TIP3   OH247663   1.051   2.863  11.733 -0.7837 -0.2796 -0.3149
 7823TIP3    H147664   1.106   2.925  11.686 -0.3491 -0.7207 -0.3946
 7823TIP3    H247665   1.109   2.825  11.799 -0.7742 -1.3166 -0.9003
 7824TIP3   OH247666   0.331   4.215  10.877  0.1207  0.4162 -0.6535
 7824TIP3    H147667   0.365   4.139  10.830  0.7150 -0.1443  0.6544
 7824TIP3    H247668   0.403   4.243  10.933 -0.4627  1.2728 -0.3139
 7825TIP3   OH247669   0.422   4.252   9.322  0.0089  0.3208 -0.4083
 7825TIP3    H147670   0.334   4.241   9.356 -0.3290  0.7393 -1.1205
 7825TIP3    H247671   0.463   4.166   9.330  0.0289  0.4358  1.2314
 7826TIP3   OH247672   4.903   1.341  10.153 -0.0780 -0.2494 -0.7131
 7826TIP3    H147673   4.933   1.348  10.243  1.0320 -1.6351 -0.9362
 7826TIP3    H247674   4.903   1.247  10.135 -2.6708 -0.2165 -1.3919
 7827TIP3   OH247675   6.339   1.546  10.270 -0.2126  0.1267 -0.2334
 7827TIP3    H147676   6.305   1.629  10.302 -0.2055  0.0638 -0.0616
 7827TIP3    H247677   6.343   1.490  10.348  0.3543  0.1608 -0.2347
 7828TIP3   OH247678   4.526   1.451   9.343  0.1326  0.2800  0.6439
 7828TIP3    H147679   4.558   1.493   9.423 -0.0580  1.9964 -0.1478
 7828TIP3    H247680   4.597   1.462   9.279 -0.0239 -0.3953  0.3414
 7829TIP3   OH247681   0.120   4.129   9.689  0.2340 -0.5707  0.1367
 7829TIP3    H147682   0.028   4.148   9.669  0.4104  0.2991  0.1285
 7829TIP3    H247683   0.123   4.034   9.696 -0.1752 -0.8122 -2.2506
 7830TIP3   OH247684   0.107   1.766  11.411 -0.4793  0.3963  0.2393
 7830TIP3    H147685   0.101   1.675  11.440  0.3583 -0.2123 -1.3797
 7830TIP3    H247686   0.042   1.773  11.341 -0.1362  0.8786 -0.0341
 7831TIP3   OH247687   3.919   5.787  10.959  0.4836  0.3467 -0.2478
 7831TIP3    H147688   3.982   5.822  11.023  2.0822  0.0511 -1.5865
 7831TIP3    H247689   3.857   5.737  11.012  1.7781  0.0781  1.0945
 7832TIP3   OH247690   1.271   2.104  11.254 -0.3226  0.4556 -0.9489
 7832TIP3    H147691   1.259   2.191  11.217 -1.8142  0.3806 -0.6847
 7832TIP3    H247692   1.267   2.117  11.349 -0.2832  0.1304 -0.9013
 7833TIP3   OH247693   5.885   3.514  11.799  0.5229  0.1772 -0.2356
 7833TIP3    H147694   5.831   3.463  11.738 -0.3980  0.2040  0.5378
 7833TIP3    H247695   5.948   3.452  11.833 -0.1421 -0.2939  0.1687
 7834TIP3   OH247696   4.922   0.032  10.280 -0.4554  0.1983 -0.8632
 7834TIP3    H147697   4.877   0.113  10.257  0.1665  1.0523  0.8190
 7834TIP3    H247698   4.926   0.032  10.375  1.4666 -0.7580 -0.8947
 7835TIP3   OH247699   5.464   6.615  10.892  0.4882 -0.2781  0.3603
 7835TIP3    H147700   5.492   6.568  10.970  0.9437  0.8753  0.9234
 7835TIP3    H247701   5.481   6.555  10.819  1.6369 -0.7300  0.9850
 7836TIP3   OH247702   5.526   6.286  10.118 -0.3247  0.0069  0.3636
 7836TIP3    H147703   5.484   6.364  10.081  2.6178  2.0652  1.0280
 7836TIP3    H247704   5.529   6.224  10.045 -0.7929  1.3412 -0.8422
 7837TIP3   OH247705   2.794   1.539  11.698  0.7483  0.0984 -0.1448
 7837TIP3    H147706   2.831   1.603  11.637 -1.6300 -0.5763 -2.4783
 7837TIP3    H247707   2.786   1.459  11.647 -0.3518 -0.8300  1.4051
 7838TIP3   OH247708   5.943   2.339   9.856  0.2213 -0.2013  0.2722
 7838TIP3    H147709   5.979   2.310   9.940  1.2121  0.2579  0.0205
 7838TIP3    H247710   6.013   2.391   9.817 -0.6667  0.5773 -0.3200
 7839TIP3   OH247711   4.011   3.613   9.537 -0.1260  0.2574 -0.4678
 7839TIP3    H147712   3.920   3.624   9.510 -0.2230  0.8904  0.0979
 7839TIP3    H247713   4.007   3.582   9.627  0.2179 -0.0713 -0.5624
 7840TIP3   OH247714   3.097   4.082  11.816 -0.1880  0.6119 -0.0128
 7840TIP3    H147715   3.187   4.048  11.817  0.0340  1.2105  0.6922
 7840TIP3    H247716   3.058   4.043  11.737  0.1301 -1.0884  0.6200
 7841TIP3   OH247717   6.238   5.709   9.698 -0.5715  0.0060  0.0233
 7841TIP3    H147718   6.260   5.789   9.651  0.8447  0.5041  1.4436
 7841TIP3    H247719   6.149   5.687   9.669 -1.2376  2.4235  0.0618
 7842TIP3   OH247720   4.839   5.996  10.782 -0.4852 -0.0387 -0.5844
 7842TIP3    H147721   4.783   6.067  10.749 -1.6671 -0.7119 -0.0904
 7842TIP3    H247722   4.910   6.041  10.827 -0.6538  0.8414 -1.1562
 7843TIP3   OH247723   6.293   0.348   9.890  0.0644 -0.2866  0.8397
 7843TIP3    H147724   6.212   0.399   9.888  0.1695 -0.1364  0.0562
 7843TIP3    H247725   6.309   0.331   9.983 -0.5158  0.2412  1.0390
 7844TIP3   OH247726   2.943   2.033  11.077 -0.2360  0.2570 -0.8101
 7844TIP3    H147727   2.924   1.961  11.137 -0.4227  1.4716  0.6497
 7844TIP3    H247728   3.011   1.999  11.019 -0.2508 -1.0479 -0.1032
 7845TIP3   OH247729   4.855   6.419  11.203 -0.0523  0.0178 -0.2199
 7845TIP3    H147730   4.795   6.345  11.208  1.3671 -1.1108  1.4924
 7845TIP3    H247731   4.832   6.474  11.278  0.5101 -0.0049 -0.0269
 7846TIP3   OH247732   3.158   4.219  11.452  0.5295 -0.0362 -0.2935
 7846TIP3    H147733   3.162   4.308  11.417  2.4485 -0.9352 -2.5886
 7846TIP3    H247734   3.226   4.217  11.519  0.4290  0.2507 -0.1817
 7847TIP3   OH247735   2.892   6.153   9.167 -0.3552 -0.1906 -0.5011
 7847TIP3    H147736   2.987   6.147   9.156 -0.3743 -1.3814 -0.2045
 7847TIP3    H247737   2.878   6.142   9.261 -0.8864 -2.2088 -0.7658
 7848TIP3   OH247738   3.457   3.112  11.747  0.1164 -1.3018 -0.0036
 7848TIP3    H147739   3.420   3.196  11.721  2.1551 -1.0146 -2.3659
 7848TIP3    H247740   3.453   3.112  11.843  0.4953  1.7060  0.1086
 7849TIP3   OH247741   1.602   5.671  11.613 -0.1361  0.1603  0.2027
 7849TIP3    H147742   1.566   5.749  11.570 -0.6583 -0.1654  0.0517
 7849TIP3    H247743   1.531   5.638  11.667 -0.7447 -1.6045 -1.5772
 7850TIP3   OH247744   2.477   6.325   9.847  0.0518  0.2102  0.2166
 7850TIP3    H147745   2.570   6.303   9.847  0.1197  0.3878 -1.6673
 7850TIP3    H247746   2.457   6.348   9.757 -2.0844 -0.9064  0.3413
 7851TIP3   OH247747   0.206   0.639  11.716 -0.1801  0.4398  0.1297
 7851TIP3    H147748   0.177   0.584  11.788 -1.4877 -1.0134 -1.4250
 7851TIP3    H247749   0.275   0.694  11.754 -0.7530 -0.3211  2.4238
 7852TIP3   OH247750   0.904   6.687   9.973 -0.1602 -0.5747 -0.3551
 7852TIP3    H147751   0.973   6.719   9.915  0.6153 -2.2717 -0.4437
 7852TIP3    H247752   0.900   6.593   9.955 -2.4765 -0.5497 -0.3115
 7853TIP3   OH247753   2.695   4.867  10.563 -0.2534 -0.4675 -0.3675
 7853TIP3    H147754   2.755   4.939  10.582  2.4675 -2.7985  0.6157
 7853TIP3    H247755   2.632   4.869  10.635 -1.4361  1.9276 -1.3317
 7854TIP3   OH247756   3.397   1.866  11.390  0.5087 -0.1693  0.0103
 7854TIP3    H147757   3.434   1.945  11.352  1.8842 -0.6285  0.3390
 7854TIP3    H247758   3.430   1.864  11.480  0.8640 -1.3192 -0.1210
 7855TIP3   OH247759   6.619   1.485  12.642 -0.3887 -0.1561  0.4110
 7855TIP3    H147760   6.604   1.460  12.733  0.6305 -0.4296  0.5138
 7855TIP3    H247761   6.663   1.410  12.602 -1.1663 -0.1953 -0.4288
 7856TIP3   OH247762   1.197   0.152  11.266 -0.4639  0.3016  0.1425
 7856TIP3    H147763   1.266   0.208  11.301 -0.9177  0.1090  1.3925
 7856TIP3    H247764   1.216   0.146  11.172  0.0431  1.8852  0.1190
 7857TIP3   OH247765   0.262   3.468  11.564 -0.0787 -0.7558 -0.5001
 7857TIP3    H147766   0.187   3.414  11.539  0.7773 -1.5088 -1.5298
 7857TIP3    H247767   0.335   3.406  11.572  0.5422  0.0224  0.0159
 7858TIP3   OH247768   6.642   3.160  12.031  0.6604 -0.2823  0.0940
 7858TIP3    H147769   6.565   3.218  12.028 -0.4780 -1.6869  0.6722
 7858TIP3    H247770   6.665   3.155  12.124  1.6016  0.3004 -0.0999
 7859TIP3   OH247771   0.464   4.981   9.352  0.2786 -0.7482 -0.3270
 7859TIP3    H147772   0.483   5.056   9.409  0.0308 -0.4759 -0.5980
 7859TIP3    H247773   0.433   5.020   9.271 -0.1510 -1.1544 -0.3629
 7860TIP3   OH247774   0.031   3.582  11.146  0.1638 -0.0957  0.0132
 7860TIP3    H147775   0.025   3.558  11.054 -1.8467 -1.7974  0.4959
 7860TIP3    H247776   0.124   3.591  11.163  1.0737 -4.9348 -1.0086
 7861TIP3   OH247777   1.152   3.301  12.481 -0.3284 -0.2248  1.0555
 7861TIP3    H147778   1.086   3.369  12.495 -1.9493 -1.1159 -1.5352
 7861TIP3    H247779   1.218   3.343  12.425 -1.5551 -0.7624 -0.9235
 7862TIP3   OH247780   5.812   5.240  11.948  0.1794  0.1824 -0.1496
 7862TIP3    H147781   5.874   5.313  11.937  1.5626 -0.8537  0.4612
 7862TIP3    H247782   5.773   5.229  11.861  1.3526  0.4496 -0.7399
 7863TIP3   OH247783   3.105   0.923  12.087 -0.3233 -0.0217 -0.1425
 7863TIP3    H147784   3.069   0.911  11.999  1.0806  0.3852 -0.8084
 7863TIP3    H247785   3.105   0.835  12.125 -0.1448 -0.3537 -0.8883
 7864TIP3   OH247786   2.859   4.266  11.721 -0.0734 -0.5077  0.6367
 7864TIP3    H147787   2.856   4.215  11.802 -0.8688 -1.1514  0.2142
 7864TIP3    H247788   2.950   4.295  11.715  0.4565 -2.0173  0.8156
 7865TIP3   OH247789   3.249   5.976  11.596 -0.3919 -0.4269  0.8181
 7865TIP3    H147790   3.170   5.940  11.637 -0.9454 -1.1439 -0.7730
 7865TIP3    H247791   3.242   6.070  11.611 -1.4065 -0.5079  0.9704
 7866TIP3   OH247792   0.733   4.170  10.561  0.5777  0.0560  0.0684
 7866TIP3    H147793   0.720   4.195  10.469  2.9339 -0.9375 -0.5980
 7866TIP3    H247794   0.733   4.253  10.609 -0.0071  0.6389 -0.9109
 7867TIP3   OH247795   3.036   3.925  12.331  0.4520  0.2391 -0.5680
 7867TIP3    H147796   3.080   3.895  12.411 -1.0687 -1.1972 -0.2188
 7867TIP3    H247797   3.059   4.018  12.325  1.3807  0.1516  1.0037
 7868TIP3   OH247798   1.145   2.280  11.720  0.7822  0.1112  0.3937
 7868TIP3    H147799   1.167   2.359  11.671 -0.0680 -2.0429 -3.9358
 7868TIP3    H247800   1.050   2.286  11.734  0.5140 -0.5136 -0.9378
 7869TIP3   OH247801   3.508   4.883  11.472 -0.4145  0.0333  1.0141
 7869TIP3    H147802   3.581   4.880  11.534 -1.8211 -0.3128  2.7500
 7869TIP3    H247803   3.440   4.829  11.513 -0.9828 -1.2734 -1.4710
 7870TIP3   OH247804   5.929   6.626  12.870  0.1053  0.1157  0.3082
 7870TIP3    H147805   5.943   6.565  12.797  0.3992  0.5007  0.0354
 7870TIP3    H247806   5.993   6.599  12.936  0.5256  0.3804  0.0189
 7871TIP3   OH247807   2.496   5.121  10.664 -0.0600 -0.1945 -0.5464
 7871TIP3    H147808   2.485   5.032  10.629 -0.5391 -1.0997  1.7381
 7871TIP3    H247809   2.590   5.137  10.661 -0.1016 -0.1108 -2.4424
 7872TIP3   OH247810   6.006   5.433  10.683 -0.0997 -0.1995 -0.5557
 7872TIP3    H147811   6.000   5.468  10.772  0.2053 -0.1811 -0.5385
 7872TIP3    H247812   5.983   5.506  10.626  0.1302 -0.0887 -0.5060
 7873TIP3   OH247813   1.384   0.302  10.434 -0.2209  0.0319 -0.0963
 7873TIP3    H147814   1.458   0.339  10.482 -0.8713  1.0429  0.1594
 7873TIP3    H247815   1.361   0.369  10.370  0.2089 -1.0328 -1.3963
 7874TIP3   OH247816   5.100   0.832  11.914  0.2421  0.6114  0.1288
 7874TIP3    H147817   5.058   0.754  11.877  2.5266 -0.1266 -1.1320
 7874TIP3    H247818   5.087   0.900  11.847 -3.2129  1.9505  1.9431
 7875TIP3   OH247819   2.038   1.083  10.409  0.7244 -0.0957 -0.6665
 7875TIP3    H147820   2.036   1.144  10.335  1.5868  1.4838  0.5423
 7875TIP3    H247821   1.965   1.110  10.465 -1.3324 -2.6694 -1.8818
 7876TIP3   OH247822   0.331   2.464  11.767  0.4936  0.7699 -0.2414
 7876TIP3    H147823   0.373   2.446  11.851  1.5490  2.7324 -0.3050
 7876TIP3    H247824   0.245   2.498  11.790  0.2781  0.0963 -0.0154
 7877TIP3   OH247825   2.491   5.990  11.071 -0.5468  0.4136 -0.5417
 7877TIP3    H147826   2.517   5.898  11.076 -0.4618  0.5094  2.6851
 7877TIP3    H247827   2.395   5.988  11.070 -0.5585  0.3096 -2.2331
 7878TIP3   OH247828   5.457   5.242  11.949 -0.2564 -0.2612 -0.8562
 7878TIP3    H147829   5.471   5.286  12.033  0.7163 -0.6633 -0.7968
 7878TIP3    H247830   5.385   5.181  11.965 -1.2442  0.8881 -0.7873
 7879TIP3   OH247831   6.332   1.881   9.320  0.4844  0.4407  0.5499
 7879TIP3    H147832   6.403   1.874   9.257 -0.1874  0.1459 -0.1908
 7879TIP3    H247833   6.294   1.968   9.304  0.8392  0.7043  1.1206
 7880TIP3   OH247834   5.526   3.635  11.574 -0.1757 -0.7486 -0.5246
 7880TIP3    H147835   5.489   3.588  11.500 -0.9895 -0.3164 -0.4061
 7880TIP3    H247836   5.610   3.592  11.591  0.1039 -0.7469 -1.7936
 7881TIP3   OH247837   3.110   2.437   9.513 -0.5503  0.6618  0.0898
 7881TIP3    H147838   3.101   2.446   9.418  1.0921 -1.3429 -0.3070
 7881TIP3    H247839   3.183   2.495   9.535 -0.1945  0.2636 -0.0429
 7882TIP3   OH247840   4.070   4.820  10.000 -0.4645 -0.2842  0.1916
 7882TIP3    H147841   3.990   4.859  10.035 -0.9511 -2.2950  1.4477
 7882TIP3    H247842   4.097   4.880   9.930 -2.6981  0.7779  0.1684
 7883TIP3   OH247843   5.498   4.118  10.097 -0.2278  0.0303  0.3128
 7883TIP3    H147844   5.528   4.108  10.007  0.7340 -0.1231  0.6424
 7883TIP3    H247845   5.443   4.196  10.095 -0.4086 -0.1051 -0.4471
 7884TIP3   OH247846   5.035   1.733  10.326  0.3222  0.3870 -0.0563
 7884TIP3    H147847   5.110   1.683  10.292  1.2910  0.4077  1.9504
 7884TIP3    H247848   4.984   1.753  10.248  3.4285  2.1614 -1.8405
 7885TIP3   OH247849   0.283   6.521  11.593  0.0281  0.4207  0.1899
 7885TIP3    H147850   0.345   6.473  11.538 -2.3524 -1.6242 -0.8981
 7885TIP3    H247851   0.223   6.455  11.626 -0.6957  2.0990  2.4715
 7886TIP3   OH247852   0.113   2.704   9.331 -0.5558  0.1139 -0.3088
 7886TIP3    H147853   0.200   2.678   9.303  0.4091  1.7654  0.9947
 7886TIP3    H247854   0.105   2.795   9.304 -2.3009 -0.2878 -1.2928
 7887TIP3   OH247855   6.709   5.866  11.091  0.2515 -0.0244 -0.1499
 7887TIP3    H147856   6.748   5.853  11.177 -0.5956  1.2755  0.4631
 7887TIP3    H247857   6.706   5.779  11.052  0.5111 -0.6581  1.2042
 7888TIP3   OH247858   6.072   5.196  11.803  0.1504  0.1070  0.1168
 7888TIP3    H147859   6.075   5.109  11.764 -0.0145  0.3263 -0.3845
 7888TIP3    H247860   5.978   5.213  11.816  0.1819 -1.4378  3.9367
 7889TIP3   OH247861   0.458   4.219  10.188  0.2420  0.1110  0.1272
 7889TIP3    H147862   0.409   4.272  10.252  0.7102  0.8844 -0.1385
 7889TIP3    H247863   0.548   4.219  10.221  0.4448  0.3472 -0.4222
 7890TIP3   OH247864   0.618   1.261  10.470 -0.1568 -0.3735  0.6201
 7890TIP3    H147865   0.538   1.310  10.450 -2.1794 -3.6418 -0.0217
 7890TIP3    H247866   0.686   1.304  10.419 -2.1214  0.7519 -1.2052
 7891TIP3   OH247867   0.788   0.832  10.980 -0.3566  0.1318 -0.0538
 7891TIP3    H147868   0.710   0.883  10.957 -0.5564  0.3508  1.0789
 7891TIP3    H247869   0.763   0.781  11.056  0.5720  0.1121  0.2576
 7892TIP3   OH247870   5.862   3.264  10.325 -0.0508 -0.1998 -0.3091
 7892TIP3    H147871   5.786   3.281  10.382 -1.0222 -1.0801 -1.3131
 7892TIP3    H247872   5.888   3.175  10.347 -2.2517 -1.7074 -3.1698
 7893TIP3   OH247873   3.268   5.420   9.629  0.0486  0.0286 -1.0319
 7893TIP3    H147874   3.262   5.459   9.716 -2.0548  1.6252 -1.7979
 7893TIP3    H247875   3.362   5.403   9.616  0.4925  0.5241  1.1756
 7894TIP3   OH247876   0.142   1.760  11.833  0.2264  0.5660  0.3741
 7894TIP3    H147877   0.094   1.843  11.830  2.3695  1.8330 -1.0973
 7894TIP3    H247878   0.211   1.774  11.897  2.8212  1.3227 -2.3628
 7895TIP3   OH247879   4.663   0.374  11.012 -0.2599 -0.4543  0.2961
 7895TIP3    H147880   4.740   0.371  11.068 -0.5981 -0.6270  0.7493
 7895TIP3    H247881   4.688   0.434  10.941  0.2141 -0.3457  0.5504
 7896TIP3   OH247882   5.482   6.262  10.509  0.9168 -0.2488 -0.0057
 7896TIP3    H147883   5.461   6.293  10.597 -0.5960 -0.2598 -0.3309
 7896TIP3    H247884   5.561   6.210  10.519  0.3633 -0.8386  1.4656
 7897TIP3   OH247885   5.342   3.663  11.946  0.4739  0.5815 -0.1751
 7897TIP3    H147886   5.356   3.604  11.871  0.8294  0.6987 -0.2011
 7897TIP3    H247887   5.427   3.666  11.990  0.4611  1.0782 -0.1769
 7898TIP3   OH247888   5.832   3.352  10.704 -0.5749 -0.3795  0.3860
 7898TIP3    H147889   5.918   3.316  10.731 -0.4818 -1.5783 -1.3602
 7898TIP3    H247890   5.776   3.338  10.781  0.1192 -2.0786  0.6395
 7899TIP3   OH247891   5.262   2.744   9.734 -0.0138  0.2720 -0.5563
 7899TIP3    H147892   5.196   2.812   9.750 -0.4660 -0.5221  1.1014
 7899TIP3    H247893   5.218   2.679   9.681 -0.1332  0.4099 -0.6259
 7900TIP3   OH247894   1.765   1.054  10.065 -0.6620 -0.1019 -0.3929
 7900TIP3    H147895   1.842   1.065  10.010 -0.5256 -1.6096 -0.5374
 7900TIP3    H247896   1.727   1.142  10.071 -0.1942  0.2605 -2.1596
 7901TIP3   OH247897   0.325   3.457  11.894 -0.6177  0.1709  0.0769
 7901TIP3    H147898   0.348   3.376  11.940 -1.5181 -0.5845 -0.7724
 7901TIP3    H247899   0.238   3.441  11.858 -0.4301  1.1887 -0.8860
 7902TIP3   OH247900   6.311   2.296  12.109 -0.0119 -0.0343  0.3471
 7902TIP3    H147901   6.360   2.359  12.162  1.5691  0.1924 -1.2466
 7902TIP3    H247902   6.273   2.236  12.172  0.7935  0.8876  1.7819
 7903TIP3   OH247903   4.362   2.758  10.657 -0.5783 -0.4220  0.2724
 7903TIP3    H147904   4.440   2.795  10.700  0.3976  0.1702 -1.8953
 7903TIP3    H247905   4.375   2.663  10.663  1.3110 -0.3634 -1.6234
 7904TIP3   OH247906   3.617   3.809  10.621  0.3571  0.0897 -0.3238
 7904TIP3    H147907   3.661   3.825  10.537  0.2008  1.4237 -0.1626
 7904TIP3    H247908   3.524   3.809  10.600  0.3544 -1.0152 -0.3735
 7905TIP3   OH247909   3.618   0.527  12.416  0.3846 -0.0653 -0.6779
 7905TIP3    H147910   3.601   0.553  12.326  1.0757  1.3375 -0.4239
 7905TIP3    H247911   3.713   0.529  12.424  0.3032  0.4707  0.2614
 7906TIP3   OH247912   3.786   5.417   9.668  0.6703  0.5134 -0.5239
 7906TIP3    H147913   3.868   5.465   9.658  0.7074  0.4329 -0.6093
 7906TIP3    H247914   3.782   5.396   9.761  0.4782  0.9934 -0.4205
 7907TIP3   OH247915   2.723   2.319  19.699  0.3480  0.0277  0.6045
 7907TIP3    H147916   2.736   2.320  19.604 -0.5105  0.3721  0.4777
 7907TIP3    H247917   2.792   2.376  19.733  0.4168  0.2230  0.1483
 7908TIP3   OH247918   3.086   0.241   9.695 -0.0504  0.7191 -0.1189
 7908TIP3    H147919   3.030   0.318   9.688  0.8986  1.5425  0.9251
 7908TIP3    H247920   3.049   0.192   9.769  0.9913  1.6490  1.0702
 7909TIP3   OH247921   1.620   1.820  10.829 -0.2880  0.3003  0.2113
 7909TIP3    H147922   1.570   1.764  10.770  1.3354  0.8173 -1.7587
 7909TIP3    H247923   1.678   1.761  10.876 -0.9189 -0.0043  0.6229
 7910TIP3   OH247924   4.907   3.833  10.465  0.2454  0.4699 -0.3843
 7910TIP3    H147925   4.979   3.867  10.518  0.0973 -0.5394  0.5017
 7910TIP3    H247926   4.906   3.889  10.387  0.3883  2.0698  0.7233
 7911TIP3   OH247927   1.153   1.569  11.041 -0.3531 -0.0606  0.3947
 7911TIP3    H147928   1.245   1.571  11.069 -0.5612 -0.5306  1.1524
 7911TIP3    H247929   1.145   1.640  10.978  0.3387  0.5200  0.9441
 7912TIP3   OH247930   3.863   4.707   9.402 -0.0425  0.0674  0.2796
 7912TIP3    H147931   3.879   4.636   9.464 -0.4848  0.7376  1.1857
 7912TIP3    H247932   3.933   4.699   9.337  0.6143 -0.4576  1.0437
 7913TIP3   OH247933   3.350   4.507  10.011 -0.4527 -0.1624  0.5289
 7913TIP3    H147934   3.429   4.466  10.049  1.7051  1.7992 -1.5182
 7913TIP3    H247935   3.352   4.596  10.045 -1.6216  0.0278  0.1233
 7914TIP3   OH247936   5.918   2.841  10.235  0.1288  0.4963 -0.4002
 7914TIP3    H147937   5.850   2.850  10.302 -0.3684  0.7157 -0.9207
 7914TIP3    H247938   5.884   2.891  10.160 -0.4183 -1.5620 -1.6186
 7915TIP3   OH247939   4.661   3.016   9.575  0.4188  0.0206 -0.2963
 7915TIP3    H147940   4.584   3.057   9.615  0.7785  0.0119  0.4220
 7915TIP3    H247941   4.652   3.035   9.482 -0.0112  0.7533 -0.1183
 7916TIP3   OH247942   5.072   3.241  11.156 -0.9627  0.3719 -0.3895
 7916TIP3    H147943   4.980   3.267  11.158 -1.2868 -0.7451  0.0584
 7916TIP3    H247944   5.113   3.291  11.226 -2.2156 -2.4488  2.6058
 7917TIP3   OH247945   3.152   1.323  10.054  0.5359 -0.2448 -0.1813
 7917TIP3    H147946   3.215   1.251  10.050  0.6755 -0.2399  1.1715
 7917TIP3    H247947   3.192   1.387  10.113 -1.1215 -0.7047  1.5674
 7918TIP3   OH247948   5.493   2.144  11.321  0.3655 -0.2971 -0.5049
 7918TIP3    H147949   5.567   2.203  11.329  0.0843  0.0634 -0.5334
 7918TIP3    H247950   5.522   2.063  11.363 -0.1084  0.6407  1.7471
 7919TIP3   OH247951   4.816   5.961  12.445  0.0168  0.0191  0.1184
 7919TIP3    H147952   4.891   5.974  12.502 -0.0825  0.0370  0.2453
 7919TIP3    H247953   4.802   5.866  12.445  0.4487 -0.0500 -0.4327
 7920TIP3   OH247954   1.214   0.214   9.656  0.0817  0.3924  0.3214
 7920TIP3    H147955   1.266   0.276   9.707  0.1111  1.1098 -0.5600
 7920TIP3    H247956   1.278   0.169   9.601 -0.1293  0.7562 -0.2315
 7921TIP3   OH247957   2.152   5.906  10.044  0.3289 -0.0854 -0.1152
 7921TIP3    H147958   2.181   5.900  10.135  0.6862  0.6050 -0.1817
 7921TIP3    H247959   2.202   5.979  10.007  0.6127 -0.7146 -1.0249
 7922TIP3   OH247960   4.895   5.474   9.532  0.4493  0.3327 -0.2925
 7922TIP3    H147961   4.931   5.546   9.585 -0.3094 -0.7962  1.8726
 7922TIP3    H247962   4.801   5.480   9.544  0.1480  0.6004 -2.3757
 7923TIP3   OH247963   2.980   1.089   9.733 -0.2673  0.3311  0.2450
 7923TIP3    H147964   2.900   1.047   9.765 -0.4824  0.3708 -0.2319
 7923TIP3    H247965   2.955   1.179   9.715 -0.3082  0.1532 -0.6201
 7924TIP3   OH247966   6.274   2.943  10.915 -0.1841  0.3342  0.1421
 7924TIP3    H147967   6.241   2.931  10.826 -0.0569  1.0309 -0.0076
 7924TIP3    H247968   6.234   2.872  10.965 -1.3907  0.7757 -0.1623
 7925TIP3   OH247969   3.764   4.865  11.003  0.7222  0.1660 -0.1617
 7925TIP3    H147970   3.752   4.930  11.072  3.3444 -1.6074  2.1985
 7925TIP3    H247971   3.753   4.914  10.921  1.9564  3.4353  1.4592
 7926TIP3   OH247972   6.308   5.468   9.137  0.3376 -0.2231  0.4218
 7926TIP3    H147973   6.364   5.412   9.190  2.0006  1.1302  0.1713
 7926TIP3    H247974   6.329   5.444   9.047  2.6117  2.0799  0.2226
 7927TIP3   OH247975   0.786   4.435  10.145 -0.0045 -0.7861  0.0830
 7927TIP3    H147976   0.707   4.486  10.126  0.6225 -0.2429 -1.1952
 7927TIP3    H247977   0.857   4.500  10.146  0.6729 -1.4920 -0.5757
 7928TIP3   OH247978   0.088   6.206  10.495 -0.6095  0.3846 -0.1585
 7928TIP3    H147979   0.046   6.217  10.410 -0.3100  0.0444 -0.3518
 7928TIP3    H247980   0.147   6.132  10.484 -1.4217 -0.4167  0.6734
 7929TIP3   OH247981   0.938   1.363  10.057 -0.2789  0.4846 -0.4699
 7929TIP3    H147982   0.923   1.387  10.149  3.6410  1.8253  0.0046
 7929TIP3    H247983   0.878   1.420  10.008 -0.5926  1.6526  1.1845
 7930TIP3   OH247984   0.074   3.677  11.615 -0.0227 -0.0398 -0.6919
 7930TIP3    H147985   0.054   3.708  11.526 -0.0026 -3.0615 -1.8986
 7930TIP3    H247986   0.156   3.630  11.606  0.7906  0.8890  1.3268
 7931TIP3   OH247987   1.934   5.399   9.761 -0.2115  0.3178  0.0653
 7931TIP3    H147988   1.986   5.325   9.792 -0.5238 -1.0755 -2.4503
 7931TIP3    H247989   1.997   5.456   9.717 -0.5303 -0.8661 -2.0864
 7932TIP3   OH247990   0.615   3.401  11.433  0.3945  0.7943  0.2094
 7932TIP3    H147991   0.675   3.473  11.414 -0.5163  1.6247  0.3729
 7932TIP3    H247992   0.610   3.399  11.529  1.7794 -0.6687  0.2889
 7933TIP3   OH247993   2.673   4.950  13.272  0.1936 -1.0458 -0.1443
 7933TIP3    H147994   2.685   5.018  13.338  1.3409 -1.0380 -0.3378
 7933TIP3    H247995   2.610   4.890  13.310 -1.1991  0.3449 -0.1569
 7934TIP3   OH247996   6.326   1.606  11.048  0.0337  0.1317 -0.1404
 7934TIP3    H147997   6.351   1.698  11.047  0.8273 -0.0730 -0.0558
 7934TIP3    H247998   6.408   1.559  11.035 -0.1659 -0.6084  1.1041
 7935TIP3   OH247999   5.545   6.485  11.547 -0.0440  0.0031  0.0209
 7935TIP3    H148000   5.557   6.392  11.529 -0.6675  0.0783 -0.8893
 7935TIP3    H248001   5.631   6.524  11.529  0.2169 -0.3856  0.3946
 7936TIP3   OH248002   4.526   4.938  11.303  0.5863  0.5206  0.3762
 7936TIP3    H148003   4.558   4.912  11.389  1.2942  2.6394  0.8264
 7936TIP3    H248004   4.435   4.907  11.300  0.9394 -0.6768  1.3546
 7937TIP3   OH248005   2.033   4.960  10.003  0.4175 -0.0534  0.6894
 7937TIP3    H148006   1.943   4.994  10.003  1.0207  1.7078 -0.1390
 7937TIP3    H248007   2.025   4.872   9.966 -0.8521  0.4571 -0.3508
 7938TIP3   OH248008   4.544   4.461   9.595 -0.2159 -0.1376  0.3498
 7938TIP3    H148009   4.497   4.404   9.534 -1.5648  0.2719  0.9740
 7938TIP3    H248010   4.616   4.407   9.628 -1.6248 -1.5984  1.1431
 7939TIP3   OH248011   5.731   3.821  11.408 -0.1188  0.8964  0.4010
 7939TIP3    H148012   5.701   3.735  11.376  1.6662  0.0803  0.8120
 7939TIP3    H248013   5.797   3.800  11.474  1.8700  2.5650 -0.9453
 7940TIP3   OH248014   0.078   6.514  11.371  0.0014 -0.3376 -0.4748
 7940TIP3    H148015   0.086   6.426  11.408 -0.4409  0.3317  1.3282
 7940TIP3    H248016   0.080   6.572  11.447 -0.8350  1.1425 -1.5338
 7941TIP3   OH248017   0.128   3.835  10.856  0.5044  0.0119 -0.0543
 7941TIP3    H148018   0.206   3.797  10.813  0.6223 -0.3493  0.4721
 7941TIP3    H248019   0.072   3.760  10.874  0.1205  0.2498 -0.2355
 7942TIP3   OH248020   5.264   4.969  11.264  0.4637 -0.4675 -0.0622
 7942TIP3    H148021   5.328   5.040  11.261 -1.2890  1.3267  1.4407
 7942TIP3    H248022   5.240   4.963  11.356 -0.8337 -1.7130 -0.4446
 7943TIP3   OH248023   3.818   3.018  10.920  0.0990 -0.0122  0.4313
 7943TIP3    H148024   3.904   3.060  10.915  1.0333 -1.7865  0.6474
 7943TIP3    H248025   3.786   3.039  11.008  0.8713 -0.3601  0.7987
 7944TIP3   OH248026   3.565   5.686   9.610 -0.0993 -0.3581  0.1653
 7944TIP3    H148027   3.594   5.638   9.688  0.5802 -1.0811 -0.5050
 7944TIP3    H248028   3.510   5.623   9.563 -0.0666 -0.1153 -0.1991
 7945TIP3   OH248029   4.531   3.573   9.613  0.4453 -0.4399 -0.2323
 7945TIP3    H148030   4.484   3.655   9.603 -0.7966 -0.6729  2.5552
 7945TIP3    H248031   4.467   3.506   9.588 -0.0449 -0.6637  1.4788
 7946TIP3   OH248032   0.902   1.717  12.098 -0.3551  0.3304 -0.1414
 7946TIP3    H148033   0.811   1.697  12.121 -0.0810 -0.2961  0.4340
 7946TIP3    H248034   0.923   1.795  12.149 -0.5662  0.4715 -0.2681
 7947TIP3   OH248035   3.326   2.965   9.315 -0.4936 -0.0274 -0.1523
 7947TIP3    H148036   3.409   2.947   9.270 -0.9636  0.7581 -1.3849
 7947TIP3    H248037   3.310   2.887   9.369  0.6957 -0.4805 -0.4302
 7948TIP3   OH248038   4.850   1.056  12.719 -0.2595 -0.7626 -0.0177
 7948TIP3    H148039   4.791   1.123  12.753  0.0016 -1.0930  1.1166
 7948TIP3    H248040   4.792   0.985  12.692 -0.4042 -0.9985  0.8925
 7949TIP3   OH248041   1.203   0.708  12.240  0.1115  0.0605 -0.6013
 7949TIP3    H148042   1.204   0.769  12.314  2.1507  0.0538 -0.5670
 7949TIP3    H248043   1.224   0.623  12.279  0.2407 -0.1191 -1.0620
 7950TIP3   OH248044   2.408   6.038  10.526  0.3392 -0.1012  0.4085
 7950TIP3    H148045   2.386   5.956  10.571  2.3802  0.8613  3.5148
 7950TIP3    H248046   2.451   6.091  10.593 -0.4152  3.3685 -1.6112
 7951TIP3   OH248047   5.387   2.707  11.665 -0.6077  0.2786  0.7872
 7951TIP3    H148048   5.357   2.743  11.749 -0.4966 -1.1623  1.4826
 7951TIP3    H248049   5.344   2.622  11.659  0.2873 -0.1310 -0.0665
 7952TIP3   OH248050   4.806   0.733   9.202 -0.0147  0.1725 -0.6315
 7952TIP3    H148051   4.760   0.675   9.262  0.8265 -0.3272 -0.4454
 7952TIP3    H248052   4.898   0.728   9.230  0.1009  1.4436 -0.7369
 7953TIP3   OH248053   4.748   6.667  11.966 -0.2120  0.1945 -0.8063
 7953TIP3    H148054   4.710   6.729  12.028  3.7575  0.4007  1.7805
 7953TIP3    H248055   4.767   6.720  11.889 -0.5733  1.1886 -0.2345
 7954TIP3   OH248056   3.353   0.460   9.328 -0.1581 -0.8231  0.5456
 7954TIP3    H148057   3.344   0.404   9.405 -1.5624  0.0542  1.0659
 7954TIP3    H248058   3.441   0.497   9.335 -0.7062  0.2768  2.4945
 7955TIP3   OH248059   1.584   4.651   9.848  0.4072 -0.2222  0.2508
 7955TIP3    H148060   1.607   4.736   9.810 -0.0633 -0.1287  0.1646
 7955TIP3    H248061   1.493   4.637   9.821  1.2571 -1.9874 -1.9711
 7956TIP3   OH248062   3.333   1.071  12.156  0.4412  0.4662 -0.1705
 7956TIP3    H148063   3.384   0.996  12.126 -1.6355 -1.0819  0.0046
 7956TIP3    H248064   3.243   1.040  12.158 -0.1600  2.0159  2.8911
 7957TIP3   OH248065   3.274   1.503  11.056  0.4386 -0.7052 -0.0641
 7957TIP3    H148066   3.349   1.443  11.064  0.8705 -0.2885 -0.9473
 7957TIP3    H248067   3.310   1.582  11.017  0.1986  0.7796  2.5024
 7958TIP3   OH248068   5.593   2.567   9.245 -0.3210 -0.1967  0.6806
 7958TIP3    H148069   5.632   2.654   9.243  0.5382 -0.5806 -0.0226
 7958TIP3    H248070   5.510   2.576   9.198 -0.4253  0.3275  0.9623
 7959TIP3   OH248071   5.060   5.112  10.451 -0.3795  0.0485 -0.2937
 7959TIP3    H148072   5.080   5.044  10.516 -1.3972  0.1458  0.1410
 7959TIP3    H248073   5.135   5.172  10.457 -0.3374 -0.0686  0.6381
 7960TIP3   OH248074   2.101   2.058  10.858  0.5602 -0.3266  0.0625
 7960TIP3    H148075   2.032   1.991  10.863  0.6758 -0.4695 -0.2173
 7960TIP3    H248076   2.139   2.059  10.946 -2.1181  2.2734  1.3627
 7961TIP3   OH248077   4.692   2.824  10.038 -0.5663  0.4510  0.6561
 7961TIP3    H148078   4.608   2.780  10.024 -1.6975  2.5900  0.3816
 7961TIP3    H248079   4.757   2.755  10.023 -2.2411 -1.4418  1.5640
 7962TIP3   OH248080   2.248   0.753  11.546 -0.2158  0.0853 -0.5158
 7962TIP3    H148081   2.264   0.659  11.545  0.4238  0.1729  0.2983
 7962TIP3    H248082   2.153   0.761  11.538 -0.2733 -0.6261 -0.6197
 7963TIP3   OH248083   2.908   3.580   9.854 -0.3824  0.1121 -0.0066
 7963TIP3    H148084   2.868   3.549   9.772  0.1190  0.2436 -0.3079
 7963TIP3    H248085   2.842   3.637   9.893 -0.5060  0.3081 -0.4879
 7964TIP3   OH248086   0.000   5.811  12.721  0.3726 -0.1826 -0.4797
 7964TIP3    H148087  -0.052   5.884  12.755  1.9351  0.6669  0.2124
 7964TIP3    H248088   0.066   5.795  12.789  1.0723 -1.1528 -1.3479
 7965TIP3   OH248089   3.733   2.603  10.861  0.1598  0.2471 -0.3483
 7965TIP3    H148090   3.708   2.625  10.951 -0.6615  1.4193 -0.8362
 7965TIP3    H248091   3.770   2.515  10.868 -1.0003 -0.1890  0.9595
 7966TIP3   OH248092   3.438   0.036  10.125 -0.1345 -0.3129  0.2896
 7966TIP3    H148093   3.444   0.060  10.218 -0.3311 -0.3460  0.3129
 7966TIP3    H248094   3.409  -0.055  10.127  0.6744 -0.5808  0.2036
 7967TIP3   OH248095   6.192   1.948  12.259 -0.0691  0.3772  0.6420
 7967TIP3    H148096   6.130   2.003  12.211  1.5000  2.0681  0.4024
 7967TIP3    H248097   6.227   1.888  12.194  0.5658  1.3047  0.1067
 7968TIP3   OH248098   3.751   2.146   9.286 -0.4552 -0.1023  0.0418
 7968TIP3    H148099   3.667   2.099   9.291 -0.9271  0.7974  0.8167
 7968TIP3    H248100   3.738   2.212   9.218 -0.6406  0.5310  0.6797
 7969TIP3   OH248101   6.313   3.846  11.849 -0.0587  0.3353 -0.5933
 7969TIP3    H148102   6.265   3.819  11.928  0.6834  1.5544  0.3060
 7969TIP3    H248103   6.372   3.773  11.831 -1.2248 -0.5730 -0.8861
 7970TIP3   OH248104   5.029   0.622   9.768 -0.3521 -0.0698 -0.4707
 7970TIP3    H148105   5.074   0.700   9.733 -0.7159 -0.5658 -2.1244
 7970TIP3    H248106   5.100   0.563   9.793 -0.0697  0.2220 -0.5746
 7971TIP3   OH248107   6.045   2.731  11.407 -0.0803  0.0302 -0.2495
 7971TIP3    H148108   5.973   2.690  11.359 -0.9459  2.0674 -0.7966
 7971TIP3    H248109   6.113   2.663  11.411 -1.1334 -1.1863 -1.7402
 7972TIP3   OH248110   0.193   2.511  11.008  0.0826  0.0648 -0.4278
 7972TIP3    H148111   0.263   2.452  10.981  0.3982  0.4504 -0.4665
 7972TIP3    H248112   0.132   2.456  11.057 -0.4439 -0.6425 -1.8030
 7973TIP3   OH248113   6.098   4.868  10.463 -0.0422 -0.6961 -0.4313
 7973TIP3    H148114   6.148   4.944  10.492  1.0657 -1.4588 -0.2573
 7973TIP3    H248115   6.164   4.798  10.456 -1.0323 -1.6305 -0.5775
 7974TIP3   OH248116   1.831   5.526  12.637  0.6926  0.3886  0.3679
 7974TIP3    H148117   1.808   5.461  12.703  0.1224 -1.6528 -1.7059
 7974TIP3    H248118   1.909   5.490  12.594  0.2696  0.9661 -0.9321
 7975TIP3   OH248119   2.265   2.189  10.023  0.7319  0.4136 -0.3449
 7975TIP3    H148120   2.283   2.264   9.967 -0.3457  0.2994 -0.8686
 7975TIP3    H248121   2.171   2.174  10.014  0.4075  0.7277  1.9251
 7976TIP3   OH248122   4.991   0.759  11.175  0.1530 -0.0447 -0.2466
 7976TIP3    H148123   4.994   0.823  11.104  0.0029 -0.0841 -0.2887
 7976TIP3    H248124   5.002   0.675  11.131  2.3147  0.0630 -0.0012
 7977TIP3   OH248125   3.369   4.940  12.354  0.5450  0.0578 -0.4435
 7977TIP3    H148126   3.398   4.982  12.435 -0.1185  1.6209 -0.9906
 7977TIP3    H248127   3.276   4.961  12.347  0.6720  0.2579 -1.8024
 7978TIP3   OH248128   6.508   1.904  12.813  0.1402  0.2481 -0.0453
 7978TIP3    H148129   6.516   1.838  12.882  0.4487  0.1015 -0.2181
 7978TIP3    H248130   6.451   1.863  12.747  1.7895 -0.6061 -1.0189
 7979TIP3   OH248131   3.643   2.483  10.525  0.1037 -0.0459  0.4615
 7979TIP3    H148132   3.655   2.388  10.516  0.3280  0.1107 -1.2229
 7979TIP3    H248133   3.701   2.508  10.596  0.6506 -1.0614  0.3922
 7980TIP3   OH248134   3.550   3.457  10.402 -0.6277 -0.4881  0.2791
 7980TIP3    H148135   3.541   3.363  10.388 -1.0324 -0.3802 -0.2241
 7980TIP3    H248136   3.465   3.493  10.375 -0.4364  0.0328  0.3629
 7981TIP3   OH248137   2.715   5.450  10.546  0.2831  0.1950 -0.3700
 7981TIP3    H148138   2.757   5.481  10.627  0.7125  0.9257 -0.8626
 7981TIP3    H248139   2.717   5.355  10.554  1.2099  0.2295  0.0448
 7982TIP3   OH248140   1.093   5.656  10.873  0.4683 -0.5360 -0.0006
 7982TIP3    H148141   1.089   5.567  10.839  0.6451  0.0395 -1.6030
 7982TIP3    H248142   1.180   5.664  10.911  0.4561 -1.0330  0.1345
 7983TIP3   OH248143   5.985   5.256  11.144 -0.1155 -0.1870 -0.3670
 7983TIP3    H148144   5.894   5.282  11.158 -0.0316 -0.5635  1.0705
 7983TIP3    H248145   5.984   5.207  11.062 -1.3450 -0.8149  0.0069
 7984TIP3   OH248146   2.126   1.110   9.961  0.2277  0.2426 -0.0767
 7984TIP3    H148147   2.116   1.141  10.051  0.7162 -0.2884  0.1684
 7984TIP3    H248148   2.146   1.188   9.910  1.3449  0.3516  0.5058
 7985TIP3   OH248149   0.774   6.402  12.814 -0.5372  0.3801 -0.1335
 7985TIP3    H148150   0.755   6.446  12.732  0.8724 -2.7273 -2.3125
 7985TIP3    H248151   0.821   6.322  12.789  2.2241  0.4353  3.8444
 7986TIP3   OH248152   0.175   1.256   9.876  0.6305 -0.3686  0.0779
 7986TIP3    H148153   0.162   1.167   9.842  1.7363 -1.8496  3.0993
 7986TIP3    H248154   0.091   1.277   9.918  0.8858 -0.7446  0.8046
 7987TIP3   OH248155   2.831   2.755  12.499  0.4014  0.0215 -0.0949
 7987TIP3    H148156   2.806   2.714  12.582 -0.2089  1.2098  0.3268
 7987TIP3    H248157   2.924   2.775  12.509  0.2162  0.6075  0.5015
 7988TIP3   OH248158   5.250   3.851  11.376 -0.4089  0.4380 -0.6084
 7988TIP3    H148159   5.200   3.777  11.410  0.6407 -0.4909 -1.0240
 7988TIP3    H248160   5.251   3.915  11.447  0.0327 -0.6288  0.3692
 7989TIP3   OH248161   3.919   2.595  11.196  0.4504  0.2866  1.1715
 7989TIP3    H148162   3.899   2.683  11.164  1.6050  0.0752 -0.1805
 7989TIP3    H248163   3.948   2.546  11.119  1.1156 -0.8964  2.1284
 7990TIP3   OH248164   0.965   5.650  10.159 -0.0861  0.0705 -0.1418
 7990TIP3    H148165   1.043   5.654  10.215  0.3029 -1.4937 -0.5243
 7990TIP3    H248166   0.951   5.557  10.144 -1.0781  0.3979 -1.4308
 7991TIP3   OH248167   3.223   3.342  11.487  0.3595 -0.5420  0.5046
 7991TIP3    H148168   3.275   3.285  11.430  2.9309  1.0644  1.0438
 7991TIP3    H248169   3.239   3.309  11.575  2.5461  1.2725  0.9166
 7992TIP3   OH248170   6.179   3.642  12.329 -0.5524 -0.0815 -0.3404
 7992TIP3    H148171   6.268   3.608  12.323 -0.4541  0.2058 -0.5119
 7992TIP3    H248172   6.164   3.656  12.422 -0.5591 -0.4953 -0.2756
 7993TIP3   OH248173   4.783   5.191  12.177 -0.0803 -0.1576 -0.8840
 7993TIP3    H148174   4.809   5.100  12.162 -0.6094 -0.1878 -1.6973
 7993TIP3    H248175   4.860   5.231  12.219  0.2052 -0.9378 -0.6379
 7994TIP3   OH248176   0.076   5.162   9.179  0.3820  0.1477  0.1097
 7994TIP3    H148177   0.157   5.183   9.225  1.8348 -1.5665 -1.4659
 7994TIP3    H248178   0.063   5.068   9.193 -1.9553  0.5555  1.1721
 7995TIP3   OH248179   4.201   0.814   9.549  0.5962 -0.5687  0.0833
 7995TIP3    H148180   4.258   0.742   9.523  0.4725 -0.1626 -1.4256
 7995TIP3    H248181   4.119   0.772   9.574 -0.0087 -0.9398 -2.2477
 7996TIP3   OH248182   2.915   0.717  12.183  0.2940  0.1502  0.0462
 7996TIP3    H148183   2.864   0.793  12.154 -0.1368  0.5044  1.6676
 7996TIP3    H248184   2.850   0.651  12.207  0.6246  0.0279  0.6223
 7997TIP3   OH248185   0.309   0.835   9.601 -0.0778  0.4155 -1.1915
 7997TIP3    H148186   0.368   0.760   9.605  0.9875  1.2057 -1.4726
 7997TIP3    H248187   0.225   0.801   9.630  1.1062 -0.1370  2.0467
 7998TIP3   OH248188   1.935   1.024   9.142 -0.1364 -0.0283  0.4319
 7998TIP3    H148189   1.943   0.928   9.145  1.5352  0.0823  3.1218
 7998TIP3    H248190   2.008   1.052   9.087 -0.5732 -0.2648 -0.2867
 7999TIP3   OH248191   6.141   5.079   9.678 -0.1955  0.2616  0.2892
 7999TIP3    H148192   6.204   5.017   9.640 -0.2183 -0.3322  1.1945
 7999TIP3    H248193   6.106   5.034   9.755  0.7774  1.8924  1.7695
 8000TIP3   OH248194   6.237   0.081   9.296  0.1862 -0.2381 -0.3889
 8000TIP3    H148195   6.213  -0.010   9.312  0.0994 -0.4215 -1.4885
 8000TIP3    H248196   6.162   0.118   9.248  0.6522  0.1152 -0.8608
 8001TIP3   OH248197   1.015   5.345  12.440  0.4912 -0.2560 -0.0322
 8001TIP3    H148198   1.080   5.278  12.463 -0.2226 -1.4780 -1.3496
 8001TIP3    H248199   0.941   5.328  12.498  1.0257  0.6164  0.9173
 8002TIP3   OH248200   2.485   6.299   9.555 -0.0535  0.1865  0.2972
 8002TIP3    H148201   2.572   6.272   9.583 -0.1829 -0.6111 -0.0452
 8002TIP3    H248202   2.484   6.284   9.461 -0.1880  1.2677  0.1139
 8003TIP3   OH248203   0.987   3.745   9.974  0.2239  0.6528 -0.4156
 8003TIP3    H148204   0.911   3.725  10.030  0.2285 -1.5695 -1.1205
 8003TIP3    H248205   1.053   3.777  10.035 -0.3613 -0.0386  0.6152
 8004TIP3   OH248206   0.405   1.470  12.067 -0.6663 -0.1310  0.0491
 8004TIP3    H148207   0.401   1.413  11.990  0.3828  0.8866 -0.7905
 8004TIP3    H248208   0.373   1.555  12.035  0.7567  0.5753  0.4525
 8005TIP3   OH248209   1.061   6.664  10.795 -0.2245  0.3787  0.2381
 8005TIP3    H148210   1.129   6.635  10.856  0.4478 -0.0657 -0.7043
 8005TIP3    H248211   1.103   6.661  10.709 -1.9419 -1.7046 -0.6343
 8006TIP3   OH248212   3.899   2.855  11.153 -0.0422 -0.5827 -0.1424
 8006TIP3    H148213   3.830   2.881  11.214 -0.2583 -0.8394 -0.2791
 8006TIP3    H248214   3.979   2.890  11.192 -0.2459 -0.2979  0.0244
 8007TIP3   OH248215   0.965   2.958  10.840 -0.1003  0.0961  0.1650
 8007TIP3    H148216   0.999   2.951  10.751  1.6620 -1.4035  0.8899
 8007TIP3    H248217   0.987   3.047  10.867 -0.6490  0.5633 -0.8915
 8008TIP3   OH248218   6.470   5.375  12.186 -0.0986 -0.3124  0.3466
 8008TIP3    H148219   6.423   5.352  12.267  0.4628 -1.7146  0.3106
 8008TIP3    H248220   6.412   5.344  12.116 -1.4554  2.5478  0.0767
 8009TIP3   OH248221   6.378   0.838  10.396 -0.6122  0.7381 -0.2607
 8009TIP3    H148222   6.374   0.749  10.359 -1.3488  0.7017 -0.1046
 8009TIP3    H248223   6.471   0.853  10.411 -0.5364 -0.2972  0.3987
 8010TIP3   OH248224   2.775   1.268  10.926  0.2871 -0.2409 -0.4315
 8010TIP3    H148225   2.724   1.345  10.903  0.5648  0.4651  1.1868
 8010TIP3    H248226   2.862   1.302  10.949  0.5200 -1.0741 -0.0331
 8011TIP3   OH248227   5.632   2.355  12.290  0.0670  0.1925  0.5760
 8011TIP3    H148228   5.646   2.423  12.356 -0.7442  0.6698  0.2749
 8011TIP3    H248229   5.548   2.315  12.314  0.8128 -1.1209  1.0971
 8012TIP3   OH248230   5.459   4.944   9.385 -0.3638 -0.1981  0.1257
 8012TIP3    H148231   5.370   4.980   9.380  0.1078  1.1776  1.0290
 8012TIP3    H248232   5.493   4.975   9.468  1.0637 -0.4959 -0.3159
 8013TIP3   OH248233   0.489   0.718  10.786 -0.2505 -0.1824  0.2183
 8013TIP3    H148234   0.524   0.785  10.845  0.8696 -1.2531  0.8393
 8013TIP3    H248235   0.428   0.668  10.840 -0.6478 -0.0250 -0.0781
 8014TIP3   OH248236   3.714   1.621   9.177  0.6063 -0.2697 -0.6086
 8014TIP3    H148237   3.700   1.557   9.107  1.0285 -0.8992 -0.1289
 8014TIP3    H248238   3.677   1.579   9.254  2.1918 -0.5971  0.0212
 8015TIP3   OH248239   1.237   1.877   9.693  0.6399 -0.5427  0.0302
 8015TIP3    H148240   1.258   1.870   9.600 -0.0546 -0.6413 -0.1265
 8015TIP3    H248241   1.222   1.786   9.721 -1.5712 -0.3589 -0.3621
 8016TIP3   OH248242   0.677   4.653  11.178 -0.2930  0.1917  0.0380
 8016TIP3    H148243   0.619   4.625  11.108 -0.9465 -0.3112  0.7632
 8016TIP3    H248244   0.645   4.740  11.202  0.7468  0.9482 -1.1363
 8017TIP3   OH248245   2.433   4.641  11.841  0.3186 -0.2756  0.4473
 8017TIP3    H148246   2.480   4.561  11.819 -1.4327 -1.3825  0.6464
 8017TIP3    H248247   2.394   4.670  11.759  1.5240  0.8159  0.2166
 8018TIP3   OH248248   2.187   0.125  11.406  0.3991  0.8059 -0.1000
 8018TIP3    H148249   2.250   0.150  11.474 -0.3499  1.7823  0.2641
 8018TIP3    H248250   2.186   0.199  11.345 -0.8442  1.1121  0.2491
 8019TIP3   OH248251   1.548   4.272  11.475 -1.3302 -0.2903  0.1130
 8019TIP3    H148252   1.623   4.243  11.423  0.1565  1.8003  0.9792
 8019TIP3    H248253   1.545   4.211  11.549  1.0349  0.9024  1.3044
 8020TIP3   OH248254   0.128   2.054  10.600  0.3164  0.0414  0.0293
 8020TIP3    H148255   0.187   2.124  10.626  0.2593  0.2457 -0.3729
 8020TIP3    H248256   0.140   2.047  10.505 -0.9706  0.7024 -0.1964
 8021TIP3   OH248257   5.150   4.207   9.732 -0.5445  0.1268 -0.5097
 8021TIP3    H148258   5.120   4.117   9.730 -0.9468  0.2158  0.7219
 8021TIP3    H248259   5.118   4.242   9.815  1.0172  0.9089 -0.1896
 8022TIP3   OH248260   0.196   1.401  10.880 -0.5519 -0.6729 -0.2592
 8022TIP3    H148261   0.204   1.354  10.797  0.2238 -0.4635 -0.3177
 8022TIP3    H248262   0.221   1.491  10.858 -1.6169 -0.3217 -0.0636
 8023TIP3   OH248263   6.445   5.934  12.509  0.3466  0.3318  0.4053
 8023TIP3    H148264   6.537   5.952  12.527  0.3049  0.7509  0.2035
 8023TIP3    H248265   6.401   5.950  12.593  0.2535  1.6009  0.1363
 8024TIP3   OH248266   6.524   6.475  11.209  0.4872  0.0049 -0.2875
 8024TIP3    H148267   6.548   6.404  11.269  0.9972  0.5909  0.2298
 8024TIP3    H248268   6.603   6.529  11.204  0.1725  0.4231 -0.8269
 8025TIP3   OH248269   2.963   0.329   9.341 -0.1724  0.3444  0.1218
 8025TIP3    H148270   3.016   0.252   9.323  0.3003  0.5388  0.6537
 8025TIP3    H248271   3.021   0.403   9.325 -0.2147  0.5555  0.8826
 8026TIP3   OH248272   2.754   2.495  11.550  0.3767 -0.7734 -0.0624
 8026TIP3    H148273   2.769   2.446  11.470  1.2680  0.6454 -0.8157
 8026TIP3    H248274   2.839   2.498  11.593  0.5312  0.6832 -0.4055
 8027TIP3   OH248275   5.411   2.149  10.637  0.1549  0.5820  0.5585
 8027TIP3    H148276   5.357   2.133  10.560 -0.5854  0.1191  1.1667
 8027TIP3    H248277   5.352   2.140  10.711  1.1269 -0.2716  1.2628
 8028TIP3   OH248278   3.502   0.305  11.304  0.1251 -0.2183 -0.0413
 8028TIP3    H148279   3.453   0.243  11.250  0.5506  0.2327 -0.9538
 8028TIP3    H248280   3.445   0.382  11.309 -0.2920 -0.5651  0.8852
 8029TIP3   OH248281   3.922   1.591  11.075 -0.8253  0.1099 -0.0854
 8029TIP3    H148282   3.882   1.505  11.062 -1.7481  0.6456 -0.9409
 8029TIP3    H248283   3.849   1.647  11.101 -0.3276  0.7471 -0.0504
 8030TIP3   OH248284   1.325   1.048  11.970  1.0339 -0.9256 -0.0967
 8030TIP3    H148285   1.413   1.026  12.001  1.0149  0.5026  1.0560
 8030TIP3    H248286   1.326   1.143  11.957 -0.4058 -0.8353  0.1962
 8031TIP3   OH248287   0.093   2.322  10.328 -0.2686 -0.5905 -0.1251
 8031TIP3    H148288   0.139   2.369  10.397 -0.5263  1.8615 -1.5074
 8031TIP3    H248289   0.002   2.318  10.359 -0.1845 -0.4193  0.1488
 8032TIP3   OH248290   4.357   2.259  10.844  0.1101 -0.0516 -0.1171
 8032TIP3    H148291   4.346   2.292  10.933  1.2261 -0.7788  0.3052
 8032TIP3    H248292   4.277   2.211  10.826  0.9880 -2.3146  1.5805
 8033TIP3   OH248293   1.967   1.188  13.113 -0.3232 -0.0716  0.6840
 8033TIP3    H148294   2.057   1.177  13.082  0.1224 -2.7943  2.5847
 8033TIP3    H248295   1.975   1.242  13.192 -0.7875  2.0437 -0.6235
 8034TIP3   OH248296   3.085   4.717  11.606 -0.1857  0.7360  0.4258
 8034TIP3    H148297   3.123   4.753  11.686  0.3978 -0.3877  0.6730
 8034TIP3    H248298   3.156   4.666  11.567 -0.1158  2.0972 -1.3629
 8035TIP3   OH248299   6.291   3.129  10.297 -0.7652  0.1511 -0.3048
 8035TIP3    H148300   6.249   3.113  10.212  0.0586  0.7861 -0.8601
 8035TIP3    H248301   6.289   3.224  10.307  0.1082  0.1644 -0.1357
 8036TIP3   OH248302   1.613   4.848  12.216  0.1090 -0.1689  0.0494
 8036TIP3    H148303   1.689   4.903  12.233  1.3703 -0.9440 -2.4703
 8036TIP3    H248304   1.619   4.777  12.279  0.5530  0.6332  0.9188
 8037TIP3   OH248305   4.541   5.267  10.296  0.0683 -0.1416 -0.3784
 8037TIP3    H148306   4.544   5.231  10.207 -2.5498 -1.7088  0.0637
 8037TIP3    H248307   4.471   5.332  10.293 -0.7370 -0.9274  0.7527
 8038TIP3   OH248308   2.738   0.965  10.897 -0.3596  0.1414  0.2805
 8038TIP3    H148309   2.644   0.963  10.882 -0.2719  0.3624 -0.3204
 8038TIP3    H248310   2.761   1.059  10.896 -0.0904  0.0758  0.1246
 8039TIP3   OH248311   4.476   0.320  12.663  0.1091  0.4964 -0.1273
 8039TIP3    H148312   4.556   0.270  12.646 -0.7748 -0.7836 -0.6673
 8039TIP3    H248313   4.470   0.325  12.759  0.8192  0.6004 -0.0830
 8040TIP3   OH248314   0.929   5.848  12.631 -0.4524  0.8716  0.3186
 8040TIP3    H148315   0.988   5.841  12.705  1.0248  2.0967 -0.6787
 8040TIP3    H248316   0.969   5.914  12.574 -1.6026  0.0840 -1.5066
 8041TIP3   OH248317   4.669   1.937  12.631  0.3026 -0.0938  0.2362
 8041TIP3    H148318   4.617   1.877  12.685  0.1135 -0.0626  0.0914
 8041TIP3    H248319   4.707   1.881  12.564  1.2668 -0.2805  0.9247
 8042TIP3   OH248320   3.324   3.470  10.029  0.3750 -0.3974 -0.5971
 8042TIP3    H148321   3.383   3.539  10.000 -1.0990  0.5788 -1.4338
 8042TIP3    H248322   3.260   3.515  10.084  0.0379 -1.3051 -0.2337
 8043TIP3   OH248323   0.371   6.021   8.958  0.0576  0.0418  0.0624
 8043TIP3    H148324   0.392   6.044   8.868  0.6219  1.3420  0.4916
 8043TIP3    H248325   0.427   6.079   9.011 -1.3417  0.3643  1.2460
 8044TIP3   OH248326   4.041   2.993  11.712  0.5921 -0.5108  0.5269
 8044TIP3    H148327   3.977   3.024  11.776  0.8929 -1.7859  1.4948
 8044TIP3    H248328   4.006   3.019  11.627 -1.4505 -1.5959  0.9870
 8045TIP3   OH248329   2.911   1.048  10.578  0.1830 -0.3849  0.2744
 8045TIP3    H148330   2.974   0.978  10.558  0.8690 -0.4243  2.4085
 8045TIP3    H248331   2.910   1.053  10.673  0.4672  2.8182  0.2001
 8046TIP3   OH248332   1.405   0.022  11.672  0.1807 -0.5389 -0.1512
 8046TIP3    H148333   1.404  -0.073  11.669 -0.0100 -0.5508  0.2115
 8046TIP3    H248334   1.426   0.049  11.583 -2.5094 -0.8526 -0.9493
 8047TIP3   OH248335   0.040   0.985  12.843  0.9121  0.0249 -0.0276
 8047TIP3    H148336  -0.009   0.930  12.903  1.0387  0.4845  0.5018
 8047TIP3    H248337  -0.014   0.990  12.764  0.7562 -0.5966  0.0392
 8048TIP3   OH248338   2.429   0.533  11.301  0.2604 -0.1103 -0.6368
 8048TIP3    H148339   2.418   0.581  11.219  1.4333 -0.7365 -1.1758
 8048TIP3    H248340   2.452   0.444  11.275 -1.5842 -0.9417  0.3611
 8049TIP3   OH248341   1.579   3.998  12.081 -0.8587 -0.1450 -0.4026
 8049TIP3    H148342   1.545   4.060  12.145 -0.1926 -2.1142  1.9913
 8049TIP3    H248343   1.507   3.987  12.019 -0.7385  3.4897 -1.4297
 8050TIP3   OH248344   4.657   5.153  11.910  0.4773 -0.3349  0.3731
 8050TIP3    H148345   4.707   5.165  11.829  0.7759  1.2749  0.7681
 8050TIP3    H248346   4.720   5.169  11.980  0.0102 -0.8166  0.9149
 8051TIP3   OH248347   2.966   2.807  10.656  0.3750  0.1636  0.1827
 8051TIP3    H148348   3.060   2.789  10.661  0.1165 -1.2314  0.4462
 8051TIP3    H248349   2.959   2.882  10.597  1.4378 -1.7900 -2.6488
 8052TIP3   OH248350   3.097   5.686  11.041  0.2522  0.1043  0.3738
 8052TIP3    H148351   3.189   5.712  11.045  0.0647  1.1486 -1.0799
 8052TIP3    H248352   3.081   5.640  11.123  1.6324  1.3221  1.3672
 8053TIP3   OH248353   6.580   2.022  11.216 -0.4196  0.2016  0.0922
 8053TIP3    H148354   6.553   2.078  11.142  0.0735 -0.9677 -1.0026
 8053TIP3    H248355   6.558   1.933  11.188  1.4606 -0.4547  0.5631
 8054TIP3   OH248356   3.798   0.066  10.385 -0.7137  0.1847  0.2895
 8054TIP3    H148357   3.876   0.102  10.428 -1.0306  1.5852 -0.2815
 8054TIP3    H248358   3.768  -0.003  10.445  1.6160 -1.2217 -0.0129
 8055TIP3   OH248359   2.579   3.225   9.262  0.0386 -0.0039 -0.4697
 8055TIP3    H148360   2.522   3.170   9.316  0.9007  0.4526  0.9944
 8055TIP3    H248361   2.662   3.228   9.311  0.7132  0.8168 -1.6062
 8056TIP3   OH248362   1.430   0.388   9.874 -0.1065 -0.3226  0.0019
 8056TIP3    H148363   1.448   0.460   9.934 -1.7874 -0.0817  0.2584
 8056TIP3    H248364   1.460   0.421   9.789 -0.2000  0.3976  0.2399
 8057TIP3   OH248365   4.053   3.156  10.903  0.2650 -0.3942 -0.0407
 8057TIP3    H148366   4.086   3.099  10.834 -1.0603  0.0475 -1.0878
 8057TIP3    H248367   4.113   3.231  10.903 -0.5138  0.2909 -1.7587
 8058TIP3   OH248368   3.347   3.863  10.868  0.2154  0.3713  0.0365
 8058TIP3    H148369   3.320   3.880  10.778 -0.6954 -0.7501  0.0804
 8058TIP3    H248370   3.437   3.896  10.872  0.0225  1.0958 -1.0701
 8059TIP3   OH248371   1.732   1.518   9.187 -0.4078 -0.0391  0.4695
 8059TIP3    H148372   1.709   1.595   9.238 -0.0932  0.1251  0.3708
 8059TIP3    H248373   1.657   1.503   9.130  0.2348  1.2810 -0.7961
 8060TIP3   OH248374   0.802   1.753  11.091  0.6025 -0.2215 -0.3079
 8060TIP3    H148375   0.781   1.790  11.005 -0.4944  0.1044  0.0840
 8060TIP3    H248376   0.840   1.826  11.140  1.2729 -0.4201 -0.5295
 8061TIP3   OH248377   6.138   0.976   9.546  0.0987  0.4488 -0.3806
 8061TIP3    H148378   6.179   1.062   9.547 -1.4026  1.2415  1.9752
 8061TIP3    H248379   6.052   0.991   9.506 -0.4893  0.2605  0.7695
 8062TIP3   OH248380   6.462   6.021  11.911  0.1354 -0.0296 -0.1784
 8062TIP3    H148381   6.472   5.987  12.000  1.4863  0.6845 -0.0275
 8062TIP3    H248382   6.551   6.031  11.879 -0.2961  0.8779 -1.1624
 8063TIP3   OH248383   5.929   6.379  11.426  0.2274  0.0917  0.4768
 8063TIP3    H148384   5.944   6.339  11.341  0.5732 -2.1141  1.4895
 8063TIP3    H248385   5.888   6.463  11.407 -0.4912 -0.7128 -1.8110
 8064TIP3   OH248386   6.381   1.197  10.161 -0.3444 -0.4228 -0.1089
 8064TIP3    H148387   6.457   1.155  10.201  0.4861 -0.0145 -1.1981
 8064TIP3    H248388   6.310   1.134  10.172  0.6776 -1.8009 -0.9908
 8065TIP3   OH248389   2.981   1.456  12.008  0.1428 -0.1001  0.2137
 8065TIP3    H148390   3.009   1.535  11.962 -1.4942  1.0443  1.0456
 8065TIP3    H248391   2.916   1.416  11.950 -1.4362  0.9917  1.1222
 8066TIP3   OH248392   0.797   2.919  11.794  0.4052 -0.9168  0.2608
 8066TIP3    H148393   0.889   2.898  11.776  0.1224 -0.6854 -1.7477
 8066TIP3    H248394   0.748   2.849  11.752 -0.3566 -0.2113 -0.0637
 8067TIP3   OH248395   5.862   4.634  10.072  0.9691  0.1750  0.3795
 8067TIP3    H148396   5.896   4.722  10.056 -0.8444  1.0012  0.8045
 8067TIP3    H248397   5.872   4.589   9.988 -1.4285  2.0138 -1.0364
 8068TIP3   OH248398   5.312   6.401  11.317 -0.2122 -0.4436  0.4413
 8068TIP3    H148399   5.281   6.380  11.229  1.8083 -0.0248 -0.4209
 8068TIP3    H248400   5.362   6.324  11.344  1.5074  0.5059  0.0624
 8069TIP3   OH248401   4.922   5.046   9.380  0.1735 -0.0756 -0.0306
 8069TIP3    H148402   4.987   4.990   9.337  0.5080 -0.8852  1.4621
 8069TIP3    H248403   4.973   5.119   9.414  0.1556 -0.2375  0.3422
 8070TIP3   OH248404   4.484   1.109  11.171  0.0980 -0.7542 -0.2581
 8070TIP3    H148405   4.491   1.172  11.243  0.7243  0.8515 -1.6608
 8070TIP3    H248406   4.391   1.092  11.162 -0.3337  1.7723 -1.2795
 8071TIP3   OH248407   5.163   1.342  12.003 -0.0010 -0.7944 -0.4205
 8071TIP3    H148408   5.183   1.434  11.985 -1.3267 -0.3287  0.2786
 8071TIP3    H248409   5.110   1.313  11.929 -2.1084 -0.0541  0.6914
 8072TIP3   OH248410   4.187   2.989  11.084 -0.1259  0.2320 -0.0776
 8072TIP3    H148411   4.128   3.057  11.052 -0.9379  0.1008  1.0798
 8072TIP3    H248412   4.171   2.914  11.027 -1.6393 -0.0440  0.6527
 8073TIP3   OH248413   4.909   1.430  12.297  0.0475 -0.1884  0.0810
 8073TIP3    H148414   4.983   1.393  12.345 -0.3627 -0.0779  0.8127
 8073TIP3    H248415   4.836   1.370  12.315 -0.5270  0.7274  0.9617
 8074TIP3   OH248416   0.603   0.042   9.559  0.1707 -0.2383  1.0281
 8074TIP3    H148417   0.636   0.132   9.570  0.1838 -0.2639  1.2086
 8074TIP3    H248418   0.579   0.015   9.648 -0.3089 -0.2291  0.9007
 8075TIP3   OH248419   3.137   3.315  12.037  0.1556  0.2427 -0.2009
 8075TIP3    H148420   3.159   3.246  12.099 -1.4948  0.1869  0.3840
 8075TIP3    H248421   3.196   3.387  12.058  1.6120 -0.7987 -0.5300
 8076TIP3   OH248422   1.350   5.472   9.812  0.5704 -0.3329 -0.4174
 8076TIP3    H148423   1.445   5.470   9.800  0.9486  1.2391  1.7626
 8076TIP3    H248424   1.315   5.441   9.729  3.0102 -4.0649 -0.3076
 8077TIP3   OH248425   1.714   1.202  12.224  0.6869  0.5779  0.2693
 8077TIP3    H148426   1.692   1.183  12.316  0.6980 -1.4759 -0.0961
 8077TIP3    H248427   1.782   1.138  12.203  1.0899  1.4066 -1.0176
 8078TIP3   OH248428   4.523   5.118  10.051 -0.0616 -0.3242 -0.0442
 8078TIP3    H148429   4.452   5.104   9.988 -0.1602 -1.2535  0.2679
 8078TIP3    H248430   4.521   5.041  10.108 -0.0522  0.5350  1.1719
 8079TIP3   OH248431   4.127   4.465   9.629 -0.3594 -0.0998  0.0820
 8079TIP3    H148432   4.114   4.448   9.723  1.7681 -0.2306  0.3957
 8079TIP3    H248433   4.135   4.379   9.590 -2.3989 -0.0877 -0.4541
 8080TIP3   OH248434   3.608   3.900  12.183  0.0204 -0.3086 -0.0498
 8080TIP3    H148435   3.579   3.955  12.255 -1.0184  0.1083 -0.7725
 8080TIP3    H248436   3.529   3.855  12.153  0.4514 -0.5300 -0.8917
 8081TIP3   OH248437   3.490   3.652   9.597  0.4962  0.2630  0.5706
 8081TIP3    H148438   3.443   3.727   9.635  0.2228  0.7328 -0.6447
 8081TIP3    H248439   3.425   3.609   9.541  0.8143 -0.5779  0.8333
 8082TIP3   OH248440   3.433   0.482  10.342 -0.1241 -0.0029 -0.0112
 8082TIP3    H148441   3.488   0.421  10.391  2.0757  1.8787 -0.0004
 8082TIP3    H248442   3.440   0.453  10.251 -1.3569 -1.3716  0.2919
 8083TIP3   OH248443   1.399   4.634  11.729 -0.3206 -0.5518 -0.2086
 8083TIP3    H148444   1.314   4.677  11.738 -0.0223 -0.1452  0.7459
 8083TIP3    H248445   1.460   4.692  11.773  0.0635 -2.0342  1.3183
 8084TIP3   OH248446   0.336   3.176  12.025  0.1235  0.0124 -0.4996
 8084TIP3    H148447   0.265   3.183  12.089  0.1456 -1.1816 -0.3067
 8084TIP3    H248448   0.402   3.122  12.069  0.6027  0.0726 -1.1321
 8085TIP3   OH248449   5.973   1.728  11.727 -0.5596  0.6664 -0.1060
 8085TIP3    H148450   6.048   1.757  11.780  0.3729 -0.1439 -0.9283
 8085TIP3    H248451   5.917   1.681  11.789 -0.6154  1.6665  0.6159
 8086TIP3   OH248452   2.467   1.496  10.546 -0.7679  0.0926 -0.3700
 8086TIP3    H148453   2.431   1.541  10.469 -1.4282 -1.2528 -0.8844
 8086TIP3    H248454   2.401   1.430  10.568  0.7532 -1.5658 -0.5140
 8087TIP3   OH248455   6.084   0.915   9.811 -0.3602  0.1816 -0.3422
 8087TIP3    H148456   6.114   0.948   9.726 -0.4883  2.1113  0.3153
 8087TIP3    H248457   6.012   0.856   9.789 -0.8600  1.1891 -1.5642
 8088TIP3   OH248458   4.870   2.881  11.333 -0.0609 -0.3193 -0.1886
 8088TIP3    H148459   4.833   2.940  11.399 -1.0430 -0.0435 -0.9524
 8088TIP3    H248460   4.955   2.919  11.311  0.3015 -0.4448  0.9357
 8089TIP3   OH248461   2.523   0.822  10.776  0.2136 -0.4554 -0.0686
 8089TIP3    H148462   2.486   0.737  10.751 -0.9949  0.0979 -0.1982
 8089TIP3    H248463   2.503   0.880  10.703 -1.7638  0.7273  1.3211
 8090TIP3   OH248464   6.521   1.630  10.520  0.2448 -0.0704  0.6256
 8090TIP3    H148465   6.558   1.646  10.607  0.3477  1.8503  0.2626
 8090TIP3    H248466   6.590   1.581  10.474  0.8640  0.3297  1.1009
 8091TIP3   OH248467   4.760   2.407  11.496  0.2012 -0.2590 -0.3846
 8091TIP3    H148468   4.843   2.367  11.519 -1.0068 -3.1215 -0.6368
 8091TIP3    H248469   4.708   2.404  11.576 -0.1379  0.2711 -0.5729
 8092TIP3   OH248470   2.685   6.358   9.058  0.2505  0.0447  0.7041
 8092TIP3    H148471   2.620   6.311   9.005 -2.7178  2.7729  1.5810
 8092TIP3    H248472   2.740   6.290   9.095 -1.0236 -2.3444 -1.4811
 8093TIP3   OH248473   2.359   2.312   9.642  0.3734 -0.2329  0.3496
 8093TIP3    H148474   2.305   2.296   9.564  0.6371  0.2432  0.0612
 8093TIP3    H248475   2.442   2.269   9.622  0.4761 -0.0252  0.3204
 8094TIP3   OH248476   6.314   0.625   9.657 -0.2530 -0.1212  0.8138
 8094TIP3    H148477   6.257   0.639   9.732 -0.0380  0.1391  0.9299
 8094TIP3    H248478   6.402   0.644   9.689  0.1394 -2.2201  1.1198
 8095TIP3   OH248479   2.089   3.004  12.184  0.1777  0.2529  0.0292
 8095TIP3    H148480   2.152   2.987  12.254  0.9113 -2.7344 -1.1876
 8095TIP3    H248481   2.143   3.012  12.105 -0.8131  0.0902 -0.6840
 8096TIP3   OH248482   3.124   5.915  12.593 -0.1958 -0.1215  0.0086
 8096TIP3    H148483   3.208   5.904  12.548 -0.2378  1.2702 -0.4562
 8096TIP3    H248484   3.087   5.995  12.557 -1.9687 -0.9494 -0.1237
 8097TIP3   OH248485   5.347   6.323   9.491  0.4384  0.0587  0.5825
 8097TIP3    H148486   5.316   6.413   9.500 -0.5831 -0.4189  2.1045
 8097TIP3    H248487   5.426   6.320   9.544  0.5457  0.0939  0.4246
 8098TIP3   OH248488   1.535   1.214   9.512 -0.7885 -0.0046  0.0059
 8098TIP3    H148489   1.530   1.203   9.607 -2.0876  0.3278 -0.0154
 8098TIP3    H248490   1.607   1.156   9.486 -0.3291 -0.0105  1.1965
 8099TIP3   OH248491   4.340   4.543  10.494 -0.1154 -0.1465 -0.3612
 8099TIP3    H148492   4.412   4.557  10.555  0.6838  3.4434 -1.8624
 8099TIP3    H248493   4.262   4.540  10.549  0.7002  1.5146  0.9755
 8100TIP3   OH248494   1.049   6.546  11.614 -0.1439  0.2163  0.9121
 8100TIP3    H148495   0.979   6.535  11.550 -0.9719  2.5037  1.3174
 8100TIP3    H248496   1.012   6.516  11.696  0.5556 -1.7170  0.5679
 8101TIP3   OH248497   3.175   5.924   9.329  0.1072  0.1019  0.3741
 8101TIP3    H148498   3.230   5.869   9.273 -0.8804  0.5004 -1.0403
 8101TIP3    H248499   3.236   5.987   9.367  0.8037 -0.1456 -0.2988
 8102TIP3   OH248500   2.700   5.888  10.713  0.2554 -0.2151 -0.0946
 8102TIP3    H148501   2.641   5.814  10.727 -1.4205  1.2246  0.6921
 8102TIP3    H248502   2.778   5.866  10.764 -0.7594 -0.8206  1.2477
 8103TIP3   OH248503   2.724   1.208  12.076 -0.0730  0.6061 -0.4504
 8103TIP3    H148504   2.712   1.228  11.983 -0.5238  2.3162 -0.0643
 8103TIP3    H248505   2.726   1.112  12.080 -1.3823  0.4595 -2.0553
 8104TIP3   OH248506   4.066   5.732  11.786 -0.1865 -0.0613 -0.1684
 8104TIP3    H148507   4.137   5.763  11.730 -1.3459  0.5242 -1.3584
 8104TIP3    H248508   4.101   5.652  11.826  0.9008 -0.1552 -1.2377
 8105TIP3   OH248509   5.189   5.314  10.724  0.0257  0.1060 -0.6645
 8105TIP3    H148510   5.172   5.398  10.680 -1.7826 -0.8427 -1.9151
 8105TIP3    H248511   5.105   5.292  10.765  0.7275 -0.6988  0.3720
 8106TIP3   OH248512   4.276   3.920  10.405 -0.0283 -0.4207  0.4767
 8106TIP3    H148513   4.370   3.930  10.421  0.2693 -0.6755 -1.0044
 8106TIP3    H248514   4.269   3.841  10.351 -1.0270 -0.0094 -0.0212
 8107TIP3   OH248515   3.855   2.936   9.522 -0.3283  0.1115  0.0459
 8107TIP3    H148516   3.819   3.000   9.584 -0.7501  0.2335 -0.3231
 8107TIP3    H248517   3.946   2.964   9.510 -0.5769  0.7937 -0.3017
 8108TIP3   OH248518   2.028   4.671  11.537 -0.2933 -0.0186  0.3429
 8108TIP3    H148519   2.064   4.735  11.598 -1.1730 -1.7520  2.8455
 8108TIP3    H248520   2.089   4.598  11.541  1.6319  1.0833 -3.7556
 8109TIP3   OH248521   5.512   6.615  10.476  0.1168 -0.6294  0.8112
 8109TIP3    H148522   5.539   6.663  10.398 -1.0418 -1.9553 -0.4689
 8109TIP3    H248523   5.465   6.680  10.529  0.8535  0.2739  0.3862
 8110TIP3   OH248524   4.293   2.984  12.249 -1.0166 -0.0868  0.2286
 8110TIP3    H148525   4.361   2.934  12.204  0.7099  2.2532  0.0648
 8110TIP3    H248526   4.302   2.959  12.341 -1.5926 -1.5636 -0.0805
 8111TIP3   OH248527   2.299   6.249  12.413 -0.1836 -0.1786 -1.1645
 8111TIP3    H148528   2.266   6.248  12.503  1.1775 -1.2926 -0.6469
 8111TIP3    H248529   2.322   6.341  12.398  0.4222 -0.1309 -0.0485
 8112TIP3   OH248530   3.341   2.322  11.048 -0.6187  0.7561 -0.5679
 8112TIP3    H148531   3.257   2.331  11.094 -1.0573 -0.8218 -1.0069
 8112TIP3    H248532   3.406   2.344  11.114 -1.3243  0.4685  0.2495
 8113TIP3   OH248533   1.825   5.322  12.279 -0.3541 -0.3275  0.0321
 8113TIP3    H148534   1.737   5.334  12.315 -0.4097  0.0142 -0.2195
 8113TIP3    H248535   1.855   5.410  12.259 -0.6598 -0.5523 -1.5738
 8114TIP3   OH248536   0.551   2.507  10.888  0.4567 -0.4030 -0.1277
 8114TIP3    H148537   0.634   2.552  10.902 -0.0430  0.2000  1.0226
 8114TIP3    H248538   0.503   2.564  10.827  1.2051 -1.1998 -1.5148
 8115TIP3   OH248539   3.775   1.534  10.751  0.1284 -0.0335  0.4460
 8115TIP3    H148540   3.737   1.452  10.720 -0.3937  0.1846  0.4902
 8115TIP3    H248541   3.868   1.528  10.729  0.0326 -0.4973  0.1594
 8116TIP3   OH248542   4.138   1.400  11.444 -0.1538  0.0737  0.0417
 8116TIP3    H148543   4.067   1.345  11.413  0.7604 -1.0636 -0.0900
 8116TIP3    H248544   4.170   1.445  11.366 -0.5641  0.4019  0.0607
 8117TIP3   OH248545   6.240   0.602  11.977 -0.1962 -0.5570  0.1245
 8117TIP3    H148546   6.323   0.588  12.022  0.9547  1.6785 -1.1278
 8117TIP3    H248547   6.255   0.677  11.920 -2.9788 -0.3170 -0.4775
 8118TIP3   OH248548   5.238   0.174   9.667  0.4136  0.1185 -0.0022
 8118TIP3    H148549   5.179   0.177   9.591  1.2561 -0.9894 -0.7323
 8118TIP3    H248550   5.326   0.166   9.628  1.1495  2.2673  1.0371
 8119TIP3   OH248551   5.532   0.095  10.287 -0.0317 -0.4373  0.3661
 8119TIP3    H148552   5.603   0.090  10.224 -0.8457 -0.1323 -0.5966
 8119TIP3    H248553   5.484   0.175  10.264 -1.1294 -1.0308  0.5004
 8120TIP3   OH248554   2.583   0.274  11.626 -0.5231 -0.1250  0.2311
 8120TIP3    H148555   2.594   0.218  11.703 -0.9128 -2.7659 -1.5283
 8120TIP3    H248556   2.672   0.295  11.599 -0.1603 -2.9333 -1.0917
 8121TIP3   OH248557   5.755   0.084  10.037  0.2424 -0.2994  0.0661
 8121TIP3    H148558   5.732   0.051   9.950  0.5786  2.8082 -1.3150
 8121TIP3    H248559   5.841   0.045  10.055 -0.2062 -1.6418 -0.5601
 8122TIP3   OH248560   3.084   2.521  17.570 -0.0198 -0.1111 -0.6114
 8122TIP3    H148561   3.036   2.520  17.488 -0.2328  0.4494 -0.4927
 8122TIP3    H248562   3.160   2.465  17.554 -0.4286 -0.5702 -0.9626
 8123TIP3   OH248563   2.545   4.905   9.408  0.2113 -0.3609  0.1005
 8123TIP3    H148564   2.505   4.846   9.472 -0.3009  0.7954  0.8920
 8123TIP3    H248565   2.634   4.873   9.397 -0.6011 -2.4115 -0.9481
 8124TIP3   OH248566   0.234   5.443  11.568 -0.0026  0.0167  0.0675
 8124TIP3    H148567   0.266   5.519  11.520  0.6844  0.1459  0.7098
 8124TIP3    H248568   0.290   5.371  11.537 -0.1882 -0.0857 -0.0276
 8125TIP3   OH248569   6.325   6.429   9.980 -0.0542 -0.2911  0.2175
 8125TIP3    H148570   6.395   6.490  10.003 -0.1123 -0.1936  0.1413
 8125TIP3    H248571   6.370   6.347   9.957 -0.1074 -1.2338  3.1317
 8126TIP3   OH248572   4.227   5.197  10.911  0.7130 -0.4948  0.5094
 8126TIP3    H148573   4.307   5.216  10.861  0.8080  1.1057  1.2022
 8126TIP3    H248574   4.221   5.269  10.975 -1.9528  0.1770 -0.3534
 8127TIP3   OH248575   0.011   1.057   9.554  0.2422 -0.5348  0.0361
 8127TIP3    H148576  -0.076   1.052   9.514  0.4484  1.2998 -0.7382
 8127TIP3    H248577   0.028   0.968   9.584 -1.1205 -1.3647 -1.4598
 8128TIP3   OH248578   0.875   6.080  12.299  0.0391  0.0144 -0.2347
 8128TIP3    H148579   0.843   6.014  12.361 -0.1837  0.1704 -0.1843
 8128TIP3    H248580   0.919   6.029  12.231 -0.3811 -0.2126 -0.3447
 8129TIP3   OH248581   1.967   6.076  11.109 -0.1651 -0.0814 -0.6833
 8129TIP3    H148582   1.911   6.064  11.186 -2.6353  0.1939 -2.3023
 8129TIP3    H248583   1.996   6.167  11.114  1.1201 -0.5405  0.7566
 8130TIP3   OH248584   5.740   3.458  11.553 -0.6560  0.3523 -0.4577
 8130TIP3    H148585   5.688   3.382  11.528 -0.1504 -0.4318  0.8130
 8130TIP3    H248586   5.803   3.469  11.481  0.5995 -1.7024  0.2398
 8131TIP3   OH248587   6.143   3.785   9.372  0.1690  0.4858 -0.1109
 8131TIP3    H148588   6.061   3.789   9.421  0.3437 -0.2726  0.2620
 8131TIP3    H248589   6.158   3.691   9.359  0.8283  0.6316 -0.4265
 8132TIP3   OH248590   2.900   5.685  12.761  0.0670 -0.2999 -0.0968
 8132TIP3    H148591   2.930   5.594  12.773 -0.0066 -0.3726 -0.4392
 8132TIP3    H248592   2.981   5.735  12.750  0.0701 -0.6432 -2.0060
 8133TIP3   OH248593   0.632   0.396  12.136 -0.2877 -0.2671 -0.6432
 8133TIP3    H148594   0.618   0.461  12.067  0.5388 -0.0391 -0.6088
 8133TIP3    H248595   0.722   0.410  12.164 -0.2338 -1.1589 -0.3402
 8134TIP3   OH248596   0.602   1.149  19.927 -1.0101  0.0393  0.4123
 8134TIP3    H148597   0.565   1.140  20.015 -2.1628  1.2413  0.0821
 8134TIP3    H248598   0.635   1.238  19.923 -1.9634  0.3693 -0.7167
 8135TIP3   OH248599   0.924   3.799  10.395 -0.2119  0.0621 -0.2379
 8135TIP3    H148600   1.008   3.759  10.372  0.3874  0.2209  1.5797
 8135TIP3    H248601   0.947   3.884  10.431 -1.1889  0.2984 -0.1486
 8136TIP3   OH248602   3.730   0.524  10.591 -0.2439 -0.0658  0.2172
 8136TIP3    H148603   3.798   0.590  10.601 -0.9045  0.5348  0.8608
 8136TIP3    H248604   3.776   0.446  10.559  0.5466  0.6953 -0.5539
 8137TIP3   OH248605   6.253   0.379   9.437  0.4287 -0.4913 -0.0448
 8137TIP3    H148606   6.228   0.288   9.423  1.5556 -1.0805  1.4618
 8137TIP3    H248607   6.171   0.425   9.453 -0.2562 -1.0025 -1.8851
 8138TIP3   OH248608   5.782   5.953   8.935 -0.0703  0.5925  0.2861
 8138TIP3    H148609   5.746   5.993   8.855 -0.1037  0.6910  0.3496
 8138TIP3    H248610   5.712   5.894   8.965 -0.5797  1.4975  0.9382
 8139TIP3   OH248611   4.940   3.175   9.692 -0.3377  0.3364  0.0617
 8139TIP3    H148612   4.875   3.105   9.696 -0.8133  0.7580 -0.0289
 8139TIP3    H248613   4.911   3.229   9.619  0.2821  0.3755 -0.1563
 8140TIP3   OH248614   2.452   2.342  10.444  0.8399 -0.0497 -0.2751
 8140TIP3    H148615   2.411   2.427  10.433 -0.5303 -0.7589 -0.9231
 8140TIP3    H248616   2.546   2.359  10.435  0.5530  1.2997 -0.9606
 8141TIP3   OH248617   1.803   6.355   9.547  0.0643  0.3747 -0.5171
 8141TIP3    H148618   1.874   6.348   9.482 -0.6875 -1.9448 -1.1971
 8141TIP3    H248619   1.848   6.374   9.629  1.1671  2.0127 -1.4525
 8142TIP3   OH248620   5.888   1.824  10.252  0.1909  0.0966 -0.3224
 8142TIP3    H148621   5.917   1.767  10.323  0.2216  0.1421 -0.2977
 8142TIP3    H248622   5.824   1.883  10.293 -1.0911 -0.9817 -0.7040
 8143TIP3   OH248623   1.068   3.322   9.912  0.6614  0.1119  0.5918
 8143TIP3    H148624   1.076   3.385   9.983 -0.7279  0.6807  0.2625
 8143TIP3    H248625   1.003   3.360   9.852 -1.2298 -2.1906  1.0306
 8144TIP3   OH248626   0.672   2.893  11.355  0.2490  0.5440  0.3790
 8144TIP3    H148627   0.689   2.819  11.413 -0.2382  0.5691  0.5622
 8144TIP3    H248628   0.604   2.943  11.400  0.3527  0.9332  0.1088
 8145TIP3   OH248629   2.741   1.446  10.549  0.3169 -0.3272  0.3863
 8145TIP3    H148630   2.645   1.452  10.550  0.3747  1.8473 -0.4672
 8145TIP3    H248631   2.761   1.403  10.466  0.0795  1.5233 -0.6900
 8146TIP3   OH248632   6.690   0.105   9.969 -0.1363  0.4196  0.1634
 8146TIP3    H148633   6.699   0.020   9.926  0.8448  0.8434 -0.5034
 8146TIP3    H248634   6.640   0.157   9.907  2.7480  1.5780 -1.3770
 8147TIP3   OH248635   3.119   2.714  11.720 -0.3294 -0.0280 -0.3351
 8147TIP3    H148636   3.082   2.626  11.715  2.5080 -1.3373 -0.0679
 8147TIP3    H248637   3.195   2.704  11.778  0.2432  2.5483 -0.5576
 8148TIP3   OH248638   4.039   2.783  10.537  0.2168  0.1366  0.5443
 8148TIP3    H148639   3.981   2.805  10.610 -2.9979  1.2236 -2.0458
 8148TIP3    H248640   4.076   2.867  10.511  0.8317 -0.1372  0.5365
 8149TIP3   OH248641   0.990   5.401  10.081 -0.3928  0.0688  0.2614
 8149TIP3    H148642   0.905   5.364  10.059  0.7263 -1.1964 -2.3367
 8149TIP3    H248643   1.000   5.384  10.175 -2.0814 -1.6992  0.1860
 8150TIP3   OH248644   6.229   2.009   9.662 -0.5687  0.2427 -0.3610
 8150TIP3    H148645   6.148   2.056   9.642  0.4981  2.0729 -0.6779
 8150TIP3    H248646   6.201   1.924   9.696 -2.5880  0.6608 -0.8906
 8151TIP3   OH248647   6.613   6.470  10.138 -0.2105  0.5033 -0.2040
 8151TIP3    H148648   6.669   6.393  10.148 -0.8433  0.0975  0.2466
 8151TIP3    H248649   6.662   6.540  10.181  0.9849  0.6738 -1.7806
 8152TIP3   OH248650   1.237   1.217  11.574 -0.3350  0.1645  0.3705
 8152TIP3    H148651   1.192   1.241  11.493  0.1538  1.5146  0.4773
 8152TIP3    H248652   1.192   1.267  11.642  0.9479  1.1084  0.5512
 8153TIP3   OH248653   0.873   4.904  10.071 -0.2289  0.2877  0.1480
 8153TIP3    H148654   0.863   4.992  10.037  2.1395  1.2274  1.6422
 8153TIP3    H248655   0.813   4.899  10.146  1.3431  1.5524  1.5618
 8154TIP3   OH248656   0.125   2.109   9.334  0.6772  0.2294  0.1450
 8154TIP3    H148657   0.052   2.069   9.382  0.9237 -0.6923 -0.2395
 8154TIP3    H248658   0.202   2.061   9.364  1.0782  0.9210  0.2355
 8155TIP3   OH248659   0.402   1.356  11.791 -0.4536 -0.3290  0.1895
 8155TIP3    H148660   0.320   1.402  11.812 -0.4631 -0.2125 -0.1010
 8155TIP3    H248661   0.417   1.374  11.698 -0.4871 -0.9683  0.0589
 8156TIP3   OH248662   3.200   4.383   9.710 -0.4149 -0.2584 -0.0423
 8156TIP3    H148663   3.273   4.332   9.745  0.7688 -0.0184 -2.0340
 8156TIP3    H248664   3.240   4.462   9.676 -1.5777 -0.1673 -1.2792
 8157TIP3   OH248665   0.470   5.913  11.289  0.0958  0.3685 -0.5419
 8157TIP3    H148666   0.508   5.825  11.290  0.2417  0.4318  0.3245
 8157TIP3    H248667   0.453   5.933  11.381 -2.1346  0.3167 -0.8905
 8158TIP3   OH248668   2.738   3.431   9.682  0.8457 -0.1880 -0.4245
 8158TIP3    H148669   2.701   3.466   9.601  1.0809 -0.3543 -0.6031
 8158TIP3    H248670   2.793   3.358   9.654  0.0413 -0.9563 -0.0092
 8159TIP3   OH248671   2.813   1.040  13.294 -0.4687  0.3334 -0.3694
 8159TIP3    H148672   2.894   0.992  13.309 -0.7073  0.3565  1.0975
 8159TIP3    H248673   2.841   1.123  13.256  0.1417  0.0609 -0.5274
 8160TIP3   OH248674   0.243   0.459  10.146  0.2248 -0.5187 -0.1876
 8160TIP3    H148675   0.208   0.548  10.142  2.0544  0.3740  1.6948
 8160TIP3    H248676   0.288   0.447  10.062 -1.5362 -0.4246 -1.2109
 8161TIP3   OH248677   0.668   1.793  10.348 -0.1603 -0.2079 -0.1438
 8161TIP3    H148678   0.663   1.829  10.259  1.7870 -0.0167 -0.2099
 8161TIP3    H248679   0.725   1.853  10.395 -2.4637  0.6494  1.7840
 8162TIP3   OH248680   0.295   5.088  12.198  0.3436  0.1332  0.2350
 8162TIP3    H148681   0.329   5.134  12.275  0.8579 -1.1338  0.7880
 8162TIP3    H248682   0.365   5.095  12.133  0.7122 -0.4522  0.5603
 8163TIP3   OH248683   2.571   3.071  10.702 -0.4412  0.1932  0.2279
 8163TIP3    H148684   2.524   3.024  10.772 -1.5220 -0.8142 -1.1245
 8163TIP3    H248685   2.654   3.095  10.742 -0.7717 -0.9128  1.6833
 8164TIP3   OH248686   0.648   1.668  12.201  0.0365 -0.0323 -0.0388
 8164TIP3    H148687   0.610   1.755  12.202 -1.4650 -0.6366  2.1462
 8164TIP3    H248688   0.582   1.612  12.241  1.5578 -1.9117 -0.0024
 8165TIP3   OH248689   2.023   1.787   9.832 -0.0421 -0.8205 -0.1490
 8165TIP3    H148690   1.955   1.842   9.793  0.7991 -0.5860 -1.3411
 8165TIP3    H248691   2.039   1.827   9.918 -1.2867 -0.8021  0.1029
 8166TIP3   OH248692   5.629   1.916  11.411  0.2283 -0.2954 -0.3199
 8166TIP3    H148693   5.706   1.886  11.459  0.0150  0.9156  0.8350
 8166TIP3    H248694   5.556   1.870  11.451 -0.3241  2.7750  2.6464
 8167TIP3   OH248695   6.186   6.517  10.426 -0.2897 -0.0110  0.1807
 8167TIP3    H148696   6.162   6.447  10.366  0.1474 -0.0522  0.0486
 8167TIP3    H248697   6.268   6.552  10.391  1.4211 -1.7593  2.1437
 8168TIP3   OH248698   2.758   0.925   9.814  0.0374  0.7281 -0.5985
 8168TIP3    H148699   2.782   0.912   9.905  2.1027  0.3705 -1.1422
 8168TIP3    H248700   2.786   0.845   9.770 -2.5708  0.1167 -1.3012
 8169TIP3   OH248701   0.670   1.169  11.103 -0.0043 -0.3543 -0.3373
 8169TIP3    H148702   0.595   1.127  11.062 -1.3498  1.3020  0.3304
 8169TIP3    H248703   0.656   1.263  11.089  2.7651 -0.0089 -1.5921
 8170TIP3   OH248704   0.921   5.523   9.473 -0.4527  0.4104  0.2498
 8170TIP3    H148705   0.875   5.540   9.556  0.6379 -0.0372  0.9610
 8170TIP3    H248706   0.938   5.610   9.437 -1.4115  0.5938  0.2161
 8171TIP3   OH248707   5.946   1.042  11.582 -0.5671  0.2080  0.6302
 8171TIP3    H148708   5.957   0.995  11.500 -2.9450  0.3696  0.1392
 8171TIP3    H248709   6.025   1.096  11.590  0.3768 -0.9095 -0.7825
 8172TIP3   OH248710   3.293   4.514  10.865 -0.0818  0.0888 -0.0951
 8172TIP3    H148711   3.269   4.435  10.818 -1.8878  0.3400  0.3263
 8172TIP3    H248712   3.257   4.586  10.812 -2.5238  0.3597  1.7160
 8173TIP3   OH248713   3.822   3.493  10.928 -0.3743 -0.2495  0.0769
 8173TIP3    H148714   3.761   3.561  10.898 -0.4696 -0.5455 -0.3956
 8173TIP3    H248715   3.780   3.457  11.007 -0.1514  0.4790  0.5357
 8174TIP3   OH248716   0.977   6.317  11.150  0.1931  0.3949  0.4322
 8174TIP3    H148717   0.950   6.383  11.086 -0.1948  0.1256  0.3144
 8174TIP3    H248718   0.960   6.358  11.235  2.3498  1.4529  0.4297
 8175TIP3   OH248719   0.675   2.320  10.717 -0.0970  0.0037  0.1088
 8175TIP3    H148720   0.636   2.368  10.790 -0.1036  1.7641 -1.0092
 8175TIP3    H248721   0.755   2.368  10.697  2.4016 -3.0358  1.8068
 8176TIP3   OH248722   0.759   4.327   9.635 -0.3226 -0.7977 -0.2937
 8176TIP3    H148723   0.747   4.238   9.603  0.4704 -0.9823 -0.0889
 8176TIP3    H248724   0.838   4.323   9.688 -0.1585  0.0733 -0.4615
 8177TIP3   OH248725   0.961   1.860  10.682 -0.2935  0.4209 -0.2889
 8177TIP3    H148726   0.907   1.939  10.677  0.1736  0.6713 -2.0796
 8177TIP3    H248727   0.899   1.789  10.696 -0.6434  1.1494  2.4240
 8178TIP3   OH248728   0.390   3.764  11.432  0.2508 -0.1133 -0.3809
 8178TIP3    H148729   0.351   3.676  11.438 -0.7261  0.3114 -0.2921
 8178TIP3    H248730   0.403   3.790  11.523  1.1193 -0.4073 -0.4153
 8179TIP3   OH248731   5.383   3.528   9.778  0.3091 -0.4000  0.3796
 8179TIP3    H148732   5.341   3.610   9.803 -3.4218 -2.7218  2.5745
 8179TIP3    H248733   5.314   3.477   9.735  2.7901 -2.0911 -1.9719
 8180TIP3   OH248734   1.477   1.483   9.572  0.3252 -0.2195 -0.3155
 8180TIP3    H148735   1.566   1.479   9.608  0.4972 -1.8186 -0.8004
 8180TIP3    H248736   1.472   1.405   9.516 -0.5006  1.2391 -2.3689
 8181TIP3   OH248737   5.815   3.188  12.082 -0.1748 -0.4664  0.0927
 8181TIP3    H148738   5.827   3.185  11.987  0.5143  2.3083  0.0108
 8181TIP3    H248739   5.880   3.126  12.116  1.4978  0.5052 -1.1653
 8182TIP3   OH248740   6.420   1.312   9.301  0.0723 -0.2551 -0.1302
 8182TIP3    H148741   6.462   1.395   9.282  1.0339 -1.2245 -2.7195
 8182TIP3    H248742   6.332   1.320   9.263  0.5983 -0.7874 -1.5432
 8183TIP3   OH248743   2.059   0.704  10.775  0.0286 -0.1952  0.0053
 8183TIP3    H148744   2.143   0.719  10.819 -0.2829 -0.5159  0.7332
 8183TIP3    H248745   2.059   0.765  10.701  1.5958 -1.3379 -0.9808
 8184TIP3   OH248746   3.673   6.371  11.177  0.2442  0.5161  0.0963
 8184TIP3    H148747   3.645   6.351  11.088 -0.6718 -0.2489  0.5293
 8184TIP3    H248748   3.597   6.414  11.217  0.5386  0.5825  0.5911
 8185TIP3   OH248749   0.307   5.256   9.294  0.2481  0.1198 -0.0078
 8185TIP3    H148750   0.344   5.332   9.247  0.7972  0.1324  0.4348
 8185TIP3    H248751   0.305   5.284   9.385 -0.1335 -0.1740  0.0712
 8186TIP3   OH248752   4.749   4.078   9.588  0.5278 -0.1095 -0.4246
 8186TIP3    H148753   4.782   3.989   9.576  0.9591  0.1209 -0.9880
 8186TIP3    H248754   4.767   4.122   9.505  0.3763  0.5259 -0.1292
 8187TIP3   OH248755   3.320   4.538  11.675 -0.3141 -0.3945  0.4830
 8187TIP3    H148756   3.369   4.614  11.707  0.5665  0.5360 -2.7107
 8187TIP3    H248757   3.386   4.468  11.669 -0.4619 -0.5521  0.7056
 8188TIP3   OH248758   5.635   2.314  10.808 -0.1156  0.6425 -0.5873
 8188TIP3    H148759   5.632   2.219  10.799 -0.8224  0.6690 -0.6983
 8188TIP3    H248760   5.559   2.345  10.758  1.0835  1.3914 -2.0042
 8189TIP3   OH248761   5.807   1.498  12.586 -0.0735 -0.1022  0.4144
 8189TIP3    H148762   5.842   1.410  12.572 -0.0921 -0.1717  0.8020
 8189TIP3    H248763   5.883   1.555  12.585 -0.1082 -0.0508 -0.3676
 8190TIP3   OH248764   2.011   6.110  11.814  0.1822  0.1929 -0.1077
 8190TIP3    H148765   1.993   6.200  11.841 -0.3286 -0.3781  1.5935
 8190TIP3    H248766   1.926   6.067  11.815  0.4077 -0.2996 -1.0252
 8191TIP3   OH248767   3.582   1.819   8.833  0.4575 -0.0360 -0.6378
 8191TIP3    H148768   3.638   1.842   8.907  0.4020 -0.5488 -0.4350
 8191TIP3    H248769   3.563   1.903   8.791 -1.3779  0.5568  1.2296
 8192TIP3   OH248770   0.405   2.816  11.509 -0.0040 -0.2299 -0.0632
 8192TIP3    H148771   0.417   2.723  11.491 -1.0379 -0.4166  0.1475
 8192TIP3    H248772   0.368   2.819  11.597 -0.7126  0.3325 -0.3717
 8193TIP3   OH248773   4.568   0.600   9.705  0.2475  0.1681  0.2491
 8193TIP3    H148774   4.579   0.519   9.655 -0.1850  0.0772  0.2942
 8193TIP3    H248775   4.543   0.666   9.640  0.3480  0.2071  0.2493
 8194TIP3   OH248776   6.124   0.184  12.587  0.6950  0.2277 -0.1153
 8194TIP3    H148777   6.128   0.132  12.668 -0.1407  0.2190 -0.0692
 8194TIP3    H248778   6.071   0.260  12.611  0.7818  0.4237 -0.5499
 8195TIP3   OH248779   0.432   5.977  11.542 -0.0409  0.3570  0.0238
 8195TIP3    H148780   0.469   6.050  11.592  0.3742 -0.2256  0.5907
 8195TIP3    H248781   0.474   5.899  11.579 -2.8865 -0.4989  1.7006
 8196TIP3   OH248782   0.568   1.558  10.666 -0.3016  0.2629 -0.1764
 8196TIP3    H148783   0.614   1.502  10.604 -1.0166 -1.0455  0.4255
 8196TIP3    H248784   0.615   1.547  10.748  0.3702  1.6376 -0.3488
 8197TIP3   OH248785   2.631   4.073  11.397 -0.0343  0.2505 -0.7324
 8197TIP3    H148786   2.647   4.164  11.421 -1.2783  0.4349 -0.5700
 8197TIP3    H248787   2.689   4.023  11.454 -0.1456  0.8835 -0.0485
 8198TIP3   OH248788   4.324   2.703  10.380 -0.6221  0.5799 -0.0518
 8198TIP3    H148789   4.327   2.780  10.323 -3.5697  0.1443 -0.9840
 8198TIP3    H248790   4.304   2.738  10.467 -0.3016  0.9738 -0.1359
 8199TIP3   OH248791   0.634   4.705  11.516  0.2320  0.6309  0.7117
 8199TIP3    H148792   0.639   4.700  11.611 -0.1096 -1.2035  0.6806
 8199TIP3    H248793   0.712   4.754  11.490  0.6494  0.6266  1.9025
 8200TIP3   OH248794   3.237   2.406   9.925 -0.1276 -0.2941 -0.0980
 8200TIP3    H148795   3.212   2.401  10.017 -1.2296 -1.5598 -0.4380
 8200TIP3    H248796   3.321   2.453   9.925  0.3916 -1.1415  1.6420
 8201TIP3   OH248797   4.455   2.401  10.508  0.1098 -0.1244  0.2187
 8201TIP3    H148798   4.415   2.446  10.433  2.2846 -0.5400 -1.2894
 8201TIP3    H248799   4.407   2.434  10.584 -2.8982 -0.4409 -1.3732
 8202TIP3   OH248800   0.120   0.389  10.757 -0.2031 -0.2808  0.7873
 8202TIP3    H148801   0.167   0.379  10.674 -0.9352  0.9503  0.1956
 8202TIP3    H248802   0.122   0.302  10.796  0.8254 -0.7043 -0.1561
 8203TIP3   OH248803   0.420   1.175   9.949 -0.0079 -0.2952  0.3236
 8203TIP3    H148804   0.470   1.133   9.880  0.9899  2.0540 -0.5058
 8203TIP3    H248805   0.336   1.197   9.908  0.5740  1.0745 -0.1847
 8204TIP3   OH248806   0.298   1.098  11.737 -0.3578 -0.0619  0.4664
 8204TIP3    H148807   0.224   1.145  11.696  1.1054  2.7388  0.7753
 8204TIP3    H248808   0.368   1.163  11.741  2.4413 -2.7547 -0.4425
 8205TIP3   OH248809   6.490   6.386  10.381 -0.2530  0.7041  0.4294
 8205TIP3    H148810   6.450   6.461  10.425 -2.2726  0.1601 -0.3314
 8205TIP3    H248811   6.525   6.422  10.300  0.0394  1.0521  0.7072
 8206TIP3   OH248812   4.072   3.255  10.037  0.0655 -0.1093  0.1616
 8206TIP3    H148813   4.160   3.254  10.075 -0.2048  0.0785  0.8132
 8206TIP3    H248814   4.034   3.337  10.068 -0.4638 -0.3608  0.1850
 8207TIP3   OH248815   0.447   1.072   9.179 -0.0044  0.6931  1.0090
 8207TIP3    H148816   0.455   1.132   9.104 -0.9965 -1.9051 -1.3432
 8207TIP3    H248817   0.371   1.018   9.159  0.0443 -0.5252  3.6581
 8208TIP3   OH248818   6.130   3.259  11.632 -0.0624 -0.0877  0.1509
 8208TIP3    H148819   6.138   3.352  11.651 -1.4126  0.1911 -0.4512
 8208TIP3    H248820   6.123   3.255  11.536 -1.5276 -0.6306  0.2433
 8209TIP3   OH248821   5.016   3.494   9.515 -0.0739  0.3707 -0.3003
 8209TIP3    H148822   4.953   3.521   9.582 -1.0350  0.6932 -1.3112
 8209TIP3    H248823   5.094   3.546   9.535  0.0920 -0.4243  1.2908
 8210TIP3   OH248824   6.321   3.353  10.819 -0.4155  0.2108  0.2603
 8210TIP3    H148825   6.306   3.428  10.876  0.3158  1.7173 -1.4335
 8210TIP3    H248826   6.408   3.321  10.844  0.0474  1.0735 -0.2012
 8211TIP3   OH248827   5.183   5.966   9.697  0.3443  0.3087 -0.0614
 8211TIP3    H148828   5.128   6.040   9.673  0.1505  0.5109  0.9863
 8211TIP3    H248829   5.145   5.933   9.778  2.1286  0.8501  1.0404
 8212TIP3   OH248830   0.932   0.468   9.581 -0.4864  0.3078 -0.2354
 8212TIP3    H148831   0.940   0.483   9.675  0.8710  2.2797 -0.6064
 8212TIP3    H248832   0.849   0.423   9.571 -0.2267 -0.7976  1.9827
 8213TIP3   OH248833   5.614   6.201  11.789  0.0055  0.0506 -0.1324
 8213TIP3    H148834   5.670   6.260  11.738  0.6869 -1.2941 -0.9883
 8213TIP3    H248835   5.674   6.159  11.851 -0.4901  0.2967  0.5261
 8214TIP3   OH248836   1.577   4.798  11.885 -0.3056  0.0079 -0.0707
 8214TIP3    H148837   1.539   4.767  11.967 -1.6118 -2.5490 -1.4985
 8214TIP3    H248838   1.670   4.813  11.905 -0.2720 -1.9857  1.5568
 8215TIP3   OH248839   5.592   2.513  11.679  0.2730 -0.4191  0.1417
 8215TIP3    H148840   5.670   2.495  11.627  1.7054  1.7107  1.3898
 8215TIP3    H248841   5.545   2.580  11.630  0.5096  0.0481  0.5487
 8216TIP3   OH248842   2.455   4.862  12.382 -0.1051 -0.0322  0.0307
 8216TIP3    H148843   2.550   4.869  12.392 -0.1865  0.2834  0.6020
 8216TIP3    H248844   2.428   4.800  12.450 -0.3014 -0.1997 -0.1960
 8217TIP3   OH248845   1.833   5.785  12.622  0.6755  0.2282  0.3835
 8217TIP3    H148846   1.827   5.825  12.709  1.3985  0.6534  0.2453
 8217TIP3    H248847   1.798   5.696  12.634 -2.2298  1.2480  0.4126
 8218TIP3   OH248848   4.202   3.408  10.334  0.1179  0.1157  0.3677
 8218TIP3    H148849   4.237   3.361  10.258 -0.5549  0.9412 -0.4830
 8218TIP3    H248850   4.247   3.369  10.409  1.3488 -0.2251 -0.5061
 8219TIP3   OH248851   6.524   2.990  11.085 -0.3427  0.0903 -0.0273
 8219TIP3    H148852   6.540   2.903  11.121 -0.5778  0.9289  2.3253
 8219TIP3    H248853   6.454   2.977  11.021  0.5101 -1.6088 -0.6798
 8220TIP3   OH248854   3.971   0.565  12.375  0.1289 -0.1174 -0.1166
 8220TIP3    H148855   3.944   0.552  12.466 -1.5181 -1.2101 -0.7084
 8220TIP3    H248856   3.973   0.477  12.338  2.6142  0.1134 -0.7036
 8221TIP3   OH248857   1.393   6.070  10.231 -0.0678  0.1938  0.1377
 8221TIP3    H148858   1.376   5.983  10.265 -2.4588  0.6928  0.4096
 8221TIP3    H248859   1.487   6.083  10.242  0.8705 -3.2478 -2.1494
 8222TIP3   OH248860   3.387   3.224   9.411 -0.2905  0.2943  0.0215
 8222TIP3    H148861   3.398   3.135   9.377 -1.2782  0.1613  0.0189
 8222TIP3    H248862   3.297   3.227   9.443 -0.6487  1.6101 -0.9772
 8223TIP3   OH248863   3.335   1.441   9.486  1.0796  0.1524 -0.4174
 8223TIP3    H148864   3.257   1.395   9.455 -0.2352  2.6484 -1.0889
 8223TIP3    H248865   3.304   1.491   9.562  2.0934  0.9753 -0.5247
 8224TIP3   OH248866   1.272   0.892  12.443 -0.3410  0.4660  0.0944
 8224TIP3    H148867   1.277   0.987  12.454  0.0883  0.5547 -0.8012
 8224TIP3    H248868   1.242   0.860  12.528  0.6848  1.2909  0.7833
 8225TIP3   OH248869   6.103   0.382  10.365 -0.8161 -0.6163 -0.1902
 8225TIP3    H148870   6.078   0.311  10.305 -0.3859 -1.0449  0.1378
 8225TIP3    H248871   6.118   0.339  10.449 -0.3127 -0.1708 -0.0483
 8226TIP3   OH248872   1.310   0.473  12.341 -0.1544  0.0363  0.0609
 8226TIP3    H148873   1.392   0.499  12.381  0.3318 -1.4966  0.1200
 8226TIP3    H248874   1.271   0.411  12.403 -0.7572 -0.1974 -0.5301
 8227TIP3   OH248875   2.515   3.860   9.814  0.0096  0.1761  0.2756
 8227TIP3    H148876   2.435   3.860   9.867 -0.4161  1.4071 -0.3292
 8227TIP3    H248877   2.496   3.921   9.742  1.4476  0.3959  0.0607
 8228TIP3   OH248878   1.732   6.324  11.636  0.6313 -0.6830 -0.0483
 8228TIP3    H148879   1.731   6.335  11.541  3.0475 -1.5620 -0.2573
 8228TIP3    H248880   1.701   6.235  11.650 -0.0162 -0.4483  0.0142
 8229TIP3   OH248881   4.448   5.938  10.731 -0.4222 -0.8693  0.4429
 8229TIP3    H148882   4.417   6.020  10.771  1.6237  0.0382  0.2781
 8229TIP3    H248883   4.488   5.966  10.649  0.4346 -2.0280  0.4498
 8230TIP3   OH248884   0.111   5.989  10.141  0.0599  0.2422  0.1551
 8230TIP3    H148885   0.055   5.921  10.180  0.5273 -0.9523 -1.2111
 8230TIP3    H248886   0.178   5.941  10.093  1.4970  1.6722  0.6439
 8231TIP3   OH248887   1.282   0.740  10.758  0.0532 -0.4888  0.3929
 8231TIP3    H148888   1.371   0.712  10.781  0.4728  1.3272  1.1422
 8231TIP3    H248889   1.294   0.827  10.721 -1.5787  0.5978  2.2421
 8232TIP3   OH248890   3.673   1.717  11.853  0.0579 -0.5068 -0.3132
 8232TIP3    H148891   3.668   1.798  11.904  0.4459  0.0393 -1.1232
 8232TIP3    H248892   3.619   1.655  11.902  2.1165 -0.6523  1.9199
 8233TIP3   OH248893   2.505   1.715  10.703  0.7935 -0.2183  0.3519
 8233TIP3    H148894   2.449   1.774  10.652  0.6313  0.5334  1.3584
 8233TIP3    H248895   2.498   1.631  10.659  0.7030  0.4064 -0.8896
 8234TIP3   OH248896   5.928   4.821  10.941 -0.0110  0.0588  0.1192
 8234TIP3    H148897   5.957   4.875  11.015  1.3007  1.0004 -1.0284
 8234TIP3    H248898   5.834   4.813  10.954 -0.3512  2.9623  0.1804
 8235TIP3   OH248899   0.066   2.946  10.944  0.7349 -0.4257 -0.3348
 8235TIP3    H148900   0.005   2.873  10.950 -0.3247  0.4778  0.2451
 8235TIP3    H248901   0.139   2.922  11.001  0.5937 -1.1955 -0.4705
 8236TIP3   OH248902   2.102   1.369  11.035 -0.3017 -0.1904 -0.2189
 8236TIP3    H148903   2.095   1.288  11.085  1.1277 -1.5618 -2.0947
 8236TIP3    H248904   2.137   1.433  11.097  1.8138 -1.9411  0.5082
 8237TIP3   OH248905   0.902   3.044  11.335  0.1880 -0.0305 -0.4545
 8237TIP3    H148906   0.913   3.061  11.428 -1.9286  1.0941 -0.3433
 8237TIP3    H248907   0.818   2.997  11.330 -0.1073  0.6055 -1.8276
 8238TIP3   OH248908   1.913   1.737  12.860  0.1578 -0.1632 -0.0374
 8238TIP3    H148909   1.969   1.668  12.895 -0.1422 -0.7228 -0.6491
 8238TIP3    H248910   1.828   1.723  12.902  0.5222  0.8799  1.1371
 8239TIP3   OH248911   4.705   1.757  11.194 -0.0434  0.0457 -0.3655
 8239TIP3    H148912   4.626   1.775  11.246 -0.5434  0.7375 -1.3244
 8239TIP3    H248913   4.710   1.662  11.191  0.5407 -0.0331  1.7280
 8240TIP3   OH248914   0.051   0.651  10.735 -0.3965 -0.2263  0.7358
 8240TIP3    H148915   0.093   0.565  10.741 -0.9985 -0.4882  1.5045
 8240TIP3    H248916  -0.025   0.637  10.678 -0.5534 -0.2361  0.9445
 8241TIP3   OH248917   6.486   2.935  11.953  0.0705 -0.5694 -0.0983
 8241TIP3    H148918   6.536   3.016  11.959 -0.8000  0.0192 -0.5135
 8241TIP3    H248919   6.550   2.865  11.965  0.6005  0.1965  1.8365
 8242TIP3   OH248920   6.650   3.609   9.408  0.2928  0.1986  0.3226
 8242TIP3    H148921   6.740   3.584   9.389  0.9385  1.6476  1.3169
 8242TIP3    H248922   6.603   3.526   9.419  1.6272 -0.5630  0.3855
 8243TIP3   OH248923   4.946   4.195  12.559  0.5082 -0.0651  0.7590
 8243TIP3    H148924   4.995   4.274  12.584 -0.8687  1.2139 -0.3588
 8243TIP3    H248925   4.857   4.211  12.590  0.1258 -1.0130  0.1920
 8244TIP3   OH248926   3.592   4.520  11.922  0.3853 -0.3934 -0.5091
 8244TIP3    H148927   3.668   4.568  11.889  0.5745  0.3976  0.9693
 8244TIP3    H248928   3.618   4.494  12.011 -0.1748 -2.2301 -0.8611
 8245TIP3   OH248929   5.938   4.936  10.710  0.5200  0.3082  0.2355
 8245TIP3    H148930   6.011   4.914  10.653  0.9003  0.7097  0.5598
 8245TIP3    H248931   5.944   4.871  10.781  0.0629 -0.1747 -0.1629
 8246TIP3   OH248932   6.019   0.825  10.996  0.0456 -0.7381 -0.3776
 8246TIP3    H148933   6.105   0.809  11.037  0.4006 -2.4992 -1.7054
 8246TIP3    H248934   5.984   0.738  10.979 -1.1620 -0.0379 -1.6186
 8247TIP3   OH248935   2.896   1.334  10.088  0.6953 -0.1138  0.1821
 8247TIP3    H148936   2.984   1.322  10.052  0.1965 -0.1825 -1.0643
 8247TIP3    H248937   2.865   1.245  10.105 -0.0208 -0.2441 -1.6408
 8248TIP3   OH248938   6.710   5.852  12.038 -0.1021 -0.2285  0.0804
 8248TIP3    H148939   6.803   5.836  12.021  0.0034 -0.5332  0.9063
 8248TIP3    H248940   6.681   5.776  12.088 -0.8885 -0.3017 -0.4694
 8249TIP3   OH248941   5.834   6.686  10.630 -0.1487  0.2185  0.3213
 8249TIP3    H148942   5.916   6.644  10.656 -0.2526  0.8519  1.7799
 8249TIP3    H248943   5.835   6.683  10.534  2.3158  1.5429  0.2246
 8250TIP3   OH248944   4.035   2.479  10.964 -0.1683  0.0541  0.5174
 8250TIP3    H148945   4.031   2.472  10.869  2.2432 -0.5706  0.3982
 8250TIP3    H248946   4.091   2.407  10.991  0.3794  1.0822  2.2826
 8251TIP3   OH248947   0.565   4.972  11.778  0.1285  0.3831 -0.4537
 8251TIP3    H148948   0.637   4.989  11.718 -0.0534  2.5973 -0.1336
 8251TIP3    H248949   0.567   4.877  11.792  0.9363 -0.0350 -2.9408
 8252TIP3   OH248950   4.901   5.158  11.475  0.1766 -0.2022  0.0473
 8252TIP3    H148951   4.818   5.158  11.426  0.1311  0.4313  0.1225
 8252TIP3    H248952   4.968   5.159  11.407  0.1518 -1.7740 -0.0385
 8253TIP3   OH248953   0.346   4.987  10.396 -0.3642  0.6825 -0.5632
 8253TIP3    H148954   0.288   5.060  10.373  0.7548  1.4367 -1.0838
 8253TIP3    H248955   0.387   4.963  10.313 -0.8217 -0.6454 -0.4184
 8254TIP3   OH248956   5.493   3.035  10.569 -0.0990  0.5032  0.6332
 8254TIP3    H148957   5.456   3.090  10.499 -2.7698  0.4931  1.9217
 8254TIP3    H248958   5.482   3.087  10.648 -1.6562 -1.3402  1.7212
 8255TIP3   OH248959   0.113   2.388   9.447 -0.4485 -0.1678  0.0588
 8255TIP3    H148960   0.140   2.418   9.360 -1.2130  0.2965 -0.0273
 8255TIP3    H248961   0.067   2.305   9.431  0.2680 -0.5839  0.1287
 8256TIP3   OH248962   6.017   5.216  10.514  0.5386  0.6704  0.3728
 8256TIP3    H148963   6.013   5.295  10.569  1.5912  1.7098 -0.9774
 8256TIP3    H248964   6.057   5.150  10.571 -0.0069  1.2006  1.4064
 8257TIP3   OH248965   3.551   3.402   9.741  0.1140  0.6267 -0.1365
 8257TIP3    H148966   3.522   3.482   9.698  0.6774  0.1841 -1.4033
 8257TIP3    H248967   3.550   3.423   9.834  0.1649  2.0756 -0.4385
 8258TIP3   OH248968   0.088   0.203   9.622  0.8465 -0.9237 -0.1827
 8258TIP3    H148969   0.156   0.258   9.583  2.1497 -0.8757  2.0219
 8258TIP3    H248970   0.011   0.260   9.626  1.6170  0.1228  0.2691
 8259TIP3   OH248971   0.501   1.273   9.001  0.1939 -0.1466  0.5421
 8259TIP3    H148972   0.583   1.258   8.954 -1.5330  0.2313 -2.8455
 8259TIP3    H248973   0.495   1.368   9.011 -0.4625 -0.0567 -0.5507
 8260TIP3   OH248974   6.696   3.516  12.381 -0.0408  0.1031  0.0360
 8260TIP3    H148975   6.661   3.430  12.407 -0.8074 -0.0136 -1.2980
 8260TIP3    H248976   6.774   3.527  12.435 -1.4711 -0.1545  2.2650
 8261TIP3   OH248977   4.991   2.135  12.237 -0.1229 -0.0117  0.3443
 8261TIP3    H148978   5.047   2.136  12.315  0.2562 -0.4213  0.0839
 8261TIP3    H248979   4.942   2.053  12.244 -1.2744  0.7049  0.9656
 8262TIP3   OH248980   2.191   1.014   8.998 -0.3788 -0.3411 -0.1101
 8262TIP3    H148981   2.192   0.941   8.936  0.8519  0.2703 -0.8827
 8262TIP3    H248982   2.274   1.006   9.045 -1.6561 -1.2655  2.1061
 8263TIP3   OH248983   5.185   0.537  10.079 -0.1479  0.6760  0.6108
 8263TIP3    H148984   5.103   0.585  10.070 -0.9125 -0.3302  1.8795
 8263TIP3    H248985   5.199   0.496   9.993 -1.9076 -0.5431  0.8584
 8264TIP3   OH248986   4.243   0.149   9.904  0.0671 -0.6620 -0.1268
 8264TIP3    H148987   4.268   0.238   9.930  2.6054 -0.7844 -1.8073
 8264TIP3    H248988   4.195   0.115   9.980 -2.5067  2.6421 -0.0504
 8265TIP3   OH248989   4.652   0.688  11.236 -0.1546  0.4200 -0.5333
 8265TIP3    H148990   4.696   0.769  11.265  0.5265 -0.1298  0.0030
 8265TIP3    H248991   4.579   0.677  11.297  1.1143 -0.5861  0.8683
 8266TIP3   OH248992   0.742   5.767  10.994  0.1850  0.3162 -0.1036
 8266TIP3    H148993   0.680   5.710  10.949  0.0030 -0.9759  1.6794
 8266TIP3    H248994   0.708   5.855  10.980 -1.2368 -0.2485 -0.3706
 8267TIP3   OH248995   1.259   2.099  10.900  0.0561 -0.5158 -0.4035
 8267TIP3    H148996   1.178   2.080  10.852 -0.1448  1.5647 -0.9604
 8267TIP3    H248997   1.326   2.107  10.832 -0.3079  2.8649 -0.5080
 8268TIP3   OH248998   5.263   1.378  11.432 -0.0278  0.4577 -0.0562
 8268TIP3    H148999   5.348   1.422  11.431 -0.8384  2.3989 -3.8419
 8268TIP3    H249000   5.271   1.309  11.367 -1.2258  0.4699 -0.2429
 8269TIP3   OH249001   2.028   5.271  10.010 -0.2746 -0.0209 -0.2559
 8269TIP3    H149002   2.035   5.366  10.021  0.1244  0.1030 -1.4275
 8269TIP3    H249003   1.947   5.247  10.054 -0.4879  0.8949 -0.1392
 8270TIP3   OH249004   1.160   3.210  11.854  0.6022  0.4554  0.0030
 8270TIP3    H149005   1.151   3.257  11.771 -0.0854  0.5044  0.0974
 8270TIP3    H249006   1.241   3.243  11.892  1.4769 -0.3300 -1.1273
 8271TIP3   OH249007   5.253   2.696  10.862  0.6562  0.1840 -0.5748
 8271TIP3    H149008   5.301   2.743  10.793  0.1205  1.1233 -0.3237
 8271TIP3    H249009   5.295   2.609  10.865  0.3154 -0.0908 -2.4840
 8272TIP3   OH249010   0.578   3.229   9.274  0.3685 -0.0726  0.3506
 8272TIP3    H149011   0.497   3.267   9.239 -1.2738 -1.0076  2.8153
 8272TIP3    H249012   0.621   3.190   9.198 -1.8996 -0.2116 -0.9656
 8273TIP3   OH249013   4.336   6.578  10.500 -0.3975  0.6159 -0.4258
 8273TIP3    H149014   4.430   6.589  10.515 -0.4261  2.8665 -1.5631
 8273TIP3    H249015   4.330   6.540  10.413 -0.5578 -1.6532  0.4934
 8274TIP3   OH249016   3.000   5.559  11.806 -0.6088  0.1762 -0.1074
 8274TIP3    H149017   2.957   5.638  11.838  1.7688  2.3343 -1.7966
 8274TIP3    H249018   2.982   5.559  11.711  0.1734 -0.8443 -0.2762
 8275TIP3   OH249019   2.043   0.022  10.099 -0.3985 -0.6062  0.3503
 8275TIP3    H149020   2.021  -0.023  10.180 -2.4590  0.4696  0.4405
 8275TIP3    H249021   1.959   0.034  10.054  0.4083  0.7891 -0.8912
 8276TIP3   OH249022   0.833   1.991  12.774 -0.2968 -0.1125 -0.2007
 8276TIP3    H149023   0.857   2.049  12.701  0.0142  0.3073  0.2281
 8276TIP3    H249024   0.835   2.048  12.851  0.1809 -0.7286  0.2525
 8277TIP3   OH249025   1.715   5.521  10.248 -0.8366 -0.1838 -0.4269
 8277TIP3    H149026   1.774   5.578  10.199  1.3861 -1.8522  0.1433
 8277TIP3    H249027   1.684   5.576  10.320 -0.5140  0.9517 -1.1238
 8278TIP3   OH249028   3.980   1.810  10.671 -0.3260 -0.2342 -1.4378
 8278TIP3    H149029   4.033   1.767  10.739 -0.5340  0.5561 -0.7536
 8278TIP3    H249030   3.912   1.746  10.649 -0.4279 -0.3925 -0.6841
 8279TIP3   OH249031   5.914   6.220  10.077  0.2426 -0.3067 -0.0745
 8279TIP3    H149032   5.975   6.147  10.065  0.6662  0.1200 -0.5883
 8279TIP3    H249033   5.864   6.198  10.155  0.7078 -0.9096  0.0555
 8280TIP3   OH249034   1.104   2.747   9.650  0.5508  0.3911  0.0639
 8280TIP3    H149035   1.113   2.714   9.561  0.9798  0.5666  0.0404
 8280TIP3    H249036   1.154   2.686   9.703  1.6153  1.1683 -0.0196
 8281TIP3   OH249037   3.082   2.033  10.817 -0.1618 -0.2847  0.3287
 8281TIP3    H149038   2.990   2.050  10.795 -0.5614 -0.9711  1.3896
 8281TIP3    H249039   3.092   1.938  10.808  0.6139 -0.1481 -0.3630
 8282TIP3   OH249040   3.419   4.098  12.074  0.1235 -0.3148 -0.5513
 8282TIP3    H149041   3.352   4.075  12.139 -1.5498  1.6295 -1.4653
 8282TIP3    H249042   3.462   4.175  12.111  0.5805 -0.4398 -0.8198
 8283TIP3   OH249043   0.480   6.191  11.731  0.6511 -0.2164  0.2872
 8283TIP3    H149044   0.429   6.150  11.801  0.1602  0.0729  0.0956
 8283TIP3    H249045   0.517   6.269  11.772  1.7167 -0.8963  0.6997
 8284TIP3   OH249046   2.487   3.396  10.928 -0.0867  0.4914  0.0732
 8284TIP3    H149047   2.425   3.350  10.985  1.0382 -3.0800 -1.3298
 8284TIP3    H249048   2.554   3.429  10.988 -0.8175  0.0704  1.1500
 8285TIP3   OH249049   2.951   6.445   9.396  0.0991  0.4860  0.1063
 8285TIP3    H149050   2.891   6.394   9.451 -1.2143  0.8835 -0.8922
 8285TIP3    H249051   2.922   6.536   9.410  0.2833  0.6544 -0.6106
 8286TIP3   OH249052   1.376   2.140  10.484  0.6400  0.1379  0.1183
 8286TIP3    H149053   1.391   2.146  10.578  0.1923 -0.4475  0.2306
 8286TIP3    H249054   1.304   2.078  10.474  1.1082 -0.3072 -0.6451
 8287TIP3   OH249055   0.961   2.269  10.491  0.3281 -0.1438  0.0107
 8287TIP3    H149056   0.923   2.248  10.406  1.9757 -1.5186 -0.4306
 8287TIP3    H249057   1.022   2.197  10.509  2.5215  1.7885  0.7799
 8288TIP3   OH249058   0.313   4.468  10.478  0.0520  0.2466  0.4840
 8288TIP3    H149059   0.281   4.543  10.427  0.4704 -0.6383 -1.1515
 8288TIP3    H249060   0.401   4.452  10.445  0.7407  0.2455  2.2286
 8289TIP3   OH249061   2.921   4.150  11.995  0.2399  0.5241  0.0692
 8289TIP3    H149062   2.999   4.149  11.940  0.5725  1.0531  0.5186
 8289TIP3    H249063   2.955   4.153  12.084 -0.2953 -0.0073  0.2974
 8290TIP3   OH249064   6.480   2.183  11.948  0.1184 -0.1599 -0.2390
 8290TIP3    H149065   6.409   2.215  12.002  0.6330 -0.3436  0.5604
 8290TIP3    H249066   6.471   2.087  11.951  1.1055 -0.2384  0.8655
 8291TIP3   OH249067   2.941   5.515  19.042 -0.1470  0.1309  0.2227
 8291TIP3    H149068   3.036   5.524  19.033 -0.0134 -1.3029 -0.0691
 8291TIP3    H249069   2.914   5.468  18.964 -1.1426  0.7162  0.2010
 8292TIP3   OH249070   4.591   3.163   9.990 -0.5128 -0.3734  0.1214
 8292TIP3    H149071   4.601   3.153  10.085  2.4410  0.0811 -0.0619
 8292TIP3    H249072   4.544   3.246   9.980  0.6666  0.4707  1.2195
 8293TIP3   OH249073   4.469   6.281   9.441  0.9615 -0.0005 -0.2403
 8293TIP3    H149074   4.478   6.374   9.460  0.5999 -0.1285  0.6325
 8293TIP3    H249075   4.397   6.252   9.497  0.6033 -0.6642 -1.0203
 8294TIP3   OH249076   2.054   3.774  11.741 -0.3779 -0.4306  0.0535
 8294TIP3    H149077   2.122   3.842  11.741  0.7483 -1.5017  0.7130
 8294TIP3    H249078   2.060   3.735  11.828 -3.3108  0.7944  0.9224
 8295TIP3   OH249079   2.522   4.018  12.201 -0.4858 -0.3446 -0.0592
 8295TIP3    H149080   2.607   4.034  12.241 -1.2196 -0.2162  1.5500
 8295TIP3    H249081   2.488   3.941  12.247 -2.1420  0.9032  0.8944
 8296TIP3   OH249082   5.812   1.310  11.677 -0.2830  0.2009 -0.1067
 8296TIP3    H149083   5.813   1.367  11.600  1.2621  0.7930  0.2989
 8296TIP3    H249084   5.905   1.289  11.692 -0.3829  1.1895  2.3489
 8297TIP3   OH249085   2.141   0.317  11.222 -0.0166 -0.4120  0.6329
 8297TIP3    H149086   2.137   0.275  11.136 -1.2817 -0.1459  0.5430
 8297TIP3    H249087   2.171   0.405  11.204  2.4094 -1.1378  0.7952
 8298TIP3   OH249088   4.831   5.834   9.465  0.2035 -0.2363 -0.1957
 8298TIP3    H149089   4.748   5.882   9.472 -0.7571 -0.7283 -4.6687
 8298TIP3    H249090   4.898   5.903   9.460 -0.5899  0.4971 -1.5218
 8299TIP3   OH249091   4.674   3.138  11.043  0.2450  0.1191 -0.1393
 8299TIP3    H149092   4.727   3.173  11.114 -0.4965  2.3065 -0.5676
 8299TIP3    H249093   4.633   3.059  11.079  0.2984  0.8870  1.6844
 8300TIP3   OH249094   4.887   1.245  11.114  0.5323 -0.2758  0.4734
 8300TIP3    H149095   4.956   1.198  11.160  0.2552 -1.6537 -0.4249
 8300TIP3    H249096   4.841   1.176  11.065 -1.5241  0.5762  1.1035
 8301TIP3   OH249097   3.707   4.171  11.123 -0.2965  0.3926  0.0896
 8301TIP3    H149098   3.629   4.204  11.169 -1.1036 -1.0005 -0.2244
 8301TIP3    H249099   3.774   4.165  11.191 -0.8163  0.4717  0.6160
 8302TIP3   OH249100   2.233   5.437  12.725  0.2382  0.3157  0.1513
 8302TIP3    H149101   2.261   5.387  12.802 -1.0660  2.4280  2.1228
 8302TIP3    H249102   2.231   5.528  12.755 -0.8098  1.1624 -2.2523
 8303TIP3   OH249103   2.079   2.112   9.738 -0.1636 -0.6997 -0.4540
 8303TIP3    H149104   2.054   2.140   9.826 -1.5931  0.3329 -1.1552
 8303TIP3    H249105   2.161   2.064   9.751  1.0885  1.6548  1.1444
 8304TIP3   OH249106   5.007   3.090  10.244  0.6045 -0.1687 -0.0478
 8304TIP3    H149107   5.077   3.078  10.180 -0.1124 -0.4507 -0.8043
 8304TIP3    H249108   4.942   3.023  10.221  1.0283 -1.3691  1.9777
 8305TIP3   OH249109   6.675   5.581  12.103  0.0631 -0.1514 -0.3878
 8305TIP3    H149110   6.584   5.552  12.106  0.2876 -0.8467 -0.0020
 8305TIP3    H249111   6.717   5.534  12.175  0.6848  0.3180 -0.4362
 8306TIP3   OH249112   3.275   1.320  10.591 -0.2591 -0.3736  0.0136
 8306TIP3    H149113   3.289   1.332  10.497  1.3208  1.3021  0.4116
 8306TIP3    H249114   3.180   1.316  10.600 -0.5109  1.0877 -1.4997
 8307TIP3   OH249115   3.086   2.617  10.305  0.2387 -0.1500  0.0940
 8307TIP3    H149116   3.051   2.705  10.293  0.7539  0.0767  0.2110
 8307TIP3    H249117   3.181   2.628  10.296  0.1801 -1.0981 -2.4273
 8308TIP3   OH249118   0.514   6.182   9.120 -0.1859  0.3912  0.2737
 8308TIP3    H149119   0.489   6.272   9.140  1.1557  0.6026  1.1056
 8308TIP3    H249120   0.585   6.163   9.181  0.9965 -0.5088 -1.3238
 8309TIP3   OH249121   6.366   2.889  11.692 -0.0507 -0.2570  0.1950
 8309TIP3    H149122   6.370   2.794  11.702  0.5283 -0.3238 -0.5791
 8309TIP3    H249123   6.403   2.923  11.773  0.4446 -0.7072  0.1660
 8310TIP3   OH249124   4.315   1.499  12.027  0.1994 -0.2573  0.0528
 8310TIP3    H149125   4.391   1.474  12.081  1.5087  1.4811 -0.8912
 8310TIP3    H249126   4.248   1.524  12.091  0.6613 -1.0826  0.8999
 8311TIP3   OH249127   5.784   4.073  10.851  0.2818  0.3698  0.1172
 8311TIP3    H149128   5.718   4.131  10.889 -0.6640 -1.3495  1.1665
 8311TIP3    H249129   5.855   4.072  10.915 -0.5088 -1.0502  1.0204
 8312TIP3   OH249130   1.277   2.114   9.835  0.0940 -0.3435 -0.3619
 8312TIP3    H149131   1.294   2.039   9.778  1.5856  0.6738 -1.3385
 8312TIP3    H249132   1.296   2.190   9.780 -0.4626  0.7278  0.8813
 8313TIP3   OH249133   5.804   6.096  11.957 -0.1383  0.0033  0.3558
 8313TIP3    H149134   5.751   6.096  12.037  0.3850  0.8996  0.7161
 8313TIP3    H249135   5.836   6.006  11.949 -0.6270 -0.2193  0.8599
 8314TIP3   OH249136   1.615   5.668  10.478 -0.1772 -0.3946 -0.6988
 8314TIP3    H149137   1.574   5.586  10.505  0.9360  0.0687  2.8832
 8314TIP3    H249138   1.546   5.734  10.489  0.3202 -0.1738  1.6128
 8315TIP3   OH249139   3.638   4.351  10.467  0.5462 -0.3662  0.3250
 8315TIP3    H149140   3.583   4.284  10.429  1.5198 -1.8924  1.4733
 8315TIP3    H249141   3.724   4.339  10.426  0.9949 -0.5199  1.2644
 8316TIP3   OH249142   5.650   5.890  11.781  0.0251  0.1123  0.6862
 8316TIP3    H149143   5.555   5.881  11.777  0.1002 -0.6470  0.3329
 8316TIP3    H249144   5.673   5.940  11.703 -0.2037  1.5608  1.5190
 8317TIP3   OH249145   6.677   3.117  11.295  0.0408  0.3458 -0.3782
 8317TIP3    H149146   6.611   3.109  11.226 -1.5224  0.5365  1.0388
 8317TIP3    H249147   6.673   3.035  11.343  1.0501  0.2465 -0.4312
 8318TIP3   OH249148   4.633   6.422  11.911 -0.0731 -0.4808  0.2149
 8318TIP3    H149149   4.691   6.361  11.957  1.2725  1.2858  0.9703
 8318TIP3    H249150   4.682   6.504  11.908 -1.5101  0.3874 -1.4403
 8319TIP3   OH249151   1.243   2.674  11.871 -0.2068 -0.0777  0.1543
 8319TIP3    H149152   1.306   2.683  11.800 -0.1204 -0.1205  0.2271
 8319TIP3    H249153   1.271   2.737  11.937 -0.5330  0.2628 -0.0324
 8320TIP3   OH249154   1.210   5.641  11.763 -0.6626 -0.0639  0.4838
 8320TIP3    H149155   1.288   5.591  11.788 -0.3411  0.5394  0.7092
 8320TIP3    H249156   1.243   5.726  11.737 -1.0666 -0.4040 -1.2985
 8321TIP3   OH249157   0.511   6.444   9.195 -0.2083 -0.2960  0.1758
 8321TIP3    H149158   0.455   6.422   9.270 -1.4725 -1.3069 -0.9940
 8321TIP3    H249159   0.579   6.500   9.231 -1.0265 -0.3929  1.9914
 8322TIP3   OH249160   5.734   1.074  12.566 -0.2750  0.5016  0.8401
 8322TIP3    H149161   5.761   0.985  12.542  1.3057  0.4842  2.4818
 8322TIP3    H249162   5.728   1.073  12.661 -0.5624  2.0819  0.8728
 8323TIP3   OH249163   1.992   6.681  12.852  0.3604 -0.2245  0.2963
 8323TIP3    H149164   1.923   6.657  12.914  0.4881  0.2243  0.6143
 8323TIP3    H249165   2.065   6.710  12.907  0.0704  1.2942 -0.0677
 8324TIP3   OH249166   3.688   1.585   9.984 -0.0256 -0.1916  0.2313
 8324TIP3    H149167   3.655   1.599   9.896 -0.3476 -1.4246  0.1382
 8324TIP3    H249168   3.780   1.561   9.972  0.1477  0.4305  0.2925
 8325TIP3   OH249169   1.932   5.734  10.255  0.6509  0.0234  0.1948
 8325TIP3    H149170   1.901   5.800  10.194  1.8682  0.2562 -0.1914
 8325TIP3    H249171   1.949   5.782  10.336 -1.3311 -0.3482  0.8808
 8326TIP3   OH249172   3.164   4.488  11.355 -0.3387  0.4015  0.0122
 8326TIP3    H149173   3.211   4.465  11.275 -1.0453 -0.2939 -0.2101
 8326TIP3    H249174   3.191   4.578  11.373 -1.8463  1.3951 -2.2514
 8327TIP3   OH249175   6.474   6.474   9.334  0.4253 -0.5259 -0.1263
 8327TIP3    H149176   6.495   6.381   9.349  3.0495 -0.4312 -2.2829
 8327TIP3    H249177   6.444   6.477   9.243 -1.2109  0.5807  0.4151
 8328TIP3   OH249178   3.944   3.652  10.416  0.1462 -0.4401 -0.1690
 8328TIP3    H149179   3.876   3.713  10.389 -0.3577 -0.5776  0.7504
 8328TIP3    H249180   3.904   3.565  10.407 -0.4884 -0.4530  2.0891
 8329TIP3   OH249181   4.570   0.048  11.201  0.6350 -0.2642  0.2747
 8329TIP3    H149182   4.588   0.019  11.112 -0.2274  2.0150 -0.7398
 8329TIP3    H249183   4.522  -0.024  11.241 -1.0944 -0.4367 -1.9411
 8330TIP3   OH249184   3.752   3.270   9.140 -0.6518 -0.5305 -0.0159
 8330TIP3    H149185   3.718   3.223   9.064 -0.7477 -2.1008  0.9496
 8330TIP3    H249186   3.674   3.309   9.180 -0.6945 -0.3035 -0.3136
 8331TIP3   OH249187   4.933   6.378  10.235 -0.2052 -0.1532  0.1718
 8331TIP3    H149188   4.850   6.415  10.205 -1.6561 -0.9325  2.9049
 8331TIP3    H249189   4.943   6.410  10.324  1.2408 -1.9892  0.7270
 8332TIP3   OH249190   4.938   1.903   9.479  0.3531 -0.6935  0.2741
 8332TIP3    H149191   4.901   1.991   9.473 -0.8100 -1.2361 -0.9392
 8332TIP3    H249192   5.033   1.917   9.478  0.2036  0.4715 -1.4362
 8333TIP3   OH249193   0.738   2.967  12.064  0.2185  0.1592  0.0710
 8333TIP3    H149194   0.650   2.943  12.092  0.1953  0.2542  0.0790
 8333TIP3    H249195   0.741   2.941  11.972  0.5003 -0.7248  0.3140
 8334TIP3   OH249196   1.110   0.820   9.938 -0.0486 -0.7068 -0.1826
 8334TIP3    H149197   1.058   0.807   9.858  1.5928 -0.6639 -1.3033
 8334TIP3    H249198   1.069   0.895   9.981 -0.3258 -0.0398 -1.5495
 8335TIP3   OH249199   4.659   3.750  10.561 -0.0508 -0.6180  0.0964
 8335TIP3    H149200   4.617   3.698  10.492 -0.9289  0.5362 -0.2860
 8335TIP3    H249201   4.740   3.782  10.521 -1.5015  1.6992 -1.1883
 8336TIP3   OH249202   1.763   6.452  20.222 -0.4870  0.2494  0.1100
 8336TIP3    H149203   1.739   6.538  20.258  1.2390  1.7288 -2.0166
 8336TIP3    H249204   1.841   6.426  20.271 -1.2297 -0.3571  1.0200
 8337TIP3   OH249205   4.662   0.112  13.080  0.1398 -0.2091  0.0861
 8337TIP3    H149206   4.730   0.050  13.054 -0.3876 -0.6788 -0.1686
 8337TIP3    H249207   4.591   0.099  13.018 -1.1868 -1.4200  1.7520
 8338TIP3   OH249208   1.733   0.140  11.616 -0.3028 -0.4277 -0.2333
 8338TIP3    H149209   1.786   0.066  11.586 -0.5858 -0.5314 -0.4876
 8338TIP3    H249210   1.792   0.192  11.669  0.8311  0.8647 -2.6161
 8339TIP3   OH249211   1.752   0.680  11.687 -0.2146 -0.2755 -0.1832
 8339TIP3    H149212   1.741   0.669  11.782 -0.7650  1.1082 -0.0578
 8339TIP3    H249213   1.737   0.773  11.672  0.2385 -0.4039 -1.5947
 8340TIP3   OH249214   1.149   3.006  11.244 -0.2363  0.0393 -0.4036
 8340TIP3    H149215   1.056   3.022  11.257  0.0124  0.5569  0.8798
 8340TIP3    H249216   1.184   2.991  11.332  0.5489 -2.2325 -1.0399
 8341TIP3   OH249217   5.189   3.836  12.086 -0.1262 -0.6703  0.2591
 8341TIP3    H149218   5.219   3.771  12.023  0.4541 -1.1883  1.0434
 8341TIP3    H249219   5.269   3.880  12.116 -0.4690  0.0979  0.0802
 8342TIP3   OH249220   4.081   2.799  11.960  0.1885  0.0008  0.3796
 8342TIP3    H149221   4.138   2.723  11.969  0.0580  0.0185  1.4375
 8342TIP3    H249222   4.125   2.854  11.895  0.5246 -0.7482 -0.0387
 8343TIP3   OH249223   2.170   2.715  10.722  0.3471 -0.1317 -0.8912
 8343TIP3    H149224   2.264   2.697  10.720  1.0498  2.3592  1.6197
 8343TIP3    H249225   2.135   2.653  10.786  0.8949  0.7889  0.3488
 8344TIP3   OH249226   5.590   1.654  11.649 -0.4246  0.2209 -0.4885
 8344TIP3    H149227   5.611   1.585  11.586 -0.0474 -0.6451  0.5680
 8344TIP3    H249228   5.652   1.725  11.629  0.3007 -0.4094 -0.4933
 8345TIP3   OH249229   3.843   0.564  11.979 -0.0541 -0.7295 -0.0478
 8345TIP3    H149230   3.820   0.644  11.933  2.1486  0.2417  0.3731
 8345TIP3    H249231   3.770   0.548  12.039  0.2894  2.1545  1.3218
 8346TIP3   OH249232   5.036   1.370   9.850 -0.0085  0.1351 -0.8187
 8346TIP3    H149233   5.031   1.277   9.874  1.9364  0.0019 -0.7325
 8346TIP3    H249234   5.031   1.417   9.933  0.5025  0.0165 -0.7181
 8347TIP3   OH249235   3.617   5.268  12.310 -0.3320 -0.0283  0.6071
 8347TIP3    H149236   3.598   5.318  12.231 -0.0457  0.4440  0.8340
 8347TIP3    H249237   3.533   5.260  12.356 -1.0216 -2.3447 -0.8831
 8348TIP3   OH249238   6.254   5.574  19.919 -0.2430  0.5171  0.0642
 8348TIP3    H149239   6.321   5.579  19.988 -0.5331  0.0709  0.3853
 8348TIP3    H249240   6.248   5.664  19.886  0.4918  0.5701  0.0469
 8349TIP3   OH249241   0.749   5.811   9.857 -0.0567  0.0197 -0.2383
 8349TIP3    H149242   0.728   5.893   9.813 -0.7728 -1.4020 -2.7685
 8349TIP3    H249243   0.750   5.833   9.951 -1.3271  2.6372 -0.7531
 8350TIP3   OH249244   3.120   2.058  11.424 -0.4802  0.1039 -0.3107
 8350TIP3    H149245   3.121   1.974  11.378 -1.0831  0.3616 -0.8087
 8350TIP3    H249246   3.160   2.119  11.363  2.1945 -0.2398  0.9547
 8351TIP3   OH249247   4.898   2.184  10.653 -0.2504 -0.2202 -0.4110
 8351TIP3    H149248   4.926   2.246  10.585 -0.2162  1.0892  0.7560
 8351TIP3    H249249   4.806   2.206  10.669  0.4256  1.2816  1.7738
 8352TIP3   OH249250   5.843   2.306  12.132 -0.4150 -0.6033  0.5146
 8352TIP3    H149251   5.839   2.371  12.062 -1.5645 -1.5032 -0.3024
 8352TIP3    H249252   5.765   2.324  12.185  0.2469 -0.1693  1.3504
 8353TIP3   OH249253   0.795   4.154  12.536  0.0975 -0.4208  0.5114
 8353TIP3    H149254   0.862   4.188  12.478  2.3943 -1.1208  2.5769
 8353TIP3    H249255   0.774   4.227  12.595  1.2132 -0.9886  1.6638
 8354TIP3   OH249256   0.267   5.762  12.014  0.0420  0.0457 -0.2322
 8354TIP3    H149257   0.257   5.666  12.012  0.1205  0.0326 -0.0327
 8354TIP3    H249258   0.361   5.776  12.001 -0.2869  0.2061 -3.0615
 8355TIP3   OH249259   3.768   5.068  12.229 -0.1379 -0.2870  0.0927
 8355TIP3    H149260   3.719   5.136  12.275  0.7023  0.7553 -0.4931
 8355TIP3    H249261   3.701   5.007  12.198 -0.7693 -0.6399  2.0384
 8356TIP3   OH249262   5.522   6.172  12.157 -0.0618 -0.1147  0.3115
 8356TIP3    H149263   5.498   6.086  12.122 -0.2381  0.2329 -0.4499
 8356TIP3    H249264   5.609   6.160  12.195 -0.3762 -0.7916  0.8351
 8357TIP3   OH249265   0.044   0.446  11.300 -0.2189 -0.1578  0.5930
 8357TIP3    H149266   0.041   0.541  11.288 -0.7996 -0.3202 -0.7021
 8357TIP3    H249267  -0.029   0.427  11.360  1.3420  0.4256  2.8288
 8358TIP3   OH249268   0.796   4.480  11.357 -0.5981  0.3175 -0.3624
 8358TIP3    H149269   0.721   4.454  11.410  0.3620 -0.0813  0.8542
 8358TIP3    H249270   0.759   4.536  11.289 -2.3808 -2.1820 -1.5948
 8359TIP3   OH249271   3.463   4.761  10.707 -0.3775 -0.4825 -0.2315
 8359TIP3    H149272   3.441   4.687  10.650 -0.2636  0.0219 -0.9330
 8359TIP3    H249273   3.406   4.832  10.677  0.7952  0.2497 -0.7599
 8360TIP3   OH249274   4.159   0.012  10.752  0.2160 -0.0377 -0.4447
 8360TIP3    H149275   4.152  -0.035  10.835 -1.0462  0.1526 -0.4189
 8360TIP3    H249276   4.229  -0.033  10.705  0.3734 -0.6869  0.3823
 8361TIP3   OH249277   1.077   6.454  10.536  0.8187  0.9441  0.6031
 8361TIP3    H149278   1.147   6.504  10.575  0.7688  1.1801  0.3911
 8361TIP3    H249279   1.068   6.377  10.592  0.9933  1.0980  0.8417
 8362TIP3   OH249280   1.071   6.003  10.649  0.0435 -0.9620  0.1351
 8362TIP3    H149281   1.001   6.035  10.593 -1.2327  1.0906  2.6753
 8362TIP3    H249282   1.036   5.921  10.686 -0.4171 -0.7277  0.2326
 8363TIP3   OH249283   4.546   6.503  13.158  0.1554  0.2632 -0.9889
 8363TIP3    H149284   4.465   6.548  13.180  0.3159 -0.4456  1.2455
 8363TIP3    H249285   4.518   6.422  13.115 -0.2556  0.6685 -1.4986
 8364TIP3   OH249286   6.556   0.814  12.946  0.4116 -0.1371  0.4790
 8364TIP3    H149287   6.544   0.766  13.028 -2.5376  1.6711  1.2713
 8364TIP3    H249288   6.485   0.781  12.890  2.1819 -1.1121 -1.3367
 8365TIP3   OH249289   4.226   6.458   9.902 -0.5154  0.3757 -0.1623
 8365TIP3    H149290   4.146   6.476   9.951  0.2520  1.5289  0.7315
 8365TIP3    H249291   4.220   6.514   9.825 -1.6071 -1.2557 -1.3374
 8366TIP3   OH249292   5.244   4.650  11.827  0.5044  0.2411 -0.0288
 8366TIP3    H149293   5.172   4.682  11.773  0.4548  0.6731  0.2847
 8366TIP3    H249294   5.226   4.686  11.914 -0.3530 -1.8492  0.7195
 8367TIP3   OH249295   5.725   0.905  12.288 -0.1616  0.3418 -0.0148
 8367TIP3    H149296   5.698   0.913  12.380 -1.1042 -0.0675 -0.2498
 8367TIP3    H249297   5.672   0.834  12.254  2.2132 -1.4937 -0.1391
 8368TIP3   OH249298   2.899   2.326  11.062  0.1896  0.2595 -0.1170
 8368TIP3    H149299   2.917   2.232  11.065  2.2427  0.6084  0.1376
 8368TIP3    H249300   2.976   2.364  11.020 -0.2660  1.9008  0.4469
 8369TIP3   OH249301   3.882   0.484  10.247  0.1037 -0.0151  0.0073
 8369TIP3    H149302   3.886   0.407  10.191 -2.7846 -0.2803 -0.0038
 8369TIP3    H249303   3.946   0.468  10.316  0.4878 -1.8101 -0.7131
 8370TIP3   OH249304   4.827   5.663   9.250  0.0975  0.4848 -0.2442
 8370TIP3    H149305   4.807   5.739   9.305 -0.9780  1.0730 -1.3956
 8370TIP3    H249306   4.878   5.605   9.307  0.8573  2.0172  0.6866
 8371TIP3   OH249307   2.235   6.004  11.456  0.3755 -0.1730 -0.0709
 8371TIP3    H149308   2.329   5.995  11.444  0.8675  1.1360  2.1439
 8371TIP3    H249309   2.211   5.933  11.516  0.4719  0.9531  1.3540
 8372TIP3   OH249310   2.266   4.733   9.369 -0.1554 -0.2662  0.5099
 8372TIP3    H149311   2.272   4.828   9.373  0.0762 -0.3216  2.2505
 8372TIP3    H249312   2.182   4.712   9.411 -0.7698 -0.7908 -0.9159
 8373TIP3   OH249313   1.329   1.303  11.266  0.4740  0.3895  0.1839
 8373TIP3    H149314   1.357   1.220  11.226  0.4036  1.0735 -1.3912
 8373TIP3    H249315   1.234   1.296  11.274  0.4100  0.4903 -0.4159
 8374TIP3   OH249316   0.088   0.069  11.108 -0.4776  0.1755  0.3497
 8374TIP3    H149317   0.100  -0.025  11.097  0.9675  0.5373 -2.0938
 8374TIP3    H249318   0.148   0.093  11.178 -2.0353 -0.8967  2.1175
 8375TIP3   OH249319   0.529   4.731   9.638  0.2107  0.5315  0.4216
 8375TIP3    H149320   0.489   4.663   9.583  2.8236 -1.5626  0.8986
 8375TIP3    H249321   0.619   4.736   9.607  1.3105  0.5292  3.2977
 8376TIP3   OH249322   6.287   1.681   9.655 -0.2856 -0.1101 -0.2547
 8376TIP3    H149323   6.307   1.594   9.620  1.2135 -0.2040  0.8001
 8376TIP3    H249324   6.354   1.738   9.618  0.1872  0.1403  0.9521
 8377TIP3   OH249325   2.300   5.205  11.149 -0.0497 -0.5373  0.1068
 8377TIP3    H149326   2.253   5.172  11.072 -3.2696  0.9754  1.2368
 8377TIP3    H249327   2.237   5.195  11.221  1.7991  0.6519  1.9829
 8378TIP3   OH249328   1.592   2.576  12.054  0.2155 -0.4382 -0.1485
 8378TIP3    H149329   1.510   2.561  12.101  0.2747 -0.3863 -0.0302
 8378TIP3    H249330   1.655   2.519  12.097  0.4091  0.0461  0.2114
 8379TIP3   OH249331   6.072   4.853   9.498  0.0025 -0.1769 -0.3094
 8379TIP3    H149332   6.012   4.924   9.474  0.6582  0.5160  0.0689
 8379TIP3    H249333   6.055   4.837   9.591  0.2808 -0.1023 -0.2453
 8380TIP3   OH249334   4.982   3.632  12.164  0.1728 -0.0085  0.3194
 8380TIP3    H149335   5.020   3.714  12.132  0.3068  0.3438  1.3371
 8380TIP3    H249336   4.890   3.653  12.180 -0.2803 -0.6201 -1.3051
 8381TIP3   OH249337   3.774   1.216  10.232 -0.0506 -0.1143 -0.2497
 8381TIP3    H149338   3.775   1.123  10.253 -1.2045  0.0848  0.8530
 8381TIP3    H249339   3.864   1.235  10.203  0.9553 -1.0581  1.9499
 8382TIP3   OH249340   6.536   5.144  11.548  0.1873  0.0179  0.1920
 8382TIP3    H149341   6.481   5.222  11.533  0.5630  0.5801  1.5964
 8382TIP3    H249342   6.527   5.093  11.467 -1.4491  0.6698 -0.0814
 8383TIP3   OH249343   3.388   1.187  11.570 -0.2187 -0.1029 -0.4689
 8383TIP3    H149344   3.469   1.137  11.561 -0.6782 -0.8851 -0.2693
 8383TIP3    H249345   3.327   1.146  11.509 -0.0023  1.4890 -1.8196
 8384TIP3   OH249346   5.994   4.758   9.732  0.0312 -0.6346 -0.1508
 8384TIP3    H149347   5.913   4.803   9.755 -1.4622 -2.7392 -1.0274
 8384TIP3    H249348   6.018   4.710   9.811 -0.3942 -1.1297 -0.3140
 8385TIP3   OH249349   3.374   6.268  11.644  0.2539  0.1662  0.5116
 8385TIP3    H149350   3.423   6.249  11.723  0.3116  0.2968  0.5079
 8385TIP3    H249351   3.397   6.359  11.622  1.5270 -0.3788 -0.5736
 8386TIP3   OH249352   4.339   6.158  11.855  0.2934  0.1257  0.3201
 8386TIP3    H149353   4.333   6.146  11.950  1.3701  1.8606  0.6544
 8386TIP3    H249354   4.416   6.107  11.829  1.5397  1.6716  0.8298
 8387TIP3   OH249355   1.095   5.634  10.465  0.0624  0.5088  0.4189
 8387TIP3    H149356   1.049   5.710  10.501 -0.7603 -0.5851  1.7937
 8387TIP3    H249357   1.147   5.601  10.539  2.9005  1.5128 -0.9983
 8388TIP3   OH249358   0.833   5.006  11.633 -0.1891  0.1771 -0.1169
 8388TIP3    H149359   0.914   5.056  11.624  0.7506 -1.1498  0.7483
 8388TIP3    H249360   0.859   4.915  11.622 -1.4250 -0.3466  1.0515
 8389TIP3   OH249361   4.415   3.218  12.058  0.1503 -0.8590 -0.4949
 8389TIP3    H149362   4.509   3.214  12.070  0.4068 -3.4606 -2.5511
 8389TIP3    H249363   4.379   3.165  12.130  0.3864 -1.1103 -0.5603
 8390TIP3   OH249364   3.325   2.184  11.934 -0.4497 -0.0398 -0.0888
 8390TIP3    H149365   3.237   2.158  11.905 -0.9767  1.7788 -0.2416
 8390TIP3    H249366   3.324   2.280  11.931  2.1095  0.0293 -1.8166
 8391TIP3   OH249367   4.353   2.968   9.952 -0.3453  0.0279 -0.2229
 8391TIP3    H149368   4.427   2.938   9.899  0.7475  1.6423  0.3104
 8391TIP3    H249369   4.355   3.063   9.944 -3.0896  0.1016 -1.1074
 8392TIP3   OH249370   5.635   1.361  12.820 -0.0357 -0.3113  0.6774
 8392TIP3    H149371   5.692   1.412  12.762  0.0711  0.3378  1.3307
 8392TIP3    H249372   5.652   1.397  12.907  1.3451 -2.6003  1.4628
 8393TIP3   OH249373   6.645   3.259   9.735  0.1361  0.3075  0.9637
 8393TIP3    H149374   6.582   3.210   9.787  1.9444  0.8270  3.8556
 8393TIP3    H249375   6.679   3.195   9.672  1.4378 -1.9431  3.7058
 8394TIP3   OH249376   3.298   5.672  11.717 -0.1542 -0.5347  0.1707
 8394TIP3    H149377   3.259   5.738  11.775  2.3736 -0.0361  1.4639
 8394TIP3    H249378   3.252   5.683  11.634 -0.6442  2.0972  0.6778
 8395TIP3   OH249379   5.175   0.484  10.340 -0.2496  0.2727  0.1965
 8395TIP3    H149380   5.162   0.523  10.253  1.0347 -0.1859 -0.2231
 8395TIP3    H249381   5.201   0.394  10.322 -0.6290 -0.0244  1.0882
 8396TIP3   OH249382   5.294   1.153   9.790  0.3165 -0.0962 -0.0211
 8396TIP3    H149383   5.367   1.211   9.768 -0.0133  0.6362  0.7530
 8396TIP3    H249384   5.315   1.121   9.878 -0.7727  0.9183  0.6286
 8397TIP3   OH249385   3.672   5.038  11.203 -0.2557 -0.2142 -0.1554
 8397TIP3    H149386   3.582   5.015  11.181 -1.3575  2.9879  0.3296
 8397TIP3    H249387   3.676   5.032  11.299 -1.0215  2.4785  0.1410
 8398TIP3   OH249388   4.390   0.789  10.010  0.0921  0.3528  0.2231
 8398TIP3    H149389   4.371   0.698   9.991  0.7488  0.6858 -2.4220
 8398TIP3    H249390   4.308   0.835   9.990  0.5654  0.6173 -1.2565
 8399TIP3   OH249391   1.947   2.552  11.828  0.5553 -0.3646  0.1027
 8399TIP3    H149392   1.860   2.585  11.806  0.7055  0.8671  1.1927
 8399TIP3    H249393   1.945   2.460  11.804 -1.0220 -0.3370  0.0379
 8400TIP3   OH249394   4.991   0.968   9.075 -0.4345  0.2708  0.3679
 8400TIP3    H149395   4.927   0.901   9.049  0.4807 -0.5403  0.1399
 8400TIP3    H249396   5.054   0.921   9.130 -0.5075  1.2469  1.3111
 8401TIP3   OH249397   1.467   1.036  11.505 -0.2875  0.3418 -0.1035
 8401TIP3    H149398   1.429   1.123  11.519 -2.4141 -0.0842 -2.6404
 8401TIP3    H249399   1.543   1.052  11.449 -0.3672  0.5879 -0.1423
 8402TIP3   OH249400   1.082   4.913  11.264  0.8900  0.6618 -0.2410
 8402TIP3    H149401   1.027   4.851  11.218  0.3302  1.3154 -0.4691
 8402TIP3    H249402   1.077   4.994  11.212  1.0529  1.1070  0.4172
 8403TIP3   OH249403   6.218   6.278  11.286  0.7032  0.3352  0.4136
 8403TIP3    H149404   6.284   6.299  11.219  1.0146  0.9203  0.8991
 8403TIP3    H249405   6.162   6.355  11.290  0.9742  0.5032  1.1649
 8404TIP3   OH249406   0.459   1.493  11.519  0.8384 -0.3048 -0.3231
 8404TIP3    H149407   0.544   1.536  11.529  0.1981  1.0852 -0.5568
 8404TIP3    H249408   0.412   1.549  11.456 -1.2257  0.5176  1.8134
 8405TIP3   OH249409   2.455   2.753   9.895 -0.0278  0.1179  0.1035
 8405TIP3    H149410   2.389   2.706   9.843 -0.1941  0.2145  0.2247
 8405TIP3    H249411   2.484   2.689   9.960  0.1431  0.0131 -0.0764
 8406TIP3   OH249412   1.556   1.192  10.188 -0.1993 -0.5099  0.0725
 8406TIP3    H149413   1.463   1.172  10.191 -0.5804  0.7316 -1.7800
 8406TIP3    H249414   1.560   1.287  10.177  1.2273 -0.6924 -1.2854
 8407TIP3   OH249415   0.328   3.175   9.450  0.1828 -0.2189 -0.8209
 8407TIP3    H149416   0.419   3.203   9.433  0.5182 -0.9363 -0.2390
 8407TIP3    H249417   0.337   3.095   9.502 -0.7968  0.1019 -0.1383
 8408TIP3   OH249418   6.135   6.340  10.198 -0.5402  0.3220  0.3605
 8408TIP3    H149419   6.197   6.314  10.129 -1.2520  1.5955 -0.8277
 8408TIP3    H249420   6.049   6.317  10.163 -0.9090  0.8929  0.8713
 8409TIP3   OH249421   3.800   5.143  10.990 -0.2657 -0.2327 -0.2220
 8409TIP3    H149422   3.767   5.127  11.079 -0.7448 -0.0372 -0.3586
 8409TIP3    H249423   3.888   5.105  10.990 -0.8381 -1.6358 -0.1181
 8410TIP3   OH249424   4.582   2.659  10.962 -0.3739 -0.2106 -0.0113
 8410TIP3    H149425   4.641   2.598  10.917  0.2628  0.2650  0.1739
 8410TIP3    H249426   4.564   2.727  10.897  1.0245  0.7961  0.6281
 8411TIP3   OH249427   5.476   1.138  12.879  0.1257 -0.2172  0.6416
 8411TIP3    H149428   5.422   1.109  12.805 -1.3066 -1.0236  1.9342
 8411TIP3    H249429   5.521   1.216  12.847 -2.9141  1.3994 -0.1315
 8412TIP3   OH249430   1.261   2.322  11.054 -0.6248 -0.1358 -0.2159
 8412TIP3    H149431   1.268   2.241  11.003 -0.5041  0.0680 -0.5242
 8412TIP3    H249432   1.178   2.361  11.027  1.1079  1.8911 -3.1135
 8413TIP3   OH249433   0.804   1.829  11.731  0.1484 -0.4792  0.2954
 8413TIP3    H149434   0.846   1.914  11.735 -1.1349  0.2917 -1.6250
 8413TIP3    H249435   0.740   1.830  11.803  0.6424 -0.1413  0.7367
 8414TIP3   OH249436   5.730   3.301  12.329  0.3844 -0.0896  0.8768
 8414TIP3    H149437   5.681   3.230  12.372  0.6543  0.3322  1.9134
 8414TIP3    H249438   5.765   3.261  12.250  0.4577 -1.1064  1.4011
 8415TIP3   OH249439   1.642   5.129  12.043  0.7157 -0.6076  0.5424
 8415TIP3    H149440   1.600   5.067  12.103 -1.8790 -0.5696 -1.0852
 8415TIP3    H249441   1.570   5.165  11.992  2.2508  2.8978  0.5752
 8416TIP3   OH249442   5.006   3.578  11.765 -0.2067 -0.4190  0.0708
 8416TIP3    H149443   4.966   3.641  11.824  1.2510  0.7140 -0.0867
 8416TIP3    H249444   4.932   3.536  11.721 -1.2607 -0.1237  1.4991
 8417TIP3   OH249445   3.233   5.396  11.734 -0.5322 -0.2988 -0.2026
 8417TIP3    H149446   3.302   5.461  11.721  0.5114 -1.3169  0.1294
 8417TIP3    H249447   3.155   5.449  11.752  0.1974  0.8750 -0.3364
 8418TIP3   OH249448   0.326   6.050  12.869  0.4347  0.4373 -0.7909
 8418TIP3    H149449   0.267   5.975  12.878  0.5696  0.5032  1.0543
 8418TIP3    H249450   0.275   6.124  12.902  0.9792  0.7964 -0.7567
 8419TIP3   OH249451   0.527   1.155  12.030  0.4246  0.0227  0.3666
 8419TIP3    H149452   0.484   1.239  12.014 -0.8425 -0.1882  2.3199
 8419TIP3    H249453   0.602   1.155  11.970 -0.0829  2.1092 -0.3742
 8420TIP3   OH249454   4.592   2.595   9.774 -0.1888  0.4220 -0.6325
 8420TIP3    H149455   4.552   2.509   9.764  1.1758 -0.2961 -0.1273
 8420TIP3    H249456   4.530   2.645   9.827 -1.3227 -0.0007 -1.5182
 8421TIP3   OH249457   0.989   2.244  12.173 -0.0634 -0.3969  0.0541
 8421TIP3    H149458   0.987   2.215  12.265  2.8057 -0.1808  0.2580
 8421TIP3    H249459   1.047   2.320  12.172 -0.1419 -0.3049 -1.9321
 8422TIP3   OH249460   2.327   4.437   9.783 -0.1781  0.5240  0.6660
 8422TIP3    H149461   2.280   4.520   9.776 -0.3435  0.4187  0.5381
 8422TIP3    H249462   2.328   4.419   9.877 -2.3704 -0.6044  0.5346
 8423TIP3   OH249463   4.726   3.271  10.519 -0.0930 -0.1407 -0.3759
 8423TIP3    H149464   4.761   3.360  10.526  0.7515 -0.5153  0.5231
 8423TIP3    H249465   4.803   3.215  10.528 -0.7567 -0.9764  0.2304
 8424TIP3   OH249466   4.076   4.742   9.667  0.3336 -0.4479  0.3011
 8424TIP3    H149467   4.066   4.648   9.659 -0.7648 -0.2083 -1.8566
 8424TIP3    H249468   4.012   4.767   9.734  0.8134 -1.2210  1.0765
 8425TIP3   OH249469   2.424   5.497  11.205 -0.1449 -0.4392 -0.3496
 8425TIP3    H149470   2.389   5.416  11.167  2.2801 -2.1804  0.7963
 8425TIP3    H249471   2.386   5.501  11.292 -0.3802 -0.2713 -0.4609
 8426TIP3   OH249472   0.806   5.346  11.660 -0.4511  0.1015 -0.3227
 8426TIP3    H149473   0.864   5.380  11.592  1.6672 -1.2871  0.6742
 8426TIP3    H249474   0.808   5.251  11.649 -0.7410 -0.1036  1.1316
 8427TIP3   OH249475   4.507   6.302  12.182  0.0979 -0.4680  0.0948
 8427TIP3    H149476   4.588   6.306  12.132  2.0707  0.2574  3.0860
 8427TIP3    H249477   4.500   6.388  12.223 -1.9060 -0.7108  0.3566
 8428TIP3   OH249478   0.548   4.898  11.248 -0.1883 -0.1891 -0.1477
 8428TIP3    H149479   0.581   4.944  11.325  0.5389  2.6643 -2.0016
 8428TIP3    H249480   0.460   4.933  11.235  0.1253  0.2371 -1.2318
 8429TIP3   OH249481   3.980   6.695  11.654 -0.0313  0.7753 -0.3603
 8429TIP3    H149482   3.903   6.748  11.633  0.0426  1.1971  0.4088
 8429TIP3    H249483   3.948   6.605  11.651 -0.9210  1.0026  1.3221
 8430TIP3   OH249484   3.581   4.416  11.675 -0.7014  0.5123  0.1858
 8430TIP3    H149485   3.664   4.448  11.637 -0.3554 -1.1569 -0.5865
 8430TIP3    H249486   3.569   4.468  11.754  0.8488  1.1320  0.0596
 8431TIP3   OH249487   2.035   5.371  12.547 -0.2905  0.0841  0.3292
 8431TIP3    H149488   2.100   5.389  12.615 -0.4548 -0.9208  0.7580
 8431TIP3    H249489   2.087   5.356  12.468 -0.1114  1.5954  0.1175
 8432TIP3   OH249490   1.031   4.034  10.117 -0.0816 -0.3705  0.5768
 8432TIP3    H149491   0.945   4.020  10.158 -0.8700 -0.8151 -1.1409
 8432TIP3    H249492   1.033   4.128  10.099 -1.7858 -0.7900 -2.5029
 8433TIP3   OH249493   5.379   2.846  11.378  0.5313 -0.1379  0.0644
 8433TIP3    H149494   5.383   2.845  11.282  1.4094  0.3199  0.0875
 8433TIP3    H249495   5.365   2.754  11.402  1.4156 -0.4310 -0.4765
 8434TIP3   OH249496   4.278   5.374   9.400  0.0685  0.1130 -0.5667
 8434TIP3    H149497   4.339   5.437   9.361  0.1068 -0.7051 -1.8923
 8434TIP3    H249498   4.332   5.297   9.420  0.4382  1.1065  2.8736
 8435TIP3   OH249499   1.765   2.138  12.710  0.5505 -0.4275  0.4923
 8435TIP3    H149500   1.852   2.103  12.727  0.3366 -0.6260  1.2055
 8435TIP3    H249501   1.707   2.062  12.718  0.3587 -0.3785 -0.3970
 8436TIP3   OH249502   5.143   1.141  11.565 -0.0677 -0.8663 -0.3054
 8436TIP3    H149503   5.156   1.228  11.527  1.6772 -0.3559  1.3513
 8436TIP3    H249504   5.202   1.085  11.515  1.6019 -0.3534  1.0256
 8437TIP3   OH249505   6.580   3.513  11.477 -0.1868  0.4398 -0.4662
 8437TIP3    H149506   6.633   3.558  11.543  0.3295 -0.6639 -0.0998
 8437TIP3    H249507   6.641   3.456  11.431 -1.0207 -0.8054 -0.0837
 8438TIP3   OH249508   1.170   1.537  11.411  0.4647 -0.3513  0.6506
 8438TIP3    H149509   1.232   1.464  11.407  1.2097  0.3206 -1.0070
 8438TIP3    H249510   1.133   1.542  11.323 -0.4359  0.5456  1.0623
 8439TIP3   OH249511   4.056   1.955  10.350 -0.0795 -0.1468 -0.4956
 8439TIP3    H149512   3.964   1.929  10.348 -0.7137  1.8916 -1.3473
 8439TIP3    H249513   4.070   1.998  10.265  1.0423  1.4518  0.4548
 8440TIP3   OH249514   5.560   1.555   9.156  0.0105  0.1643 -0.2568
 8440TIP3    H149515   5.497   1.612   9.113  0.7653  1.3308  0.1585
 8440TIP3    H249516   5.607   1.611   9.217  1.4394 -0.6755 -0.5329
 8441TIP3   OH249517   3.650   1.261  10.871  0.4781  0.2428  0.2513
 8441TIP3    H149518   3.705   1.286  10.797 -0.2110 -0.3919 -0.5009
 8441TIP3    H249519   3.563   1.249  10.832  0.5083 -2.0935  0.7566
 8442TIP3   OH249520   4.598   5.503   9.926  0.1532 -0.3142 -0.1715
 8442TIP3    H149521   4.623   5.440   9.994  1.0338 -0.6819 -0.8193
 8442TIP3    H249522   4.650   5.582   9.946  0.9248 -0.6489 -0.7819
 8443TIP3   OH249523   5.002   4.208   9.987 -0.3760 -0.5328 -0.2872
 8443TIP3    H149524   4.906   4.206   9.979 -0.6331  4.7181 -1.8946
 8443TIP3    H249525   5.019   4.268  10.059  1.8478 -1.9509  0.4903
 8444TIP3   OH249526   1.639   0.873   9.729 -0.0693 -0.5509  0.0823
 8444TIP3    H149527   1.597   0.901   9.811 -1.1685  1.6931 -1.1503
 8444TIP3    H249528   1.570   0.883   9.663  0.8928 -2.0114 -1.1922
 8445TIP3   OH249529   5.767   0.801  11.207  0.1576  0.2397 -0.4514
 8445TIP3    H149530   5.692   0.786  11.150  1.4075 -3.4603 -1.3842
 8445TIP3    H249531   5.820   0.867  11.161 -0.9740  0.5752 -1.3000
 8446TIP3   OH249532   6.228   1.396  10.034  0.0672  0.1130  0.2341
 8446TIP3    H149533   6.284   1.323  10.062 -2.2727 -1.3051  1.5990
 8446TIP3    H249534   6.247   1.466  10.097  0.8746 -0.0271  0.1611
 8447TIP3   OH249535   2.953   0.024   9.152  0.6198 -0.1266 -0.6104
 8447TIP3    H149536   2.988   0.073   9.227 -0.4773  0.4938 -0.4796
 8447TIP3    H249537   3.009  -0.053   9.146  0.5776 -0.3337  1.0206
 8448TIP3   OH249538   0.643   1.094  11.489  0.4191  0.0724 -0.0704
 8448TIP3    H149539   0.659   1.030  11.557  2.1092  1.6414  1.0946
 8448TIP3    H249540   0.730   1.121  11.459  0.0802  4.3424  2.0120
 8449TIP3   OH249541   1.562   1.729   9.259  0.3623 -0.1355  0.3212
 8449TIP3    H149542   1.620   1.804   9.250  2.1853 -1.3453  1.2054
 8449TIP3    H249543   1.474   1.766   9.257  1.1378  2.5793  4.4573
 8450TIP3   OH249544   3.630   3.952   9.445  0.5981 -0.6146  0.7937
 8450TIP3    H149545   3.538   3.974   9.460  0.4693 -1.1077  0.7391
 8450TIP3    H249546   3.629   3.860   9.421  1.2121 -0.9293  1.9058
 8451TIP3   OH249547   5.195   4.161  12.394 -0.0672  0.1674  0.2173
 8451TIP3    H149548   5.221   4.210  12.472  0.3034 -0.5871  0.5766
 8451TIP3    H249549   5.099   4.170  12.391 -0.0271  0.7363  0.3819
 8452TIP3   OH249550   2.901   0.688  12.510 -0.0501  0.1312 -0.0396
 8452TIP3    H149551   2.985   0.714  12.472 -1.0513  0.2197 -2.4419
 8452TIP3    H249552   2.923   0.634  12.585  2.2646 -2.3648 -2.2881
 8453TIP3   OH249553   1.581   5.852  11.236 -0.2712 -0.4605 -0.5435
 8453TIP3    H149554   1.643   5.898  11.293  0.3251 -1.1512 -0.6147
 8453TIP3    H249555   1.506   5.834  11.293 -0.5802  0.6972 -0.5513
 8454TIP3   OH249556   3.925   2.586  10.342  0.2843  0.0397 -0.1391
 8454TIP3    H149557   3.870   2.542  10.407 -0.7848  1.3861 -0.0932
 8454TIP3    H249558   3.940   2.673  10.378 -1.3331  1.2460 -2.1937
 8455TIP3   OH249559   0.258   3.409  10.597  0.0362 -0.0540  0.2110
 8455TIP3    H149560   0.299   3.367  10.672 -0.9463 -0.0250  0.7843
 8455TIP3    H249561   0.236   3.497  10.628 -0.0440  0.0827 -0.2224
 8456TIP3   OH249562   2.823   3.200   9.427 -0.0336 -0.1081  0.0158
 8456TIP3    H149563   2.901   3.168   9.383 -0.5697  0.0436 -1.0793
 8456TIP3    H249564   2.819   3.150   9.509  0.9363 -0.4563 -0.1422
 8457TIP3   OH249565   2.140   0.852  10.993 -0.2590 -0.6302  0.0804
 8457TIP3    H149566   2.069   0.915  11.006 -0.4833  0.0708 -3.5976
 8457TIP3    H249567   2.096   0.768  10.981 -0.8854  0.1098 -4.2919
 8458TIP3   OH249568   0.683   3.447  11.041 -0.5340 -0.1755  0.4392
 8458TIP3    H149569   0.771   3.455  11.080  0.2310  0.8868 -1.4009
 8458TIP3    H249570   0.643   3.533  11.055  0.0035  0.4494 -1.6114
 8459TIP3   OH249571   2.924   5.067   9.965  0.6523 -0.0233  0.4688
 8459TIP3    H149572   2.943   5.075   9.871 -1.3699  0.1716  0.0124
 8459TIP3    H249573   2.927   5.156   9.998 -1.9088  0.3916 -0.1962
 8460TIP3   OH249574   4.686   2.198  10.367  0.3977  0.1026  0.1029
 8460TIP3    H149575   4.712   2.105  10.369  0.7806  0.2242  0.8778
 8460TIP3    H249576   4.763   2.245  10.398  0.3346  0.7202 -0.6516
 8461TIP3   OH249577   6.241   2.165  11.779  0.0205 -0.1343  0.1203
 8461TIP3    H149578   6.247   2.094  11.716 -0.7682 -0.3831  0.3203
 8461TIP3    H249579   6.332   2.186  11.800  0.3567  0.6502 -1.8610
 8462TIP3   OH249580   3.223   0.132   9.965 -0.9954 -0.2022  0.3897
 8462TIP3    H149581   3.137   0.094   9.980 -1.2697  0.7260  1.2324
 8462TIP3    H249582   3.270   0.119  10.047 -0.7499  0.3645  0.3456
 8463TIP3   OH249583   3.122   3.685  10.017  0.0581  0.2170 -0.3067
 8463TIP3    H149584   3.032   3.679   9.984 -0.7177  1.4203  1.4162
 8463TIP3    H249585   3.117   3.653  10.107  1.3535  0.3046 -0.1858
 8464TIP3   OH249586   3.520   5.414   9.543  0.2723 -0.3246  0.6073
 8464TIP3    H149587   3.599   5.403   9.597  1.9197  3.1176 -0.8015
 8464TIP3    H249588   3.536   5.358   9.466  1.9235  1.0481 -0.1251
 8465TIP3   OH249589   6.228   0.805  11.725 -0.3526  0.2260 -0.1506
 8465TIP3    H149590   6.265   0.813  11.637  0.3983 -2.5207 -0.1644
 8465TIP3    H249591   6.289   0.852  11.782 -0.3447  1.2172 -0.9577
 8466TIP3   OH249592   1.289   4.035  10.256 -0.2040 -0.0760 -0.4557
 8466TIP3    H149593   1.266   4.056  10.346 -0.2037 -0.7429 -0.2981
 8466TIP3    H249594   1.206   4.039  10.208 -0.3815 -0.7730 -0.2176
 8467TIP3   OH249595   3.840   4.713  11.269  0.1282  0.1169  0.3323
 8467TIP3    H149596   3.861   4.629  11.310 -0.0115 -0.5090 -0.8275
 8467TIP3    H249597   3.897   4.776  11.312  0.3064 -0.5885  1.1564
 8468TIP3   OH249598   5.054   0.917  12.800 -0.4456  0.4072 -0.0957
 8468TIP3    H149599   5.035   0.887  12.889 -2.7242 -0.4871 -0.8128
 8468TIP3    H249600   4.972   0.954  12.769  0.9656  2.9857 -1.0156
 8469TIP3   OH249601   1.868   1.708  10.222  0.1032 -0.1404  0.1671
 8469TIP3    H149602   1.885   1.630  10.167  0.0305 -0.1386  0.1426
 8469TIP3    H249603   1.954   1.748  10.233 -0.2582  1.8035 -2.8469
 8470TIP3   OH249604   6.123   2.305   9.476  1.0027  0.2464 -0.2333
 8470TIP3    H149605   6.192   2.370   9.487  1.3847 -0.1780 -0.1075
 8470TIP3    H249606   6.139   2.267   9.389  1.1345 -0.0868 -0.0666
 8471TIP3   OH249607   1.513   1.632  11.361 -0.2767 -0.2503  0.0883
 8471TIP3    H149608   1.484   1.590  11.280 -1.7076  0.5598  0.1370
 8471TIP3    H249609   1.548   1.561  11.415  1.3037 -0.7142 -1.4667
 8472TIP3   OH249610   0.184   1.533  12.482 -1.1698 -0.2238 -0.0625
 8472TIP3    H149611   0.111   1.570  12.532 -0.8949  0.3875 -0.0948
 8472TIP3    H249612   0.144   1.473  12.420 -1.8005  1.2172 -1.0997
 8473TIP3   OH249613   5.207   3.008   9.493 -0.3378 -0.2638  0.4616
 8473TIP3    H149614   5.267   2.933   9.485 -0.3180 -0.3164  1.0223
 8473TIP3    H249615   5.125   2.977   9.454 -0.1910 -0.4202  0.2772
 8474TIP3   OH249616   1.908   4.763  11.066 -0.4847  0.7198  0.1603
 8474TIP3    H149617   1.997   4.753  11.098 -0.1750  0.2401 -0.8043
 8474TIP3    H249618   1.862   4.684  11.095 -0.2297  0.3304 -0.4756
 8475TIP3   OH249619   2.539   4.044  11.715 -0.5239  0.0693  0.1345
 8475TIP3    H149620   2.591   4.085  11.784 -0.2595  2.2465 -1.2495
 8475TIP3    H249621   2.601   3.991  11.666 -0.6027 -1.0512  1.2030
 8476TIP3   OH249622   5.101   0.093  12.202 -0.0103  0.0077  0.5919
 8476TIP3    H149623   5.160   0.149  12.252 -0.8977  0.0342  1.6577
 8476TIP3    H249624   5.023   0.147  12.189 -0.6739 -0.7872  1.1768
 8477TIP3   OH249625   1.288   4.863   9.407  0.1568 -0.0079 -0.3706
 8477TIP3    H149626   1.378   4.856   9.377  0.5556 -2.0999  1.0396
 8477TIP3    H249627   1.282   4.799   9.479 -1.3353  2.9269  2.3786
 8478TIP3   OH249628   3.532   1.249  11.925 -0.0102 -0.3880  0.2683
 8478TIP3    H149629   3.446   1.210  11.908  0.1064 -0.5869  0.1202
 8478TIP3    H249630   3.575   1.186  11.984 -0.1511 -0.0443  0.7443
 8479TIP3   OH249631   3.323   1.496  10.159 -0.1879  0.6219  0.3302
 8479TIP3    H149632   3.362   1.567  10.108 -0.5013 -0.0184 -0.8323
 8479TIP3    H249633   3.395   1.464  10.213  0.0302  1.6182  0.6546
 8480TIP3   OH249634   1.925   1.910  12.174  0.0477  0.3825  0.7353
 8480TIP3    H149635   1.999   1.850  12.174 -0.4852 -0.4445  3.5007
 8480TIP3    H249636   1.953   1.984  12.119  2.4226 -0.4244  0.7463
 8481TIP3   OH249637   6.295   5.696  12.099 -0.1703  0.1715 -0.0329
 8481TIP3    H149638   6.341   5.638  12.040  0.2215  1.0036 -0.5660
 8481TIP3    H249639   6.337   5.683  12.184 -0.4494 -0.7090 -0.0185
 8482TIP3   OH249640   2.185   3.966  12.519 -0.2281  0.2850 -0.0419
 8482TIP3    H149641   2.209   4.022  12.446 -1.3730  1.7861  0.6824
 8482TIP3    H249642   2.253   3.898  12.521 -0.3724 -0.0383 -2.7073
 8483TIP3   OH249643   1.852   2.698  11.235  0.2677  0.5421  0.2080
 8483TIP3    H149644   1.939   2.657  11.235 -1.0676 -2.5688  1.4967
 8483TIP3    H249645   1.856   2.761  11.307  1.1162 -0.4210  1.0344
 8484TIP3   OH249646   3.529   3.399   9.271  0.4170  0.3098  0.3222
 8484TIP3    H149647   3.505   3.330   9.332 -0.1146  2.0567  2.1813
 8484TIP3    H249648   3.446   3.432   9.237  0.7021 -0.9898 -1.9033
 8485TIP3   OH249649   0.682   0.882   9.868 -0.4779 -0.0952  0.0261
 8485TIP3    H149650   0.655   0.949   9.806  0.9134  0.0150 -0.4807
 8485TIP3    H249651   0.678   0.925   9.954 -2.8407 -0.3759  0.1453
 8486TIP3   OH249652   5.358   6.475  11.899  0.2495 -0.0005 -0.6445
 8486TIP3    H149653   5.312   6.434  11.826  0.9912  0.7834 -1.5675
 8486TIP3    H249654   5.303   6.548  11.924 -1.3563 -1.7595  1.3599
 8487TIP3   OH249655   6.328   4.594  11.507  0.1950  0.6529 -0.2012
 8487TIP3    H149656   6.375   4.677  11.507  2.0036 -0.3035  0.7239
 8487TIP3    H249657   6.355   4.551  11.589 -0.3603 -1.0036 -0.8418
 8488TIP3   OH249658   1.366   2.154  11.548  0.7644 -0.2549  0.3065
 8488TIP3    H149659   1.408   2.231  11.509  3.2073 -1.2546  0.7826
 8488TIP3    H249660   1.303   2.190  11.610  0.0550  1.3425 -1.2703
 8489TIP3   OH249661   4.826   1.922   9.890  0.0492 -0.1579  0.6393
 8489TIP3    H149662   4.898   1.927   9.953  0.6192  0.7271 -0.0579
 8489TIP3    H249663   4.820   2.010   9.853  0.5597 -0.9425 -1.4349
 8490TIP3   OH249664   2.350   4.664  10.394  0.0157 -0.6961  0.3271
 8490TIP3    H149665   2.263   4.654  10.433 -0.7638 -0.3802 -1.2655
 8490TIP3    H249666   2.389   4.577  10.400 -2.0148 -1.9508 -2.5876
 8491TIP3   OH249667   1.490   4.127  11.051 -0.7968 -0.1066  0.4851
 8491TIP3    H149668   1.472   4.216  11.021  0.7904 -0.8318 -3.2269
 8491TIP3    H249669   1.404   4.093  11.077 -1.7455  1.8975  0.2147
 8492TIP3   OH249670   6.079   4.359  12.321 -0.1737 -0.4224  0.5940
 8492TIP3    H149671   5.991   4.395  12.313 -0.1311 -0.5026 -0.3018
 8492TIP3    H249672   6.069   4.266  12.304  0.2857 -0.2109 -1.0490
 8493TIP3   OH249673   3.712   0.638  11.284 -0.3826  0.3867 -0.4215
 8493TIP3    H149674   3.703   0.546  11.257 -1.0126  0.6227 -1.0267
 8493TIP3    H249675   3.636   0.682  11.246  0.0612  1.2142 -0.3651
 8494TIP3   OH249676   5.441   0.870  10.249  0.1021  0.2994  1.1239
 8494TIP3    H149677   5.464   0.940  10.310 -0.3083  1.2612  0.2014
 8494TIP3    H249678   5.357   0.896  10.213 -0.9357 -1.5659  2.0651
 8495TIP3   OH249679   0.571   3.705  11.004 -0.0618  0.2965  0.5198
 8495TIP3    H149680   0.480   3.735  11.008 -0.4472 -0.5605 -1.0906
 8495TIP3    H249681   0.599   3.723  10.915  1.1369 -0.0798  0.7987
 8496TIP3   OH249682   3.917   5.822  10.336 -0.2723  0.4558 -0.3441
 8496TIP3    H149683   3.893   5.777  10.255 -2.6436 -0.3373  0.7088
 8496TIP3    H249684   3.884   5.765  10.406  0.1924  1.9365  1.1455
 8497TIP3   OH249685   4.078   3.483  11.066 -1.0155 -0.3455  0.5045
 8497TIP3    H149686   3.994   3.479  11.020 -0.2077 -1.3794 -0.9968
 8497TIP3    H249687   4.134   3.422  11.017  1.1335  1.6124  0.3796
 8498TIP3   OH249688   4.693   4.052  11.414 -0.2960  0.4122 -0.7597
 8498TIP3    H149689   4.700   4.057  11.318  1.1491 -0.2893 -0.7215
 8498TIP3    H249690   4.740   3.972  11.437  2.6021  2.3546  0.7933
 8499TIP3   OH249691   2.405   6.256   9.281 -0.3345 -0.3514  0.0919
 8499TIP3    H149692   2.449   6.245   9.197  0.9779 -0.8694  0.8077
 8499TIP3    H249693   2.371   6.169   9.302  0.4105 -0.5220  0.6449
 8500TIP3   OH249694   0.587   0.867  12.397 -0.3501  0.3545 -0.0227
 8500TIP3    H149695   0.654   0.800  12.387 -0.3151  0.5486 -1.1248
 8500TIP3    H249696   0.635   0.950  12.403 -0.5133  0.6535 -2.2617
 8501TIP3   OH249697   1.109   2.047  10.474  0.1407  0.6612  0.8193
 8501TIP3    H149698   1.163   2.030  10.397  1.1399  1.6730  1.2806
 8501TIP3    H249699   1.104   1.962  10.519  0.1696  0.2387  0.0506
 8502TIP3   OH249700   2.657   1.562  10.916  0.1853 -0.1544  0.9626
 8502TIP3    H149701   2.596   1.590  10.848  0.6074 -1.4849 -0.0006
 8502TIP3    H249702   2.715   1.638  10.928 -1.8002  1.2468  2.1370
 8503TIP3   OH249703   2.853   3.312  11.342  0.2942  0.3198 -0.7085
 8503TIP3    H149704   2.936   3.349  11.315  1.0103 -2.0271 -2.0174
 8503TIP3    H249705   2.876   3.237  11.397 -0.8221 -1.2596 -2.2677
 8504TIP3   OH249706   1.452   5.022  11.805 -0.0251  0.0661 -0.7626
 8504TIP3    H149707   1.477   4.940  11.848 -0.0041  0.4082 -0.0961
 8504TIP3    H249708   1.413   5.074  11.876 -0.4053  0.4748 -1.2655
 8505TIP3   OH249709   4.332   5.474  10.932 -0.3675 -0.0943  0.0255
 8505TIP3    H149710   4.326   5.531  10.856 -2.1603 -1.9515 -1.3483
 8505TIP3    H249711   4.410   5.419  10.915 -1.1414 -0.9529 -0.8551
 8506TIP3   OH249712   0.130   3.848   9.713  0.8492 -1.5025  0.0522
 8506TIP3    H149713   0.203   3.814   9.765 -0.1713 -1.3166  1.6560
 8506TIP3    H249714   0.076   3.772   9.694  0.0408 -1.2406  1.2290
 8507TIP3   OH249715   5.288   6.298  12.086  0.2535  0.2740 -0.3945
 8507TIP3    H149716   5.294   6.354  12.009  0.0272  0.6136 -0.1684
 8507TIP3    H249717   5.377   6.263  12.097 -0.1171 -1.2975 -1.9211
 8508TIP3   OH249718   4.703   3.203  10.243 -0.3237 -0.0052  0.2105
 8508TIP3    H149719   4.722   3.293  10.217  0.9929 -0.4457 -0.4270
 8508TIP3    H249720   4.700   3.206  10.339  0.0911  0.6461  0.2070
 8509TIP3   OH249721   3.656   5.443  10.584 -0.1819  0.0724  0.0823
 8509TIP3    H149722   3.569   5.415  10.613 -0.4852  2.1450  1.3707
 8509TIP3    H249723   3.715   5.377  10.621 -1.1638 -1.4889 -0.9940
 8510TIP3   OH249724   4.189   1.167  10.445 -0.3219 -0.0207  0.3834
 8510TIP3    H149725   4.167   1.260  10.445  0.4353  0.1916 -1.5658
 8510TIP3    H249726   4.273   1.162  10.491 -0.9547  0.0492  1.6149
 8511TIP3   OH249727   6.367   5.400  10.923  0.3672 -0.2226  0.2276
 8511TIP3    H149728   6.319   5.413  11.005  2.0049  0.6317  1.1258
 8511TIP3    H249729   6.364   5.486  10.880 -0.3282 -0.6194 -0.5281
 8512TIP3   OH249730   0.253   4.839   9.466  0.2133 -0.0318 -0.6859
 8512TIP3    H149731   0.328   4.884   9.426  0.1451 -0.5515 -1.4164
 8512TIP3    H249732   0.283   4.749   9.477  0.1610  0.0512  0.2771
 8513TIP3   OH249733   2.680   0.816  11.260 -0.4047 -0.3337 -0.3642
 8513TIP3    H149734   2.719   0.904  11.252  0.4450 -0.6998 -0.3960
 8513TIP3    H249735   2.668   0.788  11.170  0.6499 -0.8031 -0.3780
 8514TIP3   OH249736   3.996   1.462   9.354 -0.2721 -0.9119  0.5856
 8514TIP3    H149737   4.090   1.445   9.345 -0.0666  0.0217  0.8497
 8514TIP3    H249738   3.988   1.556   9.340 -1.0236 -0.7966  1.7113
 8515TIP3   OH249739   1.555   5.405   9.438 -0.6966 -0.7279  0.5929
 8515TIP3    H149740   1.536   5.406   9.531 -1.9733  3.0149  0.4530
 8515TIP3    H249741   1.487   5.459   9.398  1.9610  1.0767 -1.9600
 8516TIP3   OH249742   6.454   6.456   9.611  0.2948 -0.2078  0.0186
 8516TIP3    H149743   6.378   6.514   9.605  0.6172  0.0697 -1.9149
 8516TIP3    H249744   6.516   6.491   9.548  1.0004 -1.9279 -0.2920
 8517TIP3   OH249745   6.364   3.184  11.760  0.2680  0.1550  0.0982
 8517TIP3    H149746   6.301   3.210  11.693 -0.7723 -1.9538  0.1804
 8517TIP3    H249747   6.436   3.145  11.711  1.0120  1.4694  0.0806
 8518TIP3   OH249748   5.653   6.000   9.239  0.3258 -0.2777 -0.5106
 8518TIP3    H149749   5.666   6.088   9.202 -1.3354 -0.3635 -1.4255
 8518TIP3    H249750   5.632   5.946   9.163 -1.1465 -0.9196  0.3141
 8519TIP3   OH249751   2.689   5.754  12.286 -0.6954  0.3377 -0.2021
 8519TIP3    H149752   2.770   5.756  12.337 -0.6252 -0.7661 -0.2469
 8519TIP3    H249753   2.668   5.846  12.270 -0.3272  0.6834  1.1985
 8520TIP3   OH249754   0.216   3.036  12.231  0.4251 -0.2181  0.4038
 8520TIP3    H149755   0.303   3.037  12.271  0.5657 -2.4676  0.2999
 8520TIP3    H249756   0.166   3.102  12.279  1.6612 -0.2233  1.7512
 8521TIP3   OH249757   6.601   1.054  10.246 -0.6803  0.1162 -0.5366
 8521TIP3    H149758   6.682   1.044  10.196 -1.0681 -1.9765 -0.8417
 8521TIP3    H249759   6.627   1.036  10.336 -0.4950  1.1995 -0.3628
 8522TIP3   OH249760   5.044   6.219  12.181 -0.1543 -0.5260 -0.2541
 8522TIP3    H149761   5.046   6.197  12.274  1.3931  0.7768  0.0717
 8522TIP3    H249762   5.133   6.248  12.161 -1.2633  2.6669 -1.2241
 8523TIP3   OH249763   0.938   4.727  11.156  0.0487 -0.2416 -0.0104
 8523TIP3    H149764   0.926   4.779  11.076  1.8661  0.3472  0.0662
 8523TIP3    H249765   0.849   4.704  11.182 -0.8451  2.5669 -0.2201
 8524TIP3   OH249766   6.051   3.058  10.430  0.1085  0.7072 -0.0293
 8524TIP3    H149767   6.144   3.080  10.425  0.1787  1.3076  2.5287
 8524TIP3    H249768   6.050   2.962  10.435  0.6766  0.7442  0.9646
 8525TIP3   OH249769   2.034   2.979  11.799 -0.2296  0.1686 -0.0369
 8525TIP3    H149770   2.101   3.037  11.836 -0.2209  0.5189 -0.5959
 8525TIP3    H249771   1.955   2.998  11.851  0.5893 -1.8178  2.1147
 8526TIP3   OH249772   5.420   4.193   9.611  1.1225  0.1608  0.2542
 8526TIP3    H149773   5.481   4.172   9.682 -0.4389  0.1273  1.6396
 8526TIP3    H249774   5.334   4.193   9.653 -0.1174 -2.0574 -2.0466
 8527TIP3   OH249775   6.409   4.735   9.869  0.4162  0.1801  0.2092
 8527TIP3    H149776   6.398   4.658   9.813  0.0903  1.3149 -1.3546
 8527TIP3    H249777   6.368   4.711   9.951 -2.6045 -0.2563 -1.2728
 8528TIP3   OH249778   2.171   0.408  11.869  0.5299  0.1235  0.1707
 8528TIP3    H149779   2.225   0.352  11.926 -0.7383 -0.0126  1.2846
 8528TIP3    H249780   2.165   0.491  11.916 -0.0858  0.1943 -0.0272
 8529TIP3   OH249781   2.142   5.602  11.237  0.1704 -0.2749  0.0578
 8529TIP3    H149782   2.181   5.574  11.319  0.8263 -0.2383 -0.2334
 8529TIP3    H249783   2.075   5.665  11.262 -1.9421 -2.6449  0.8009
 8530TIP3   OH249784   0.946   3.418  10.638  0.3776 -0.0377  0.7386
 8530TIP3    H149785   1.024   3.365  10.652  0.2035 -0.2826  0.8034
 8530TIP3    H249786   0.977   3.509  10.640  0.4155 -0.0465  2.4769
 8531TIP3   OH249787   0.582   1.540  10.267  0.6403 -0.1062 -0.8248
 8531TIP3    H149788   0.500   1.518  10.312  0.9549 -0.3162 -0.3530
 8531TIP3    H249789   0.611   1.621  10.308  0.9125 -0.2800 -0.6760
 8532TIP3   OH249790   0.153   0.515  11.979  0.3724  0.2076 -0.6299
 8532TIP3    H149791   0.067   0.473  11.973  0.6382 -0.1250 -3.6164
 8532TIP3    H249792   0.215   0.443  11.979  0.7118  0.4600 -2.1041
 8533TIP3   OH249793   1.824   0.729   9.339  0.2462  0.0792 -0.0561
 8533TIP3    H149794   1.784   0.656   9.385 -1.4443 -0.0529 -1.5846
 8533TIP3    H249795   1.860   0.785   9.408  1.0288 -1.8551  1.1660
 8534TIP3   OH249796   3.826   1.253   9.492 -0.6992 -0.5194  0.2157
 8534TIP3    H149797   3.877   1.318   9.443  0.4144 -2.0885 -0.8119
 8534TIP3    H249798   3.747   1.241   9.439 -1.0523  0.1988  0.5679
 8535TIP3   OH249799   1.278   4.704  10.369  0.2147 -0.2827 -0.3302
 8535TIP3    H149800   1.373   4.697  10.368  0.2673  0.3453 -0.6289
 8535TIP3    H249801   1.261   4.786  10.417 -0.1455 -0.0802 -0.7933
 8536TIP3   OH249802   6.104   2.757   9.507  0.1473  0.0722  0.1849
 8536TIP3    H149803   6.191   2.744   9.471  1.1624  2.6408  1.4721
 8536TIP3    H249804   6.058   2.810   9.442  0.7474  1.6242  0.9928
 8537TIP3   OH249805   4.140   1.787  11.298  0.3272 -0.0177 -0.3780
 8537TIP3    H149806   4.162   1.871  11.258  0.4924  1.5107  2.6174
 8537TIP3    H249807   4.223   1.754  11.332 -0.1185  0.0459  0.8508
 8538TIP3   OH249808   3.914   3.243   9.590  0.5107  0.0859 -0.0484
 8538TIP3    H149809   3.946   3.223   9.502  1.3288 -1.9687  0.6466
 8538TIP3    H249810   3.821   3.221   9.588  0.1220  1.6632 -0.8208
 8539TIP3   OH249811   5.106   6.225   9.639 -0.0272 -0.1236  0.2224
 8539TIP3    H149812   5.053   6.250   9.564 -0.6811 -1.1000  0.3349
 8539TIP3    H249813   5.196   6.228   9.607 -0.3776 -2.1768 -1.1636
 8540TIP3   OH249814   2.877   1.364  11.509  0.4959  0.3245  0.0672
 8540TIP3    H149815   2.859   1.273  11.485 -0.0023  0.3712  0.2749
 8540TIP3    H249816   2.965   1.361  11.548 -0.2759 -0.3795  1.8283
 8541TIP3   OH249817   5.911   6.386   9.375 -0.3562 -0.2577 -0.4258
 8541TIP3    H149818   5.869   6.339   9.448  1.1759 -2.2239 -0.7362
 8541TIP3    H249819   5.877   6.344   9.296  1.4655 -1.3212 -0.6979
 8542TIP3   OH249820   5.602   0.559  10.624  0.0302 -0.2097 -0.2218
 8542TIP3    H149821   5.517   0.604  10.626  0.0925  0.1428 -2.6531
 8542TIP3    H249822   5.665   0.629  10.608  0.3372 -0.8609 -2.0751
 8543TIP3   OH249823   5.490   4.986  10.558 -0.3694 -0.0937  0.0704
 8543TIP3    H149824   5.440   5.067  10.548 -1.2014 -0.6779 -0.6414
 8543TIP3    H249825   5.499   4.952  10.469  1.1253 -0.1128  0.2146
 8544TIP3   OH249826   0.610   4.048   9.357 -0.0876  0.9878 -0.0139
 8544TIP3    H149827   0.652   3.971   9.317 -1.0778  1.7426 -2.6993
 8544TIP3    H249828   0.639   4.046   9.448  0.9723 -1.8176 -0.3135
 8545TIP3   OH249829   3.052   3.099   9.309 -0.3590 -0.0883  0.2335
 8545TIP3    H149830   3.139   3.066   9.290 -0.3940  0.7289 -1.6468
 8545TIP3    H249831   2.994   3.047   9.254 -0.6816  1.3359 -0.8417
 8546TIP3   OH249832   1.278   5.065  10.779 -0.3733  0.2424  0.6868
 8546TIP3    H149833   1.202   5.043  10.725 -0.1785  1.5679 -0.1823
 8546TIP3    H249834   1.352   5.022  10.735 -0.4546 -0.1506  0.9242
 8547TIP3   OH249835   4.747   6.076  10.307  0.1155 -0.8804  0.1491
 8547TIP3    H149836   4.672   6.113  10.260  0.8669 -0.7586 -0.9881
 8547TIP3    H249837   4.819   6.081  10.245  0.9521 -1.4861  1.0431
 8548TIP3   OH249838   6.182   1.798  10.210  0.2871 -0.0887 -0.1160
 8548TIP3    H149839   6.092   1.825  10.228  0.5062 -0.5081  1.9097
 8548TIP3    H249840   6.182   1.773  10.118 -1.7646 -0.4843 -0.0565
 8549TIP3   OH249841   4.259   1.391   9.264  0.3775  0.1538 -0.5184
 8549TIP3    H149842   4.351   1.409   9.283  0.5231  0.3209 -1.3365
 8549TIP3    H249843   4.253   1.295   9.261  0.5490  0.1461 -0.5879
 8550TIP3   OH249844   3.975   2.225  18.938  0.1974  0.1165  0.3146
 8550TIP3    H149845   4.044   2.229  18.873  0.5090  0.6110  0.6674
 8550TIP3    H249846   4.008   2.167  19.006  0.1879  0.2002  0.3913
 8551TIP3   OH249847   3.385   6.344  10.943  0.3257  0.4904  0.0653
 8551TIP3    H149848   3.402   6.436  10.963 -2.0145  0.6614  1.5841
 8551TIP3    H249849   3.306   6.322  10.992  0.8407 -2.3763 -0.1832
 8552TIP3   OH249850   6.228   4.058  11.677  0.0193  0.1690  0.5174
 8552TIP3    H149851   6.276   3.982  11.710 -3.3610 -2.2388  0.4402
 8552TIP3    H249852   6.162   4.021  11.618  0.8772  3.6509 -2.9628
 8553TIP3   OH249853   3.862   5.141  12.694  0.0200  0.1541  0.5503
 8553TIP3    H149854   3.958   5.139  12.693  0.1168  2.0917  0.5727
 8553TIP3    H249855   3.841   5.189  12.775 -0.8748  1.3138 -0.3343
 8554TIP3   OH249856   3.403   4.042   9.561 -0.3553  0.0723 -0.3893
 8554TIP3    H149857   3.338   4.110   9.581 -2.4227 -1.5598 -1.1247
 8554TIP3    H249858   3.385   3.972   9.624 -1.0046 -1.4032 -2.1121
 8555TIP3   OH249859   5.416   5.377   9.768  0.7452  0.4226 -0.3430
 8555TIP3    H149860   5.497   5.422   9.794  1.3696 -0.6734 -0.3434
 8555TIP3    H249861   5.410   5.303   9.828 -0.1125  0.3235 -0.5429
 8556TIP3   OH249862   4.018   1.393  10.719  0.2058  0.7983 -0.1752
 8556TIP3    H149863   3.990   1.305  10.746 -0.1492  0.2084 -2.2935
 8556TIP3    H249864   4.093   1.412  10.775  2.4119 -2.2851 -1.7640
 8557TIP3   OH249865   0.448   5.573   9.721 -1.0056 -0.6213 -0.1036
 8557TIP3    H149866   0.421   5.654   9.679 -1.0442 -0.1187  0.8727
 8557TIP3    H249867   0.446   5.592   9.815 -0.0640 -1.4439  0.1021
 8558TIP3   OH249868   1.458   1.710  10.247  0.2190 -0.3919 -0.4566
 8558TIP3    H149869   1.445   1.621  10.214 -1.1876 -0.7248  0.8926
 8558TIP3    H249870   1.479   1.761  10.169 -1.4242 -1.4475 -1.6706
 8559TIP3   OH249871   3.554   2.394  11.173 -0.1906 -0.4068 -0.0025
 8559TIP3    H149872   3.585   2.484  11.169  0.9808 -0.8367 -0.9270
 8559TIP3    H249873   3.632   2.342  11.195 -0.6194 -1.3055 -0.5425
 8560TIP3   OH249874   1.935   5.750  11.021 -0.5884  0.1472  0.4327
 8560TIP3    H149875   1.998   5.689  10.981  1.7990  1.5466  1.8118
 8560TIP3    H249876   1.894   5.699  11.091  0.2238 -0.3460  0.5715
 8561TIP3   OH249877   5.324   6.496  10.133 -0.2730 -0.0028 -0.0146
 8561TIP3    H149878   5.257   6.519  10.068 -0.8557 -0.6630  0.3328
 8561TIP3    H249879   5.292   6.536  10.214  1.5442  2.7323 -0.4903
 8562TIP3   OH249880   2.928   6.484  18.905 -0.5738 -0.3591 -0.3747
 8562TIP3    H149881   2.951   6.405  18.856  0.1917 -0.1531 -0.3652
 8562TIP3    H249882   2.861   6.456  18.967 -2.2028 -0.4424 -2.0932
 8563TIP3   OH249883   4.273   2.522  11.722 -0.0119 -0.0714 -0.4201
 8563TIP3    H149884   4.350   2.576  11.736 -0.2088  0.3104 -0.7881
 8563TIP3    H249885   4.286   2.446  11.779  1.0923 -0.4934 -1.2119
 8564TIP3   OH249886   2.045   0.185   9.536  0.7173 -0.0173  0.0028
 8564TIP3    H149887   1.991   0.263   9.552 -1.0814 -0.8201 -1.7635
 8564TIP3    H249888   2.132   0.219   9.516  0.5564  1.4005  1.5083
 8565TIP3   OH249889   6.052   3.017   9.403 -0.1185  0.2587  0.4913
 8565TIP3    H149890   5.978   3.040   9.347  0.5863 -1.1529 -1.1170
 8565TIP3    H249891   6.047   3.079   9.476 -2.8185  0.2369  0.4227
 8566TIP3   OH249892   3.924   1.587   9.704 -0.4680  0.6399 -0.4922
 8566TIP3    H149893   3.904   1.608   9.613 -0.7805  4.0914  0.2159
 8566TIP3    H249894   3.963   1.668   9.739  2.9051 -1.6213  1.5999
 8567TIP3   OH249895   2.445   1.904   9.496  0.0417  0.2399 -0.0651
 8567TIP3    H149896   2.354   1.916   9.467  0.1466 -0.1874 -0.5758
 8567TIP3    H249897   2.490   1.867   9.420  0.5636  0.1043  0.3047
 8568TIP3   OH249898   0.175   3.164  11.634  0.0846 -0.2810 -0.3536
 8568TIP3    H149899   0.238   3.202  11.695  1.4423 -0.8109 -1.3672
 8568TIP3    H249900   0.197   3.071  11.630 -0.6385 -0.4468 -0.8775
 8569TIP3   OH249901   6.111   5.687   9.130 -0.1089 -0.4592 -0.2288
 8569TIP3    H149902   6.162   5.755   9.174 -2.3217 -1.0113  3.6858
 8569TIP3    H249903   6.166   5.609   9.135  0.4083 -0.0852 -0.0160
 8570TIP3   OH249904   5.857   1.022   9.953 -0.8556  0.0154  0.2288
 8570TIP3    H149905   5.952   1.022   9.944 -0.9490  0.9309 -0.9496
 8570TIP3    H249906   5.829   0.936   9.923 -0.4933  0.2256 -0.7464
 8571TIP3   OH249907   3.201   2.709   9.863  0.3413  0.3956  0.3936
 8571TIP3    H149908   3.164   2.624   9.886 -0.7739  0.5661 -0.6636
 8571TIP3    H249909   3.168   2.769   9.930  3.1289 -0.3738  2.6179
 8572TIP3   OH249910   1.150   1.297  10.938  0.1263 -0.7291  0.2260
 8572TIP3    H149911   1.142   1.389  10.965 -0.7221 -1.0802  1.2269
 8572TIP3    H249912   1.060   1.267  10.928  0.3814 -1.6285  0.5141
 8573TIP3   OH249913   3.822   0.867  11.383 -0.5421  0.5070  0.3783
 8573TIP3    H149914   3.889   0.901  11.324  0.7291 -1.2887  0.7160
 8573TIP3    H249915   3.796   0.783  11.344 -2.5141  1.0974  0.3411
 8574TIP3   OH249916   1.392   3.367  10.151 -0.2954 -0.6310  0.0825
 8574TIP3    H149917   1.463   3.428  10.131  0.3539 -0.9421  1.3671
 8574TIP3    H249918   1.316   3.423  10.167  0.5220 -0.0699  2.2091
 8575TIP3   OH249919   4.525   6.058  10.494  0.8473  0.6142  0.4436
 8575TIP3    H149920   4.615   6.080  10.473  1.4382 -2.3036 -0.3992
 8575TIP3    H249921   4.474   6.134  10.463  2.9781  2.5029  1.3406
 8576TIP3   OH249922   5.815   1.522  11.513  0.2831 -0.2061 -0.0070
 8576TIP3    H149923   5.869   1.544  11.437  2.0174  0.5196  1.3567
 8576TIP3    H249924   5.836   1.590  11.578 -0.2590 -1.4416  1.5249
 8577TIP3   OH249925   4.051   5.372  10.131 -0.4775  0.0032 -0.1990
 8577TIP3    H149926   4.128   5.315  10.133  0.1124  0.7770  0.0686
 8577TIP3    H249927   4.017   5.369  10.221 -0.9334 -0.5547 -0.3850
 8578TIP3   OH249928   5.792   3.530  12.081  0.4464 -0.5770 -0.4338
 8578TIP3    H149929   5.807   3.460  12.144  3.4425  0.1196 -0.2127
 8578TIP3    H249930   5.842   3.505  12.004  0.2858  0.5752 -0.9380
 8579TIP3   OH249931   6.089   3.297  11.358 -0.7157  0.3486  0.4044
 8579TIP3    H149932   5.999   3.271  11.340 -0.4355  1.3737 -3.3777
 8579TIP3    H249933   6.143   3.233  11.311  0.3361  1.7401 -0.3646
 8580TIP3   OH249934   2.957   0.041  11.255 -0.0660 -0.3659  0.4163
 8580TIP3    H149935   2.933   0.035  11.348 -0.9821 -0.8333  0.1571
 8580TIP3    H249936   2.906   0.114  11.221 -0.2207 -0.6071  0.1277
 8581TIP3   OH249937   2.407   5.492  13.147 -0.4414  0.2256 -0.6085
 8581TIP3    H149938   2.372   5.463  13.063  2.0563  2.2524 -2.5206
 8581TIP3    H249939   2.496   5.457  13.150  0.7936  3.0590 -0.6013
 8582TIP3   OH249940   4.794   6.353   9.158  0.3539  0.0738  0.0415
 8582TIP3    H149941   4.784   6.295   9.233 -0.2874 -1.5814 -1.2771
 8582TIP3    H249942   4.862   6.312   9.105 -1.2168 -0.3876 -1.7066
 8583TIP3   OH249943   5.165   5.847   8.985  0.5970  0.4317 -0.1055
 8583TIP3    H149944   5.195   5.790   8.915  1.4334  0.1508  0.4581
 8583TIP3    H249945   5.084   5.807   9.016 -0.8296  1.5845 -2.1210
 8584TIP3   OH249946   5.913   5.504   9.769 -0.2034 -0.1775  0.0645
 8584TIP3    H149947   5.975   5.433   9.751 -1.1514 -0.7710 -1.0557
 8584TIP3    H249948   5.929   5.568   9.699 -0.8551 -0.3541 -0.2586
 8585TIP3   OH249949   1.070   0.716   9.184  0.1383  0.1345 -0.1994
 8585TIP3    H149950   1.011   0.781   9.148 -1.1598 -0.5496  0.6370
 8585TIP3    H249951   1.157   0.741   9.151 -0.4721  1.6854 -0.6832
 8586TIP3   OH249952   0.940   5.662  12.104  0.0799 -0.0505 -0.2932
 8586TIP3    H149953   0.918   5.630  12.016  1.9654  0.9671 -1.2182
 8586TIP3    H249954   0.857   5.663  12.151 -0.6656 -2.5192 -1.4043
 8587TIP3   OH249955   6.397   3.221  11.152  0.2917  0.5845 -0.1137
 8587TIP3    H149956   6.430   3.309  11.133 -0.0498  0.6197 -0.5676
 8587TIP3    H249957   6.457   3.163  11.105  0.8923  0.5322  0.6962
 8588TIP3   OH249958   3.791   1.977  10.864  0.1224 -0.3619 -0.1326
 8588TIP3    H149959   3.789   1.882  10.869  2.5887 -0.4437  0.8164
 8588TIP3    H249960   3.829   1.996  10.778  2.0317 -0.3850  0.6434
 8589TIP3   OH249961   2.593   3.583   9.448  0.2740  0.0302 -0.5234
 8589TIP3    H149962   2.535   3.655   9.471  0.3541 -0.5933  1.8588
 8589TIP3    H249963   2.682   3.617   9.461  0.3354 -0.1756 -0.3899
 8590TIP3   OH249964   2.964   6.243  12.174 -0.3037  0.0450  0.1782
 8590TIP3    H149965   3.024   6.313  12.150  0.1849 -0.6421 -0.6553
 8590TIP3    H249966   3.009   6.196  12.245  0.1269 -0.4227 -0.3934
 8591TIP3   OH249967   2.220   3.635   9.280  0.4090  0.0419 -0.1511
 8591TIP3    H149968   2.254   3.723   9.265 -0.7575  0.4304 -0.6718
 8591TIP3    H249969   2.292   3.577   9.257  2.1821  0.8651  2.8174
 8592TIP3   OH249970   2.012   2.122   9.489 -0.4292  0.0247  0.7478
 8592TIP3    H149971   1.926   2.162   9.476 -0.2156  0.2872  0.0997
 8592TIP3    H249972   2.023   2.117   9.584 -1.3746 -0.4672  0.8392
 8593TIP3   OH249973   2.230   2.139  11.496 -0.2002  0.3589 -0.4701
 8593TIP3    H149974   2.189   2.061  11.533 -1.7236  0.5916 -1.6011
 8593TIP3    H249975   2.316   2.109  11.467 -0.4900 -0.7247 -0.2469
 8594TIP3   OH249976   5.948   1.564  12.326 -0.2803 -0.8254  0.2995
 8594TIP3    H149977   5.992   1.612  12.396  1.1668 -1.3219 -0.2405
 8594TIP3    H249978   5.926   1.479  12.365 -2.3219 -0.0078  1.0756
 8595TIP3   OH249979   5.324   5.663   9.714 -0.5316 -0.1210  0.8324
 8595TIP3    H149980   5.352   5.600   9.781  0.2656 -2.1047 -1.2330
 8595TIP3    H249981   5.229   5.665   9.722 -0.3831  1.2914  3.3123
 8596TIP3   OH249982   5.790   2.493  11.895 -0.2991 -0.5939  0.3004
 8596TIP3    H149983   5.853   2.496  11.823 -0.2628  0.3260  0.3656
 8596TIP3    H249984   5.705   2.490  11.851 -0.2218 -2.0793  0.2098
 8597TIP3   OH249985   4.937   0.928  11.658  0.0357 -0.6644  0.2500
 8597TIP3    H149986   4.859   0.977  11.631  0.2119  0.2775  1.3517
 8597TIP3    H249987   5.010   0.981  11.628  0.2397 -0.8900  0.3525
 8598TIP3   OH249988   6.618   0.279  11.055  0.2193 -0.6694 -0.2480
 8598TIP3    H149989   6.608   0.196  11.008  2.6245 -0.1442 -1.8367
 8598TIP3    H249990   6.687   0.261  11.120  0.1646 -0.1226 -0.0345
 8599TIP3   OH249991   4.806   3.781   9.338 -0.1371  0.3748 -0.1679
 8599TIP3    H149992   4.901   3.788   9.336 -0.1339  2.0508  2.0308
 8599TIP3    H249993   4.784   3.770   9.430 -2.1188  0.9277 -0.5173
 8600TIP3   OH249994   2.917   4.457   9.667 -0.4817  0.3278  0.3640
 8600TIP3    H149995   3.011   4.444   9.679 -0.7219 -0.4270  1.6239
 8600TIP3    H249996   2.895   4.400   9.593 -0.2329 -0.9140  1.2087
 8601TIP3   OH249997   3.970   3.503  10.085  0.5090  0.0340 -0.3757
 8601TIP3    H149998   4.019   3.584  10.095  0.7205  0.0698 -1.5580
 8601TIP3    H249999   3.898   3.510  10.148  1.9087  0.0394  1.3203
 8602TIP3   OH250000   2.141   6.072  12.234 -0.0016  0.1370  0.3857
 8602TIP3    H150001   2.188   6.137  12.286 -0.7075  0.9082  0.0965
 8602TIP3    H250002   2.080   6.124  12.181 -1.8402 -0.8701  1.4134
 8603TIP3   OH250003   3.765   6.289  11.524  0.7691  0.1623 -0.1688
 8603TIP3    H150004   3.857   6.292  11.500  0.3629  0.2976 -1.8687
 8603TIP3    H250005   3.746   6.196  11.534  0.5638 -0.0759 -2.2533
 8604TIP3   OH250006   4.564   4.755   9.988 -0.0399  0.0802  0.5416
 8604TIP3    H150007   4.500   4.743   9.918  0.0356  0.6297  0.3716
 8604TIP3    H250008   4.516   4.802  10.057 -0.1494 -0.5657  0.9202
 8605TIP3   OH250009   2.111   1.371  11.982  0.1971 -0.1956 -0.1886
 8605TIP3    H150010   2.196   1.333  11.962  0.5377  0.0863  0.6600
 8605TIP3    H250011   2.077   1.317  12.054  0.1988  0.4262  0.2863
 8606TIP3   OH250012   4.794   3.186  11.297 -0.2628  0.2808  0.4254
 8606TIP3    H150013   4.868   3.182  11.358  0.9602  1.4927 -0.9026
 8606TIP3    H250014   4.775   3.279  11.288 -1.7041 -0.0020  0.4433
 8607TIP3   OH250015   4.400   2.406   9.784 -0.3580 -0.4600  0.1117
 8607TIP3    H150016   4.374   2.322   9.821 -1.4129  1.1032  3.3246
 8607TIP3    H250017   4.354   2.411   9.700 -1.5017 -2.4252  0.5722
 8608TIP3   OH250018   1.078   0.083  11.505  0.4789 -0.1615 -0.7558
 8608TIP3    H150019   1.139   0.095  11.433  2.4297  0.2847  0.8837
 8608TIP3    H250020   1.099  -0.002  11.542  1.0363  0.5359  0.6158
 8609TIP3   OH250021   1.804   1.808  11.319  0.5907 -0.2182 -0.7601
 8609TIP3    H150022   1.775   1.718  11.304  0.6644 -0.1342 -1.4393
 8609TIP3    H250023   1.724   1.857  11.338  0.3753 -0.1417 -1.8366
 8610TIP3   OH250024   0.578   6.404  10.129  0.5595  0.2367 -0.3675
 8610TIP3    H150025   0.545   6.468  10.065 -0.5587 -0.2205 -0.2682
 8610TIP3    H250026   0.499   6.361  10.163  0.8842  2.0558  3.0591
 8611TIP3   OH250027   0.956   2.306   9.627  1.0022 -0.0616  0.2865
 8611TIP3    H150028   0.987   2.314   9.537  1.3594 -1.2353  0.2911
 8611TIP3    H250029   0.862   2.287   9.617  0.9802  0.0924  0.1805
 8612TIP3   OH250030   6.495   2.138  10.095  0.1449 -0.4060  0.2160
 8612TIP3    H150031   6.406   2.159  10.065  0.8355  0.6638 -1.1614
 8612TIP3    H250032   6.490   2.147  10.190 -0.6831  1.8552  0.0158
 8613TIP3   OH250033   2.977   1.933  10.453 -0.0467 -0.0239  0.0057
 8613TIP3    H150034   2.920   1.878  10.506  0.6548  0.1557  0.9782
 8613TIP3    H250035   3.065   1.899  10.468  0.1937  0.1584 -0.9016
 8614TIP3   OH250036   1.055   0.882  10.426 -0.2406 -0.6359 -0.1203
 8614TIP3    H150037   1.089   0.914  10.509 -0.6462 -1.5942  0.4242
 8614TIP3    H250038   1.129   0.838  10.385 -0.3033 -1.0397  0.1945
 8615TIP3   OH250039   3.877   1.075  11.136 -0.7745 -0.0657 -0.0257
 8615TIP3    H150040   3.797   1.058  11.087 -0.6357 -0.1277 -0.2341
 8615TIP3    H250041   3.933   0.999  11.118 -0.6325  0.0224  0.0404
 8616TIP3   OH250042   1.798   0.811  10.867 -0.2320  0.0963  0.0634
 8616TIP3    H150043   1.882   0.772  10.842  0.3893 -0.0489  2.2151
 8616TIP3    H250044   1.817   0.904  10.880 -0.5804  0.2032 -0.1794
 8617TIP3   OH250045   1.889   0.272   9.118 -0.1865 -0.6958  0.2589
 8617TIP3    H150046   1.810   0.323   9.137  0.7744  0.7992  0.3728
 8617TIP3    H250047   1.883   0.196   9.177 -1.1966 -0.2543  0.7455
 8618TIP3   OH250048   5.256   3.505  10.424 -0.1315 -0.3393  0.3253
 8618TIP3    H150049   5.294   3.584  10.385  1.8409 -2.1888 -1.7430
 8618TIP3    H250050   5.180   3.485  10.369  1.3428 -1.6895 -1.3215
 8619TIP3   OH250051   4.457   0.980  12.104 -0.1603  0.0819 -0.2482
 8619TIP3    H150052   4.508   0.999  12.026  0.7179  0.0512  0.3012
 8619TIP3    H250053   4.471   1.056  12.161  0.6372 -0.6724  0.5832
 8620TIP3   OH250054   1.444   6.028   9.928  0.3447 -0.1028 -0.5634
 8620TIP3    H150055   1.492   6.107   9.901  1.4485 -0.7934 -0.7020
 8620TIP3    H250056   1.392   6.056  10.003  1.6940  0.4799  0.1861
 8621TIP3   OH250057   2.897   4.167   9.498  0.0300 -0.6094 -0.2826
 8621TIP3    H150058   2.857   4.177   9.412  0.6196 -0.9024 -0.5893
 8621TIP3    H250059   2.883   4.075   9.520 -0.5023 -0.4383  0.1322
 8622TIP3   OH250060   2.836   2.083  10.690  0.1956  0.2266  0.3072
 8622TIP3    H150061   2.779   2.056  10.619 -0.4712  0.2073  0.8443
 8622TIP3    H250062   2.869   2.169  10.663  1.5685 -0.6588 -0.9538
 8623TIP3   OH250063   5.658   0.366  11.950  0.2975  0.2266  0.0460
 8623TIP3    H150064   5.573   0.391  11.987  0.1240  0.1436 -0.2992
 8623TIP3    H250065   5.707   0.448  11.944  0.5689  0.1623  1.0681
 8624TIP3   OH250066   1.695   5.987  10.066  0.8553  0.1890 -0.2347
 8624TIP3    H150067   1.731   5.929   9.999 -0.5692 -0.8221 -0.1794
 8624TIP3    H250068   1.601   5.968  10.065  0.4066  2.1715  0.1304
 8625TIP3   OH250069   5.726   5.471  10.128 -0.2049 -0.2221 -0.4279
 8625TIP3    H150070   5.796   5.533  10.108 -1.3796  0.7045 -1.8929
 8625TIP3    H250071   5.766   5.408  10.188  1.2132  1.5734  0.6148
 8626TIP3   OH250072   0.464   2.902   9.327  0.4796  0.0351  0.4514
 8626TIP3    H150073   0.490   2.924   9.238  0.4172  2.5962  0.9687
 8626TIP3    H250074   0.544   2.914   9.379  0.1019  0.4045  0.9711
 8627TIP3   OH250075   3.117   0.849  11.815 -0.1175 -0.2351  0.1308
 8627TIP3    H150076   3.213   0.851  11.816 -0.1327  0.2917  0.6871
 8627TIP3    H250077   3.094   0.841  11.722  0.4362  0.9243 -0.1159
 8628TIP3   OH250078   5.356   3.018   9.729  0.3163  0.4258 -0.0087
 8628TIP3    H150079   5.282   2.996   9.786  0.4360 -0.3593 -0.1487
 8628TIP3    H250080   5.326   2.996   9.641  1.2953 -1.5362  0.0949
 8629TIP3   OH250081   4.423   5.917  12.251  0.0897  0.3327 -0.2856
 8629TIP3    H150082   4.427   5.848  12.317 -0.5218 -0.6445 -1.2475
 8629TIP3    H250083   4.505   5.908  12.202  1.2437  1.9853  1.1716
 8630TIP3   OH250084   3.918   2.370  10.534  0.1809 -0.0988  0.2636
 8630TIP3    H150085   3.986   2.428  10.567  0.1352  1.1948 -1.7445
 8630TIP3    H250086   3.966   2.300  10.490  0.2334  0.3420 -0.3904
 8631TIP3   OH250087   1.078   2.404  10.157  0.4067  0.1090 -0.1526
 8631TIP3    H150088   1.069   2.367  10.069  1.8108  1.9850 -1.1527
 8631TIP3    H250089   1.146   2.352  10.198  0.3748 -0.2123 -0.4966
 8632TIP3   OH250090   1.533   1.978   9.468 -0.3692 -0.3282  0.5295
 8632TIP3    H150091   1.472   1.916   9.427 -2.4402 -0.6006  3.7406
 8632TIP3    H250092   1.489   2.062   9.463  0.6632  0.1875 -0.2793
 8633TIP3   OH250093   4.604   1.002   9.241 -0.3482  0.2920  0.2456
 8633TIP3    H150094   4.646   0.940   9.182  0.8078 -0.0634  1.3808
 8633TIP3    H250095   4.677   1.043   9.288 -1.1627  1.5040  0.5086
 8634TIP3   OH250096   1.381   5.839   9.749 -0.1056 -0.0649  0.4384
 8634TIP3    H150097   1.421   5.856   9.834  0.2782  0.0549  0.2386
 8634TIP3    H250098   1.417   5.907   9.691 -0.2004 -0.2668  0.1360
 8635TIP3   OH250099   2.563   6.021   9.683  0.0519 -0.2467  0.3216
 8635TIP3    H150100   2.582   6.095   9.741 -1.5512  0.6847 -0.2724
 8635TIP3    H250101   2.603   6.045   9.600  0.7674 -0.7334  0.5167
 8636TIP3   OH250102   3.367   5.864  12.463 -0.4076  0.7006  0.3815
 8636TIP3    H150103   3.403   5.783  12.425 -1.8628  0.5671 -0.7993
 8636TIP3    H250104   3.429   5.887  12.532 -0.7828 -2.3573  1.9468
 8637TIP3   OH250105   2.303   3.366  10.738 -0.5250 -0.1414  0.0308
 8637TIP3    H150106   2.379   3.356  10.795 -1.7591  0.0103  1.7714
 8637TIP3    H250107   2.289   3.278  10.701  0.2189 -0.2660  0.0253
 8638TIP3   OH250108   5.077   5.271   9.425  0.0117  0.1524 -0.1503
 8638TIP3    H150109   5.151   5.331   9.438  0.5083 -0.7090  1.2915
 8638TIP3    H250110   5.005   5.312   9.473 -0.2062  0.5620 -0.8225
 8639TIP3   OH250111   3.320   6.249  10.666 -0.0347 -0.4310 -0.0763
 8639TIP3    H150112   3.345   6.250  10.758  0.8316 -0.5365 -0.2978
 8639TIP3    H250113   3.228   6.274  10.665 -0.3440 -1.4935  0.9018
 8640TIP3   OH250114   6.214   4.641  10.043 -0.5439 -0.2053 -0.0485
 8640TIP3    H150115   6.259   4.557  10.037 -1.9943 -0.9782 -0.8755
 8640TIP3    H250116   6.166   4.637  10.125 -2.0562 -1.0003 -0.9215
 8641TIP3   OH250117   0.277   6.056  11.135 -0.1616  0.0847  0.1458
 8641TIP3    H150118   0.336   6.020  11.202  0.5442 -1.4656 -1.2658
 8641TIP3    H250119   0.208   6.100  11.186  0.3381 -1.0427  1.8954
 8642TIP3   OH250120   1.636   2.369  11.749  0.0327 -0.0983 -0.1272
 8642TIP3    H150121   1.640   2.464  11.763 -1.8525 -0.0885  0.6220
 8642TIP3    H250122   1.600   2.360  11.661  2.8849 -0.1858 -1.4079
 8643TIP3   OH250123   0.189   0.148  11.355 -0.3774 -0.1975  0.4193
 8643TIP3    H150124   0.150   0.235  11.367 -2.0368 -0.3831 -2.4803
 8643TIP3    H250125   0.134   0.090  11.407 -0.4795  0.2577  0.8252
 8644TIP3   OH250126   6.148   3.183  11.970 -0.3284  0.0726  0.1414
 8644TIP3    H150127   6.118   3.271  11.948  0.2609  0.1976 -0.1728
 8644TIP3    H250128   6.225   3.168  11.915 -0.2033 -0.4983  0.4536
 8645TIP3   OH250129   4.945   1.438   9.363  0.3501  0.3255  0.2532
 8645TIP3    H150130   5.004   1.496   9.315  1.6117 -0.1122  1.1984
 8645TIP3    H250131   4.980   1.350   9.347  0.0841  0.0777  0.9802
 8646TIP3   OH250132   1.312   2.928   9.247 -0.7234  0.4098  0.2184
 8646TIP3    H150133   1.301   3.004   9.189 -0.5964  0.2072 -0.0701
 8646TIP3    H250134   1.294   2.963   9.334  0.2592  0.9904  0.2025
 8647TIP3   OH250135   0.458   2.545  11.526 -0.5208  0.2026 -0.3350
 8647TIP3    H150136   0.494   2.473  11.474 -1.1945 -0.8265  0.5722
 8647TIP3    H250137   0.425   2.503  11.605  1.9145  1.8835  1.7508
 8648TIP3   OH250138   1.412   2.667  11.649 -0.1932 -0.5711  0.4116
 8648TIP3    H150139   1.336   2.662  11.590 -0.8700 -0.5871  1.2708
 8648TIP3    H250140   1.486   2.686  11.591 -0.9503  0.0707 -0.3742
 8649TIP3   OH250141   0.690   1.828  10.839 -0.0851  0.4724 -1.1249
 8649TIP3    H150142   0.658   1.918  10.846 -0.5910  0.2449 -0.4227
 8649TIP3    H250143   0.626   1.784  10.784 -1.1989 -0.0630  0.5403
 8650TIP3   OH250144   1.842   3.660   9.844  0.4248 -0.2379  0.0690
 8650TIP3    H150145   1.786   3.584   9.827  0.6026 -0.0215 -1.6789
 8650TIP3    H250146   1.794   3.710   9.910 -0.8912 -0.6651 -0.5210
 8651TIP3   OH250147   0.468   5.170  12.409 -1.0826  0.1697  0.3014
 8651TIP3    H150148   0.414   5.178  12.487  0.1268  0.6975  1.1219
 8651TIP3    H250149   0.556   5.151  12.442 -0.9850 -2.0599 -1.0394
 8652TIP3   OH250150   1.697   1.166   9.115  0.3740 -0.3187  0.5345
 8652TIP3    H150151   1.682   1.086   9.065  0.7034 -1.4193  2.1302
 8652TIP3    H250152   1.781   1.153   9.158 -0.1722  0.2831  1.8670
 8653TIP3   OH250153   5.620   6.570  12.268 -0.8381  0.1827  0.1385
 8653TIP3    H150154   5.704   6.553  12.311 -0.9597  1.0037  0.7251
 8653TIP3    H250155   5.633   6.540  12.178  0.5836  1.6559 -0.1890
 8654TIP3   OH250156   3.151   5.118  11.630  0.6022  0.6576 -0.1375
 8654TIP3    H150157   3.229   5.102  11.577  0.6670  0.3458  0.0533
 8654TIP3    H250158   3.170   5.199  11.677  0.2442  1.3722 -1.1614
 8655TIP3   OH250159   3.979   1.203  11.357  0.3459  0.3316  0.4136
 8655TIP3    H150160   3.953   1.214  11.266  1.1842  2.8873  0.3962
 8655TIP3    H250161   3.898   1.182  11.403 -0.6201  1.7936 -0.5344
 8656TIP3   OH250162   5.080   5.746  10.960 -0.1450 -0.3271 -0.0548
 8656TIP3    H150163   5.114   5.738  11.049  1.2983 -1.4657 -0.6827
 8656TIP3    H250164   5.115   5.829  10.929  1.3773 -1.0649 -0.3781
 8657TIP3   OH250165   4.492   0.616  13.179  0.7038  0.0627  0.1557
 8657TIP3    H150166   4.443   0.675  13.123  3.1477 -0.2271 -2.4970
 8657TIP3    H250167   4.436   0.539  13.187 -0.8236  1.1559  0.3844
 8658TIP3   OH250168   1.448   5.992   9.546  0.3202 -0.0745 -0.6001
 8658TIP3    H150169   1.510   5.948   9.487 -0.0866  0.0723 -1.1455
 8658TIP3    H250170   1.490   6.075   9.567  1.5002 -1.0556  1.1417
 8659TIP3   OH250171   6.331   4.591  10.952 -0.1828 -0.3499 -0.0455
 8659TIP3    H150172   6.308   4.550  10.869 -2.7178  0.2798  0.2697
 8659TIP3    H250173   6.329   4.520  11.016  0.0721 -0.5300 -0.2357
 8660TIP3   OH250174   2.867   5.430  11.588 -0.2289 -0.9353 -0.1625
 8660TIP3    H150175   2.941   5.370  11.581  0.4980  0.1601 -4.3890
 8660TIP3    H250176   2.812   5.411  11.512 -2.2230  0.9254  0.6967
 8661TIP3   OH250177   0.833   6.473  10.956 -0.5859  0.3148 -0.0214
 8661TIP3    H150178   0.796   6.499  10.871 -0.6150  1.5088  0.3348
 8661TIP3    H250179   0.905   6.535  10.970  0.6973 -1.1025 -0.0625
 8662TIP3   OH250180   3.720   5.657  11.149  0.0933 -0.8007  0.5442
 8662TIP3    H150181   3.657   5.637  11.219  0.9816  0.8314  1.8860
 8662TIP3    H250182   3.733   5.573  11.105 -2.8782 -1.2264  0.2827
 8663TIP3   OH250183   0.117   5.136  11.961  0.1659  0.1276  0.5670
 8663TIP3    H150184   0.110   5.229  11.938  0.4464  0.1818  0.6984
 8663TIP3    H250185   0.162   5.097  11.887  1.3858  0.3643  1.1542
 8664TIP3   OH250186   3.062   3.272  10.884  0.3244  0.0404  0.3805
 8664TIP3    H150187   3.105   3.336  10.827  0.3168 -1.0016 -0.8195
 8664TIP3    H250188   3.114   3.275  10.965  1.6662  0.0083 -0.4402
 8665TIP3   OH250189   1.798   6.395  12.935  0.0878 -0.2865 -0.5760
 8665TIP3    H150190   1.752   6.371  13.015  1.4070 -1.1985 -0.0392
 8665TIP3    H250191   1.746   6.465  12.897  0.0248  1.0159  1.6960
 8666TIP3   OH250192   1.389   1.411  10.829 -0.2134 -0.5876  0.3951
 8666TIP3    H150193   1.308   1.371  10.861  0.0033 -0.2879  1.3372
 8666TIP3    H250194   1.436   1.339  10.786 -0.3611 -1.0725  1.0318
 8667TIP3   OH250195   5.979   2.148  11.358 -0.1670  0.0474  0.8297
 8667TIP3    H150196   5.886   2.167  11.357 -0.8195 -2.7450  1.0207
 8667TIP3    H250197   6.008   2.169  11.447 -1.3596 -1.9716  1.7583
 8668TIP3   OH250198   5.701   4.981  11.193  0.1770  0.2737  0.5304
 8668TIP3    H150199   5.685   5.050  11.129  0.5283  0.6004  0.7901
 8668TIP3    H250200   5.751   4.915  11.145 -2.8654 -1.3566 -0.6665
 8669TIP3   OH250201   5.318   2.272  11.474 -0.1585 -0.2039 -0.4636
 8669TIP3    H150202   5.383   2.234  11.415  1.8475  2.3080 -0.0511
 8669TIP3    H250203   5.319   2.214  11.550  2.9875  0.6104  0.2647
 8670TIP3   OH250204   5.640   0.978   9.734 -0.0135  0.2953 -0.4540
 8670TIP3    H150205   5.628   1.043   9.803 -0.0776 -0.7586  0.5628
 8670TIP3    H250206   5.639   0.894   9.780  0.6397 -0.4018 -1.6569
 8671TIP3   OH250207   6.278   6.240   9.667 -0.0962 -0.1116 -0.5402
 8671TIP3    H150208   6.325   6.287   9.598 -0.0186  0.8200  0.1276
 8671TIP3    H250209   6.345   6.218   9.731 -0.3252 -0.0990 -0.2930
 8672TIP3   OH250210   4.742   5.633  10.450  0.4183  0.5553 -0.2717
 8672TIP3    H150211   4.805   5.701  10.475 -0.6125  1.2323  0.5807
 8672TIP3    H250212   4.709   5.662  10.364  0.1591  1.0225 -0.0209
 8673TIP3   OH250213   0.768   3.173  11.640 -0.6248  0.2268  0.2403
 8673TIP3    H150214   0.837   3.234  11.665  0.1286 -0.3152 -0.4842
 8673TIP3    H250215   0.765   3.110  11.712 -0.6376  0.4646  0.4538
 8674TIP3   OH250216   3.252   5.329  10.492 -0.0685 -0.8504  0.2672
 8674TIP3    H150217   3.198   5.261  10.532 -0.8715  0.1603  0.9341
 8674TIP3    H250218   3.190   5.397  10.466  0.8673  0.3604  1.1116
 8675TIP3   OH250219   2.368   1.732  11.954 -0.1314  0.0774  0.1209
 8675TIP3    H150220   2.395   1.672  11.884  1.8204  1.0443 -0.0037
 8675TIP3    H250221   2.311   1.795  11.910 -0.5203 -0.4714 -0.1729
 8676TIP3   OH250222   0.002   6.188  12.196 -0.5475 -0.0933 -0.1512
 8676TIP3    H150223  -0.062   6.223  12.134 -2.0619 -1.3550  0.6240
 8676TIP3    H250224   0.038   6.265  12.239  1.1417  0.9080 -3.0440
 8677TIP3   OH250225   2.795   3.181   9.933 -0.1953  0.4626 -0.2589
 8677TIP3    H150226   2.702   3.159   9.926 -0.5296  1.8673 -0.3858
 8677TIP3    H250227   2.838   3.097   9.952 -1.6764  0.0605  1.6193
 8678TIP3   OH250228   5.507   5.021   9.634  0.6110 -0.3364 -0.7022
 8678TIP3    H150229   5.470   5.025   9.722  0.2744  2.5996 -0.8918
 8678TIP3    H250230   5.602   5.023   9.648  0.6080 -1.4514 -0.4066
 8679TIP3   OH250231   5.305   0.188  12.370 -0.1546 -0.9256  0.3233
 8679TIP3    H150232   5.309   0.284  12.371  0.7204 -0.9248  2.1328
 8679TIP3    H250233   5.252   0.166  12.447  0.3684 -1.8941  0.4187
 8680TIP3   OH250234   0.043   5.290  10.669 -0.0009  0.5363 -0.8637
 8680TIP3    H150235  -0.035   5.240  10.645  0.5657 -0.3202 -0.9898
 8680TIP3    H250236   0.029   5.315  10.760 -0.0917 -0.2897 -0.6395
 8681TIP3   OH250237   2.344   5.584  13.394 -0.6855 -0.0548  0.2707
 8681TIP3    H150238   2.256   5.615  13.370 -0.6398  0.5209  0.8236
 8681TIP3    H250239   2.379   5.548  13.313 -0.8058  1.2001 -0.3735
 8682TIP3   OH250240   1.724   1.424   9.702 -0.7232 -0.4148  0.5529
 8682TIP3    H150241   1.764   1.382   9.777 -1.3364 -0.5992  0.7824
 8682TIP3    H250242   1.779   1.500   9.684  0.2702 -1.1790  0.2703
 8683TIP3   OH250243   0.497   1.489  12.710  0.2983  0.2845 -0.0196
 8683TIP3    H150244   0.413   1.491  12.664  0.7227  1.1626 -0.7897
 8683TIP3    H250245   0.476   1.455  12.796 -0.7283 -0.2270 -0.4498
 8684TIP3   OH250246   4.488   1.512  11.179  0.4081  0.2809 -0.0104
 8684TIP3    H150247   4.448   1.549  11.258  0.0173 -0.5250  0.1897
 8684TIP3    H250248   4.450   1.561  11.107 -2.3094 -1.5375  0.0400
 8685TIP3   OH250249   1.729   6.151  10.679  0.1756 -0.5076  0.0099
 8685TIP3    H150250   1.769   6.074  10.720  1.3509 -0.2811 -0.6761
 8685TIP3    H250251   1.790   6.176  10.610 -0.6868  0.4472 -0.4313
 8686TIP3   OH250252   3.585   5.596  10.339  0.0290  0.1733 -0.0976
 8686TIP3    H150253   3.601   5.639  10.424 -1.4554  0.0481  0.2649
 8686TIP3    H250254   3.586   5.502  10.359  0.0658  0.1331 -0.2903
 8687TIP3   OH250255   3.383   1.042  12.681 -0.0562 -0.1789  0.1032
 8687TIP3    H150256   3.353   0.985  12.752 -1.6404  0.6598  0.1336
 8687TIP3    H250257   3.363   1.130  12.711 -0.9382  0.1786 -1.4462
 8688TIP3   OH250258   0.685   6.630   9.303 -0.1797  0.8186  0.1114
 8688TIP3    H150259   0.775   6.609   9.327  0.2213  1.8339 -0.4090
 8688TIP3    H250260   0.647   6.669   9.382  0.2118  1.4680 -0.0175
 8689TIP3   OH250261   0.302   5.676   9.362  0.3823 -0.2558  0.1009
 8689TIP3    H150262   0.382   5.726   9.378  0.4255 -0.5480  0.8667
 8689TIP3    H250263   0.258   5.722   9.291  0.0636  1.2934  1.2506
 8690TIP3   OH250264   5.988   5.750  11.130  0.6434 -0.0835  0.3108
 8690TIP3    H150265   6.075   5.789  11.142  0.9926 -1.0471  1.0443
 8690TIP3    H250266   6.005   5.664  11.091 -0.0783  0.2434 -0.7702
 8691TIP3   OH250267   2.250   5.284   9.351  0.1512 -0.4634 -0.1338
 8691TIP3    H150268   2.162   5.304   9.385 -0.5316  0.5795 -2.3483
 8691TIP3    H250269   2.287   5.369   9.328  0.6242 -1.0804 -1.7871
 8692TIP3   OH250270   5.337   2.567   9.135 -0.2364  0.3155 -0.6093
 8692TIP3    H150271   5.249   2.582   9.171  0.4062  1.5648  0.5457
 8692TIP3    H250272   5.337   2.614   9.052 -0.1854  1.6827  0.1355
 8693TIP3   OH250273   0.144   6.287   9.632 -0.7135 -0.1153  0.3679
 8693TIP3    H150274   0.116   6.356   9.692  1.3082  0.0596  1.1893
 8693TIP3    H250275   0.187   6.333   9.560  0.0349 -0.4631  0.5785
 8694TIP3   OH250276   1.988   2.172   9.986  0.6079 -0.4543 -0.3398
 8694TIP3    H150277   1.927   2.103  10.010  1.4140 -0.9672  0.2945
 8694TIP3    H250278   1.935   2.252   9.986 -0.3557 -1.0568 -1.1763
 8695TIP3   OH250279   0.294   6.002   9.328 -0.2606 -0.6636  0.0942
 8695TIP3    H150280   0.270   5.968   9.242  2.2762  0.7398 -1.2959
 8695TIP3    H250281   0.378   5.960   9.348  1.1173  1.8596  0.0034
 8696TIP3   OH250282   3.628   2.701  10.107  0.0248  0.3782  0.2428
 8696TIP3    H150283   3.575   2.697  10.027  1.2179 -0.1748 -0.5460
 8696TIP3    H250284   3.713   2.736  10.078  0.0652  1.4122  1.5080
 8697TIP3   OH250285   1.147   1.791  10.875 -0.0391 -0.0996  0.3925
 8697TIP3    H150286   1.213   1.770  10.809 -1.1421 -1.0346 -0.4568
 8697TIP3    H250287   1.086   1.850  10.831 -0.1705  0.1960  0.9490
 8698TIP3   OH250288   6.256   0.165  10.757  0.9470 -0.1518 -0.3694
 8698TIP3    H150289   6.280   0.112  10.833  0.1618 -0.3071 -0.2189
 8698TIP3    H250290   6.324   0.232  10.752  2.7999 -1.9782 -1.4091
 8699TIP3   OH250291   1.129   6.334   9.460  0.4867  0.3734 -0.1851
 8699TIP3    H150292   1.129   6.239   9.476  0.2308  0.5651  1.0470
 8699TIP3    H250293   1.189   6.369   9.527  1.2895  0.9989 -1.2102
 8700TIP3   OH250294   1.853   2.399   9.972  0.1675 -0.2656  0.6548
 8700TIP3    H150295   1.815   2.439   9.894  1.1966 -2.2849 -0.9776
 8700TIP3    H250296   1.778   2.360  10.018 -0.3368  0.1017  0.1517
 8701TIP3   OH250297   5.595   6.105   9.926 -0.0869 -0.4400 -0.2172
 8701TIP3    H150298   5.570   6.017   9.899  1.3222 -0.9643  0.0949
 8701TIP3    H250299   5.690   6.108   9.914  0.0242  0.6836  0.7471
 8702TIP3   OH250300   5.225   0.431   9.803  0.8786 -0.1088 -0.3608
 8702TIP3    H150301   5.201   0.348   9.762  0.3198  0.0253 -0.3176
 8702TIP3    H250302   5.304   0.412   9.853  1.6711 -0.2401 -1.6209
 8703TIP3   OH250303   5.934   0.750  12.123  0.2744  0.0472 -0.0252
 8703TIP3    H150304   5.885   0.779  12.200 -0.8847 -0.2209 -0.6252
 8703TIP3    H250305   6.023   0.781  12.138 -0.3317  1.6338  0.5714
 8704TIP3   OH250306   0.318   1.116   9.622  0.5371  0.4779  0.4069
 8704TIP3    H150307   0.315   1.022   9.607  0.8527  0.2581  1.6105
 8704TIP3    H250308   0.276   1.154   9.545 -0.4516 -0.6844  0.3478
 8705TIP3   OH250309   0.640   5.988  10.891 -0.2895 -0.8142  0.7469
 8705TIP3    H150310   0.564   5.961  10.838 -0.8272 -0.4885  1.3443
 8705TIP3    H250311   0.686   6.051  10.836 -1.2405  0.0720  0.9344
 8706TIP3   OH250312   0.996   3.971  12.695 -0.2576 -0.2871  0.1625
 8706TIP3    H150313   0.957   3.888  12.671 -1.2447  0.0727  0.4524
 8706TIP3    H250314   0.938   4.037  12.657  0.2916  0.2677  0.2640
 8707TIP3   OH250315   6.092   1.306  11.702 -0.0001 -0.2633  0.5597
 8707TIP3    H150316   6.160   1.273  11.761  0.5588 -0.2632 -0.0707
 8707TIP3    H250317   6.109   1.400  11.696  0.7604 -0.4443 -0.5953
 8708TIP3   OH250318   2.775   3.508  11.731  0.3582 -0.1987 -0.0932
 8708TIP3    H150319   2.724   3.463  11.663  0.3059  0.2376 -0.3438
 8708TIP3    H250320   2.709   3.553  11.784  0.3945 -0.5739  0.2813
 8709TIP3   OH250321   5.722   2.285  11.338  0.2577  0.0638 -0.0663
 8709TIP3    H150322   5.749   2.342  11.410 -2.1289  0.7751  0.3616
 8709TIP3    H250323   5.701   2.346  11.266 -3.7325  0.0354  0.8565
 8710TIP3   OH250324   3.935   3.178   9.319  0.0844  0.2753  0.1888
 8710TIP3    H150325   3.944   3.087   9.289 -1.3707 -0.3703  1.5776
 8710TIP3    H250326   3.867   3.215   9.262  0.9848  0.6493 -0.6641
 8711TIP3   OH250327   1.552   3.982  11.323  0.2537  0.5431  0.5259
 8711TIP3    H150328   1.538   3.888  11.321 -2.0057  0.8343  0.8974
 8711TIP3    H250329   1.610   3.996  11.398  0.4984 -0.5245  0.5471
 8712TIP3   OH250330   2.842   3.509  10.768  0.0947 -0.0399 -0.0204
 8712TIP3    H150331   2.797   3.584  10.729  0.6166  0.0292 -0.4837
 8712TIP3    H250332   2.818   3.513  10.861 -1.5278 -0.4697 -0.3802
 8713TIP3   OH250333   5.606   0.212  11.430  0.1927  0.3537 -0.7128
 8713TIP3    H150334   5.583   0.232  11.521  1.5060 -2.1783  0.2735
 8713TIP3    H250335   5.663   0.284  11.404  2.1495 -0.2169  1.5471
 8714TIP3   OH250336   2.534   5.521  12.340  0.6143  0.1287  0.5992
 8714TIP3    H150337   2.461   5.531  12.279  1.7926  0.3018 -0.8583
 8714TIP3    H250338   2.582   5.603  12.333  0.7780  0.1451  1.7796
 8715TIP3   OH250339   6.411   5.538  10.264  0.9426 -0.2523  0.5576
 8715TIP3    H150340   6.422   5.605  10.332 -0.5432  0.2085  0.3772
 8715TIP3    H250341   6.469   5.467  10.291  1.6105  0.5953  1.4251
 8716TIP3   OH250342   2.764   1.760  11.272 -0.5651 -0.3585 -0.0538
 8716TIP3    H150343   2.737   1.713  11.351 -0.1813 -1.9949 -0.8657
 8716TIP3    H250344   2.686   1.760  11.216 -1.1499  1.6490  0.6316
 8717TIP3   OH250345   3.074   3.246  11.772  0.0235 -0.3098 -0.2844
 8717TIP3    H150346   2.987   3.217  11.800 -0.2227 -0.2346 -0.9639
 8717TIP3    H250347   3.111   3.288  11.849 -0.9330  0.5571 -0.2747
 8718TIP3   OH250348   4.042   6.198   9.897 -0.2101  0.3985 -0.4621
 8718TIP3    H150349   4.092   6.264   9.849  0.7707 -1.8519 -2.7414
 8718TIP3    H250350   3.972   6.173   9.837 -0.1595 -1.1110  0.0788
 8719TIP3   OH250351   6.639   4.143  10.399  0.0829  0.9397  0.0532
 8719TIP3    H150352   6.553   4.185  10.398 -0.6850 -0.4810  1.7105
 8719TIP3    H250353   6.661   4.132  10.306 -1.1563  2.0456 -0.3934
 8720TIP3   OH250354   1.530   4.661  10.964  0.4832  0.7318  0.1414
 8720TIP3    H150355   1.560   4.637  10.876 -0.3840  0.2118 -0.0209
 8720TIP3    H250356   1.458   4.722  10.950  1.2844  1.7942  0.5303
 8721TIP3   OH250357   1.738   4.422  10.280 -0.1467 -0.1488  0.3293
 8721TIP3    H150358   1.754   4.328  10.285  1.7876 -0.0004 -1.4006
 8721TIP3    H250359   1.754   4.454  10.369  0.5098 -1.2937  0.6462
 8722TIP3   OH250360   2.216   4.167  12.696  0.3746 -0.2756  0.7390
 8722TIP3    H150361   2.224   4.080  12.658  0.0385 -0.7746  1.7721
 8722TIP3    H250362   2.171   4.219  12.630  0.3057 -0.9673  0.2370
 8723TIP3   OH250363   6.301   1.408  10.872 -0.0411 -0.2672 -0.7278
 8723TIP3    H150364   6.300   1.500  10.898  0.1444 -0.1070 -1.2779
 8723TIP3    H250365   6.374   1.370  10.923 -2.0118 -0.8529  1.8981
 8724TIP3   OH250366   2.149   2.350  11.359 -0.3543  0.1410  0.0467
 8724TIP3    H150367   2.062   2.369  11.392 -0.1431 -1.2672  1.5700
 8724TIP3    H250368   2.177   2.272  11.408  1.5253  0.2093 -0.8113
 8725TIP3   OH250369   3.804   3.701  11.979  0.1617  1.0939 -0.1153
 8725TIP3    H150370   3.871   3.749  12.027  0.8870  0.5188 -0.5389
 8725TIP3    H250371   3.730   3.696  12.041  1.9923 -1.9865  2.1595
 8726TIP3   OH250372   6.102   1.055  12.280 -0.0423 -0.2009  0.1735
 8726TIP3    H150373   6.145   0.980  12.240 -1.3808 -0.8099 -0.1837
 8726TIP3    H250374   6.118   1.046  12.374  1.8204  0.3994 -0.0495
 8727TIP3   OH250375   5.950   5.997  10.412 -0.7315 -0.3450  0.1719
 8727TIP3    H150376   5.904   6.078  10.436 -0.5501 -0.4475  0.9005
 8727TIP3    H250377   5.976   6.010  10.321 -0.2003  0.6720  0.4505
 8728TIP3   OH250378   0.851   6.505  11.341  0.0357  0.0543 -0.2518
 8728TIP3    H150379   0.784   6.571  11.356 -1.2691 -1.5942  1.8968
 8728TIP3    H250380   0.832   6.437  11.406  2.1943 -1.7359 -1.3519
 8729TIP3   OH250381   5.223   6.365  11.681  0.7421  0.1024 -0.5580
 8729TIP3    H150382   5.293   6.301  11.690  0.1876 -0.2673  1.6406
 8729TIP3    H250383   5.172   6.335  11.605  1.9265 -0.6048 -1.0935
 8730TIP3   OH250384   6.711   5.629   9.130 -0.0443 -0.0623  0.2065
 8730TIP3    H150385   6.692   5.564   9.196 -0.6236 -0.1306 -0.0213
 8730TIP3    H250386   6.793   5.600   9.089 -0.2850 -0.6298  0.1266
 8731TIP3   OH250387   6.407   5.702  10.836  0.0602  0.1119  0.2064
 8731TIP3    H150388   6.323   5.740  10.863  0.2464 -0.4754  1.7231
 8731TIP3    H250389   6.456   5.775  10.800 -1.4004  0.3037 -1.5448
 8732TIP3   OH250390   0.879   2.499  10.692  0.1252 -1.0240  0.1019
 8732TIP3    H150391   0.840   2.577  10.733  0.4003 -1.3535  0.9974
 8732TIP3    H250392   0.933   2.535  10.621 -1.5100 -0.5379 -0.9637
 8733TIP3   OH250393   4.304   0.453  11.798  0.4903  0.4055  0.3437
 8733TIP3    H150394   4.269   0.374  11.757  1.1494  0.0393  0.4936
 8733TIP3    H250395   4.241   0.474  11.867 -0.9643  1.3539 -1.1759
 8734TIP3   OH250396   0.121   6.183  11.813  0.2897  1.1033  0.0979
 8734TIP3    H150397   0.188   6.171  11.880 -1.5599  0.3048  1.9030
 8734TIP3    H250398   0.089   6.095  11.794  0.9191  1.2791 -2.0710
 8735TIP3   OH250399   3.571   1.481   9.362  0.1237 -0.2341 -0.0930
 8735TIP3    H150400   3.483   1.499   9.395  0.2501  1.6688 -0.6842
 8735TIP3    H250401   3.576   1.386   9.358 -2.3819 -0.3980 -1.2674
 8736TIP3   OH250402   5.747   1.476  12.134 -0.3560  0.1097  0.1687
 8736TIP3    H150403   5.797   1.488  12.214  1.4250 -1.9710 -0.5425
 8736TIP3    H250404   5.755   1.383  12.114 -1.6741  0.3638 -1.8419
 8737TIP3   OH250405   0.793   6.361  12.437 -0.1953  0.0054  0.0420
 8737TIP3    H150406   0.777   6.271  12.466  0.6820  0.4292  1.9995
 8737TIP3    H250407   0.753   6.415  12.504 -0.1089  1.1018 -0.7593
 8738TIP3   OH250408   5.291   4.321   9.310 -0.1750 -0.5054 -0.1845
 8738TIP3    H150409   5.385   4.308   9.323 -0.2933  0.3475  1.9026
 8738TIP3    H250410   5.283   4.340   9.216  1.5510 -1.8195 -0.6589
 8739TIP3   OH250411   5.826   5.670   9.012  0.1601 -0.1501 -0.9565
 8739TIP3    H150412   5.847   5.582   9.045 -0.5478  0.7878  2.4383
 8739TIP3    H250413   5.910   5.716   9.011  0.6946 -0.9901 -3.6298
 8740TIP3   OH250414   5.477   1.097  11.670 -0.7396  0.5969  0.0591
 8740TIP3    H150415   5.527   1.068  11.746 -0.2881  0.2200 -0.3762
 8740TIP3    H250416   5.385   1.083  11.694 -0.6293  1.1312  0.7956
 8741TIP3   OH250417   4.326   3.238  10.149  0.1169  0.6149 -0.4614
 8741TIP3    H150418   4.387   3.273  10.084  0.6673 -0.9323 -0.8303
 8741TIP3    H250419   4.381   3.185  10.207 -0.6967  0.2287 -0.0283
 8742TIP3   OH250420   0.268   1.354  10.155 -0.6627  0.5697  0.3740
 8742TIP3    H150421   0.321   1.313  10.086  1.5120  3.2007  0.2934
 8742TIP3    H250422   0.195   1.294  10.169  2.8527 -4.0826  1.3023
 8743TIP3   OH250423   1.981   6.543  13.152  0.1217  0.7088  0.0324
 8743TIP3    H150424   1.954   6.487  13.079  0.2831 -0.5770  0.9399
 8743TIP3    H250425   1.928   6.622  13.142  0.5282  0.8004 -1.7935
 8744TIP3   OH250426   0.298   3.701  12.386 -0.5499 -0.6155  0.5216
 8744TIP3    H150427   0.229   3.751  12.342  0.8661 -0.5246 -1.7697
 8744TIP3    H250428   0.327   3.757  12.457 -1.0933  0.4759 -0.0937
 8745TIP3   OH250429   5.849   4.660  11.848  0.3494 -0.6245 -0.3824
 8745TIP3    H150430   5.772   4.609  11.874 -0.6778  1.0946  0.0739
 8745TIP3    H250431   5.901   4.599  11.796 -0.9989 -2.0250 -0.1693
 8746TIP3   OH250432   1.872   3.458  11.174  0.2668 -0.1225 -0.5238
 8746TIP3    H150433   1.884   3.366  11.151 -0.3033 -0.0611 -1.0826
 8746TIP3    H250434   1.881   3.460  11.269  2.1630 -0.4524 -0.6574
 8747TIP3   OH250435   5.865   2.190   9.484 -0.2615 -0.1999  0.0941
 8747TIP3    H150436   5.820   2.232   9.557  0.6391 -0.0463  0.5719
 8747TIP3    H250437   5.954   2.223   9.488 -0.0800 -0.5437 -0.8023
 8748TIP3   OH250438   4.875   3.827   9.608 -0.2749 -0.0046 -0.7114
 8748TIP3    H150439   4.945   3.867   9.659 -0.1681 -0.7318 -0.2696
 8748TIP3    H250440   4.858   3.744   9.652 -0.1876 -0.6534 -1.8687
 8749TIP3   OH250441   3.679   0.071   9.941 -0.0964 -0.2725 -0.0763
 8749TIP3    H150442   3.645  -0.001   9.888  2.0311 -1.0791 -0.4616
 8749TIP3    H250443   3.611   0.089  10.005 -1.9441 -0.5820 -1.8581
 8750TIP3   OH250444   4.117   2.993   9.494 -0.4030  0.4874  0.6410
 8750TIP3    H150445   4.191   2.973   9.550  0.0845 -3.0038 -0.9643
 8750TIP3    H250446   4.156   3.021   9.411 -0.9592  0.5579  0.3942
 8751TIP3   OH250447   0.502   4.478   9.174  0.1841 -0.8078  0.7285
 8751TIP3    H150448   0.578   4.522   9.211 -0.8651  0.7818  1.1147
 8751TIP3    H250449   0.501   4.392   9.216  1.0958 -0.4048  1.6054
 8752TIP3   OH250450   0.177   2.036  11.156 -0.5380  0.1259 -0.1837
 8752TIP3    H150451   0.110   1.982  11.197 -1.0033  1.0136  0.2541
 8752TIP3    H250452   0.133   2.119  11.138  0.3512  0.6086 -0.1973
 8753TIP3   OH250453   5.266   0.150  10.270  0.5539 -0.1029  0.2100
 8753TIP3    H150454   5.241   0.061  10.245 -1.3525  0.7173 -1.0468
 8753TIP3    H250455   5.229   0.162  10.357  0.3231 -0.3442  0.1459
 8754TIP3   OH250456   5.450   3.848  11.169  0.2916 -0.0833  0.4947
 8754TIP3    H150457   5.387   3.841  11.241 -1.1933  1.3382 -0.6061
 8754TIP3    H250458   5.448   3.940  11.143  2.9762  0.0571  0.4907
 8755TIP3   OH250459   5.962   1.617  11.311  0.3238  0.0189  0.1960
 8755TIP3    H150460   5.956   1.710  11.291 -1.3496 -0.2378 -0.7068
 8755TIP3    H250461   5.989   1.577  11.228  2.1208 -0.2239  0.8585
 8756TIP3   OH250462   4.596   0.918   9.806  0.1317 -0.2350 -0.2403
 8756TIP3    H150463   4.509   0.955   9.796 -0.0425 -0.8351 -1.0844
 8756TIP3    H250464   4.582   0.830   9.839  0.2969 -0.9443 -1.9784
 8757TIP3   OH250465   3.520   0.089  11.646  0.2225  0.4420 -0.1264
 8757TIP3    H150466   3.487   0.098  11.736  0.8807 -2.9413  0.5942
 8757TIP3    H250467   3.443   0.064  11.595  0.5895 -2.6438  0.6132
 8758TIP3   OH250468   4.120   2.123  10.845 -0.0594  0.1781  0.0403
 8758TIP3    H150469   4.163   2.053  10.797  0.0899  0.6692 -0.5565
 8758TIP3    H250470   4.029   2.121  10.814 -0.2160 -0.1820  0.5198
 8759TIP3   OH250471   4.975   1.258   9.166  0.0657 -0.6764 -0.8312
 8759TIP3    H150472   4.957   1.173   9.126  0.9455 -0.7156 -1.1679
 8759TIP3    H250473   5.070   1.264   9.166  0.0404 -0.1422  0.1473
 8760TIP3   OH250474   1.574   0.126  10.858  0.1953 -0.5856 -0.3882
 8760TIP3    H150475   1.571   0.127  10.954  0.4022  0.0233 -0.3853
 8760TIP3    H250476   1.606   0.213  10.834  1.8105 -1.3027 -0.9553
 8761TIP3   OH250477   4.084   4.738  12.003 -0.0044  0.2262  0.2593
 8761TIP3    H150478   3.998   4.769  12.032 -0.8177 -0.7229 -0.9999
 8761TIP3    H250479   4.081   4.643  12.018  0.8626  0.2008  0.2965
 8762TIP3   OH250480   3.263   3.570  10.309 -0.2619  0.0998 -0.3649
 8762TIP3    H150481   3.225   3.658  10.313 -0.1469  0.1053  1.9403
 8762TIP3    H250482   3.238   3.530  10.392  0.1481 -1.8744 -1.1554
 8763TIP3   OH250483   2.277   5.547  12.225 -0.1185 -0.2625 -0.5029
 8763TIP3    H150484   2.207   5.611  12.244  0.3214 -0.7066  3.6044
 8763TIP3    H250485   2.235   5.462  12.236  0.8165 -0.5339  1.5602
 8764TIP3   OH250486   4.355   5.732  18.955 -0.9033  0.5640  0.3283
 8764TIP3    H150487   4.370   5.663  19.020 -0.7248 -0.6668 -0.9800
 8764TIP3    H250488   4.262   5.752  18.962 -0.4882  2.0685  2.4868
 8765TIP3   OH250489   0.977   3.669  10.712 -0.1649  0.5458 -0.2154
 8765TIP3    H150490   1.028   3.751  10.713 -1.4971  1.4203  0.8561
 8765TIP3    H250491   0.910   3.683  10.779 -1.8059 -0.5622 -1.5575
 8766TIP3   OH250492   3.006   1.975   9.105 -0.3562 -0.3013 -0.0059
 8766TIP3    H150493   3.087   1.929   9.087 -0.6451 -0.8510  0.0830
 8766TIP3    H250494   3.006   1.989   9.200 -1.0938 -1.7043  0.2208
 8767TIP3   OH250495   0.059   4.050  11.215 -0.2170 -0.2735 -0.2806
 8767TIP3    H150496   0.084   4.142  11.205 -1.3987  0.2304  1.1325
 8767TIP3    H250497  -0.036   4.050  11.208 -0.6083 -0.7837  3.3790
 8768TIP3   OH250498   0.995   3.352  10.294  0.2999  0.0997 -0.2340
 8768TIP3    H150499   1.054   3.281  10.322 -0.4820 -0.0122  1.2132
 8768TIP3    H250500   0.916   3.339  10.346 -0.2776  1.3878 -0.7629
 8769TIP3   OH250501   4.485   1.382   9.880 -0.1048  0.2370 -0.5903
 8769TIP3    H150502   4.558   1.442   9.898 -1.6192  1.3699  2.4544
 8769TIP3    H250503   4.428   1.432   9.821  0.0280  0.6507 -0.3768
 8770TIP3   OH250504   6.279   3.507   9.873 -0.1427 -0.7772 -0.6422
 8770TIP3    H150505   6.216   3.562   9.826  0.1113 -1.0030 -1.2552
 8770TIP3    H250506   6.322   3.567   9.933 -0.4035 -0.4621 -0.7637
 8771TIP3   OH250507   5.842   6.458  11.768 -0.1495  0.3866 -0.0213
 8771TIP3    H150508   5.880   6.503  11.693  0.6416  0.4718  0.4146
 8771TIP3    H250509   5.833   6.367  11.739 -0.5732  0.5704 -0.4766
 8772TIP3   OH250510   0.392   6.454  12.858 -0.0138  0.7452  0.5519
 8772TIP3    H150511   0.298   6.440  12.874  0.2827  0.8751  2.7308
 8772TIP3    H250512   0.401   6.549  12.849 -0.1631  0.6822 -0.3650
 8773TIP3   OH250513   1.654   4.199  11.811  0.0432  0.5743 -0.0101
 8773TIP3    H150514   1.589   4.266  11.790 -1.3377 -0.8985 -0.6730
 8773TIP3    H250515   1.603   4.129  11.851  1.6624  0.4767  2.0284
 8774TIP3   OH250516   2.092   0.400  10.384  0.4262 -0.3161 -0.1871
 8774TIP3    H150517   2.047   0.400  10.300 -0.1668  0.2285  0.1235
 8774TIP3    H250518   2.095   0.492  10.410  1.6066 -0.3573 -0.1373
 8775TIP3   OH250519   6.446   3.586  12.300 -0.0028  0.2129 -0.1982
 8775TIP3    H150520   6.448   3.678  12.274 -1.2413  0.2028 -0.4104
 8775TIP3    H250521   6.537   3.565  12.323  0.7412  0.8786 -2.2737
 8776TIP3   OH250522   1.742   2.892  17.693 -0.3740 -0.0773 -0.2511
 8776TIP3    H150523   1.663   2.925  17.735  0.8400  1.3142  1.0264
 8776TIP3    H250524   1.740   2.931  17.605 -1.2847 -0.3625 -0.3668
 8777TIP3   OH250525   5.541   2.767   9.988 -0.5845  0.4522 -0.1922
 8777TIP3    H150526   5.541   2.845   9.933 -0.5591  1.7320  1.5298
 8777TIP3    H250527   5.531   2.694   9.927 -0.9703  1.8161 -1.8255
 8778TIP3   OH250528   3.609   2.516   8.970  0.4382  0.1447 -0.1438
 8778TIP3    H150529   3.531   2.475   8.932 -0.2844  1.2784  0.0898
 8778TIP3    H250530   3.644   2.570   8.899  1.0688 -0.4037 -0.2666
 8779TIP3   OH250531   1.623   6.143  10.379 -0.6063 -0.1843 -0.2667
 8779TIP3    H150532   1.666   6.058  10.392 -1.0030 -0.1622  1.3853
 8779TIP3    H250533   1.611   6.178  10.467 -1.6017  1.0284 -0.8484
 8780TIP3   OH250534   1.913   0.965  11.919  0.1243 -0.3166  0.6463
 8780TIP3    H150535   1.977   0.995  11.855 -1.2524  0.2451 -0.4967
 8780TIP3    H250536   1.839   0.934  11.868 -1.3435  0.8580  1.9343
 8781TIP3   OH250537   4.548   2.117  11.396 -0.1334  0.1869  0.3395
 8781TIP3    H150538   4.604   2.091  11.469  2.6632  0.0993 -1.6715
 8781TIP3    H250539   4.521   2.207  11.417  0.8032  0.2484  1.3416
 8782TIP3   OH250540   1.333   5.130  12.021 -0.0688  0.0890 -0.1262
 8782TIP3    H150541   1.290   5.046  12.031 -1.0166  0.2625 -2.3503
 8782TIP3    H250542   1.285   5.189  12.079 -0.4167 -0.5388  0.2288
 8783TIP3   OH250543   1.148   4.763  11.730 -0.0937  0.4724  0.1894
 8783TIP3    H150544   1.099   4.692  11.771  0.7824 -1.2655 -1.5958
 8783TIP3    H250545   1.104   4.777  11.646  1.4866 -0.0757 -0.7726
 8784TIP3   OH250546   5.206   1.549  10.176 -0.4500  0.1935  0.1787
 8784TIP3    H150547   5.173   1.584  10.093  2.9514 -0.7808 -1.7916
 8784TIP3    H250548   5.181   1.456  10.174 -0.2028  0.1271  0.1436
 8785TIP3   OH250549   0.190   5.166   9.770 -0.2326  0.6455  0.1103
 8785TIP3    H150550   0.164   5.169   9.678  2.0215  0.9738 -0.5851
 8785TIP3    H250551   0.174   5.075   9.797 -2.4120  0.9310 -0.0729
 8786TIP3   OH250552   3.081   1.346  10.901 -0.0786 -0.4090 -0.3347
 8786TIP3    H150553   3.124   1.424  10.939 -0.0628 -0.5128 -0.1383
 8786TIP3    H250554   3.103   1.350  10.808  2.6196 -1.8834  0.1522
 8787TIP3   OH250555   2.452   1.831  10.946  0.3434  0.8298  0.2748
 8787TIP3    H150556   2.528   1.871  10.903  0.4716  0.4897  0.1847
 8787TIP3    H250557   2.426   1.760  10.888  0.6724  0.2091  0.8715
 8788TIP3   OH250558   5.900   0.183  11.914  0.0285  0.1633  0.1406
 8788TIP3    H150559   5.979   0.236  11.917 -1.6629  2.9814 -0.6244
 8788TIP3    H250560   5.830   0.244  11.940 -2.2788 -1.2250 -2.3011
 8789TIP3   OH250561   5.608   4.244  11.254  0.1995 -0.2216  0.4095
 8789TIP3    H150562   5.602   4.230  11.349 -0.0293  1.4285  0.6667
 8789TIP3    H250563   5.557   4.173  11.216  0.8709 -1.3111  1.4849
 8790TIP3   OH250564   5.519   0.017   9.171 -0.4187  0.0674 -0.0408
 8790TIP3    H150565   5.570   0.096   9.155 -0.1333  0.0294  0.6561
 8790TIP3    H250566   5.508   0.014   9.266  0.2363 -1.1496  0.0165
 8791TIP3   OH250567   1.024   0.545  10.260 -0.1899  0.2229 -0.3745
 8791TIP3    H150568   1.087   0.486  10.219  2.0030  1.0679  1.5230
 8791TIP3    H250569   0.999   0.501  10.341 -0.5326  0.7572 -0.1844
 8792TIP3   OH250570   0.389   1.397  12.968  0.2418  0.4555  0.0403
 8792TIP3    H150571   0.321   1.462  12.989 -0.4784 -0.3163  0.1223
 8792TIP3    H250572   0.341   1.317  12.950  1.0973  0.0851 -0.6573
 8793TIP3   OH250573   5.123   2.379  10.764 -0.0790  0.2795 -0.3378
 8793TIP3    H150574   5.189   2.401  10.830 -0.1132 -1.6959  0.4168
 8793TIP3    H250575   5.059   2.325  10.811 -0.3372 -0.8189 -1.8724
 8794TIP3   OH250576   3.151   2.184   8.989 -0.2937 -0.4345 -0.0088
 8794TIP3    H150577   3.224   2.124   9.007 -1.0788 -2.0174 -1.7874
 8794TIP3    H250578   3.074   2.129   8.993 -1.4133  1.1239  1.3493
 8795TIP3   OH250579   2.355   6.123  11.750 -0.4231  0.2691  0.0427
 8795TIP3    H150580   2.389   6.077  11.673 -0.5155 -1.1823  0.8315
 8795TIP3    H250581   2.311   6.055  11.801 -1.3594  1.4261  0.8250
 8796TIP3   OH250582   2.300   1.924   9.772  0.0015 -0.4034  0.1608
 8796TIP3    H150583   2.330   1.863   9.704  0.3129 -1.1773  0.9807
 8796TIP3    H250584   2.251   1.870   9.834 -2.4619  0.7007 -0.6939
 8797TIP3   OH250585   5.542   3.012  11.840 -0.2701 -0.0424  0.4024
 8797TIP3    H150586   5.619   2.957  11.829  0.0582  0.0798  1.8804
 8797TIP3    H250587   5.518   3.037  11.751  0.6350 -1.1098 -0.1709
 8798TIP3   OH250588   2.233   6.012  11.184  0.1095 -0.1905  0.6459
 8798TIP3    H150589   2.223   6.018  11.279 -1.6505 -1.4458  0.5819
 8798TIP3    H250590   2.146   6.034  11.149  0.5956 -0.2494 -0.6555
 8799TIP3   OH250591   3.271   1.552   9.128 -0.8556 -0.1059 -0.0493
 8799TIP3    H150592   3.294   1.477   9.183 -1.1046  1.2548  1.9813
 8799TIP3    H250593   3.222   1.513   9.055 -0.5777 -1.9622  0.6976
 8800TIP3   OH250594   2.030   4.499  10.120  0.2183  0.1218  0.4444
 8800TIP3    H150595   2.013   4.407  10.141  0.3148  0.1269  0.5482
 8800TIP3    H250596   1.981   4.515  10.039  0.3037 -0.0539  0.3580
 8801TIP3   OH250597   2.945   2.865  10.283  0.0874  0.4920  0.3685
 8801TIP3    H150598   3.028   2.902  10.256  0.0483  0.8056  0.6806
 8801TIP3    H250599   2.924   2.908  10.366 -0.2386  0.1990  0.4438
 8802TIP3   OH250600   1.907   5.599  10.747  0.3189 -0.6813 -0.6799
 8802TIP3    H150601   1.951   5.572  10.667 -0.4246 -2.3776 -0.5578
 8802TIP3    H250602   1.936   5.537  10.814 -0.1614 -0.1655  0.0340
 8803TIP3   OH250603   0.287   0.013  13.013 -0.0209 -0.3998 -0.2654
 8803TIP3    H150604   0.275  -0.035  13.096  0.0898  0.3284  0.1766
 8803TIP3    H250605   0.219   0.080  13.014  1.3573  1.0404  0.2814
 8804TIP3   OH250606   2.840   2.360   9.994 -0.5528  0.7883 -0.6915
 8804TIP3    H150607   2.776   2.366   9.923 -1.0996 -0.1572 -0.2893
 8804TIP3    H250608   2.912   2.310   9.958 -1.6498 -1.3739 -0.0342
 8805TIP3   OH250609   0.038   0.769  12.052 -0.0411 -0.2068 -0.5372
 8805TIP3    H150610   0.083   0.685  12.039 -1.4748 -1.0986  0.0191
 8805TIP3    H250611   0.079   0.828  11.989  1.6982 -1.0423 -0.2448
 8806TIP3   OH250612   2.088   1.701  10.550 -0.0681  0.1379 -0.5628
 8806TIP3    H150613   2.018   1.764  10.566 -0.9427 -0.8528 -0.3392
 8806TIP3    H250614   2.050   1.616  10.574  1.1079 -0.4668 -0.7433
 8807TIP3   OH250615   1.496   3.875  10.173  0.3552  0.0569 -0.0225
 8807TIP3    H150616   1.537   3.813  10.233 -0.8645 -0.9443 -0.1886
 8807TIP3    H250617   1.428   3.918  10.226  0.6181  0.6402 -0.1478
 8808TIP3   OH250618   4.818   4.564  12.488 -0.1423  0.2369 -0.4916
 8808TIP3    H150619   4.746   4.501  12.484  1.7712 -2.2324  1.0750
 8808TIP3    H250620   4.897   4.512  12.473  1.4644  2.6028 -0.8544
 8809TIP3   OH250621   1.654   1.169  11.813 -0.1725 -0.2730 -0.2574
 8809TIP3    H150622   1.724   1.227  11.842 -0.9369  0.3179  0.4598
 8809TIP3    H250623   1.614   1.137  11.895 -2.7602  1.8861 -0.5403
 8810TIP3   OH250624   5.956   6.657  12.404  0.1330  0.2317 -0.5802
 8810TIP3    H150625   6.012   6.633  12.477  0.2320 -4.0960 -1.8539
 8810TIP3    H250626   6.016   6.682  12.334  0.1381  1.5514 -0.1346
 8811TIP3   OH250627   4.747   3.023  11.550  0.1927  0.3223  0.0537
 8811TIP3    H150628   4.752   3.045  11.643 -0.4489  2.1814 -0.3043
 8811TIP3    H250629   4.685   3.087  11.514  0.7010 -0.1376 -1.7093
 8812TIP3   OH250630   3.218   0.416  10.495 -0.4177  0.5829  0.7702
 8812TIP3    H150631   3.140   0.433  10.442  0.4220  1.1791 -0.3133
 8812TIP3    H250632   3.291   0.434  10.437  0.5594 -1.1666  1.3829
 8813TIP3   OH250633   0.982   6.651  11.149  0.0832  0.6219 -0.4996
 8813TIP3    H150634   0.922   6.617  11.216 -1.4296  0.9288 -1.6405
 8813TIP3    H250635   1.059   6.678  11.198 -0.3634 -0.5500  0.9376
 8814TIP3   OH250636   0.314   5.788  10.294 -0.2286  0.7717  0.4219
 8814TIP3    H150637   0.387   5.727  10.289  2.1392  3.4379  0.0141
 8814TIP3    H250638   0.253   5.759  10.226  2.0741  0.3475 -1.6121
 8815TIP3   OH250639   2.176   6.329  10.466 -0.2306  0.0565  0.0973
 8815TIP3    H150640   2.121   6.361  10.537  0.2157  0.4901  0.2518
 8815TIP3    H250641   2.266   6.335  10.500 -0.0292  0.0806 -0.4267
 8816TIP3   OH250642   5.593   0.464  10.892  0.1434  0.3240  0.2023
 8816TIP3    H150643   5.572   0.499  10.805  1.2709 -0.2195 -0.3070
 8816TIP3    H250644   5.531   0.392  10.904 -0.2684  0.6427  0.0149
 8817TIP3   OH250645   0.127   2.616  12.183  0.3346 -0.5699 -0.1946
 8817TIP3    H150646   0.124   2.710  12.169  1.8221 -0.0426  2.4648
 8817TIP3    H250647   0.042   2.594  12.219 -0.4056 -0.4974 -1.7909
 8818TIP3   OH250648   2.530   1.316  12.256 -0.3952 -0.7780 -0.7289
 8818TIP3    H150649   2.587   1.270  12.193  1.6628 -0.5588  0.8506
 8818TIP3    H250650   2.451   1.263  12.259  1.7697 -4.3472  0.8936
 8819TIP3   OH250651   2.491   4.043  10.814  0.4301  0.0085 -0.0145
 8819TIP3    H150652   2.419   4.025  10.874  0.0596  0.4794 -0.3078
 8819TIP3    H250653   2.482   3.976  10.746 -0.2685  0.5879 -0.5110
 8820TIP3   OH250654   6.554   3.717  10.859  0.0082  0.0217  0.4945
 8820TIP3    H150655   6.459   3.703  10.867  0.2093 -1.5784  0.4503
 8820TIP3    H250656   6.590   3.629  10.850  1.1676  0.7242 -3.2170
 8821TIP3   OH250657   2.131   0.478  11.615  0.1978  0.4923 -0.1009
 8821TIP3    H150658   2.196   0.411  11.593  0.4811  0.9930 -0.8303
 8821TIP3    H250659   2.116   0.467  11.709  2.0585  0.9666  0.2973
 8822TIP3   OH250660   5.080   3.392  10.879 -0.0291  0.4087  0.3922
 8822TIP3    H150661   5.056   3.311  10.925 -0.1013  0.4944  0.5063
 8822TIP3    H250662   5.007   3.407  10.819  1.0542 -0.8868 -1.3373
 8823TIP3   OH250663   5.154   2.096  10.476  0.0262  0.4643  0.4072
 8823TIP3    H150664   5.204   2.174  10.453 -1.4331  1.1113 -0.7430
 8823TIP3    H250665   5.088   2.088  10.407 -1.4491 -0.3528  1.8326
 8824TIP3   OH250666   6.598   0.033  10.874 -0.5370  0.1241 -0.2679
 8824TIP3    H150667   6.504   0.014  10.881 -0.6434 -0.6349 -2.8613
 8824TIP3    H250668   6.640  -0.053  10.871 -0.0892  0.3691 -2.2167
 8825TIP3   OH250669   4.171   3.619  11.518 -0.5624  0.1084  0.8686
 8825TIP3    H150670   4.132   3.692  11.567  1.1564 -0.4753  3.3052
 8825TIP3    H250671   4.183   3.550  11.583  3.1080 -0.2463  0.0611
 8826TIP3   OH250672   5.514   5.994  11.210 -0.1488 -0.0159 -0.2699
 8826TIP3    H150673   5.490   6.084  11.187  0.2577  0.3572  0.7070
 8826TIP3    H250674   5.606   5.987  11.186 -0.3563 -0.3975 -0.9763
 8827TIP3   OH250675   6.088   4.252  11.306  0.4243  0.2488 -0.6198
 8827TIP3    H150676   6.113   4.316  11.372 -0.5244  0.9897 -0.9597
 8827TIP3    H250677   6.000   4.278  11.278 -0.0158 -1.2226 -0.7301
 8828TIP3   OH250678   3.847   1.327   9.751 -0.4604 -0.0527 -0.3228
 8828TIP3    H150679   3.816   1.288   9.669  1.9267  0.1370 -1.3980
 8828TIP3    H250680   3.849   1.421   9.734  0.0313 -0.0132 -0.0715
 8829TIP3   OH250681   4.753   1.485  11.159 -0.0335 -0.3579  0.1600
 8829TIP3    H150682   4.658   1.476  11.169 -0.0567 -0.9420 -0.4633
 8829TIP3    H250683   4.781   1.400  11.125  0.6982 -0.1487  0.2285
 8830TIP3   OH250684   5.316   3.469  10.040  0.2405 -0.5039  0.6671
 8830TIP3    H150685   5.349   3.474   9.950  0.5277  1.2791  0.8325
 8830TIP3    H250686   5.394   3.474  10.095 -0.0439  0.1426  1.0216
 8831TIP3   OH250687   1.447   2.565  10.180  0.2238  0.1316 -0.4925
 8831TIP3    H150688   1.475   2.599  10.265  0.6446 -1.6338  0.1173
 8831TIP3    H250689   1.352   2.565  10.185  0.2318 -1.5076  0.6936
 8832TIP3   OH250690   3.802   5.770  11.813 -0.6657 -0.4179  0.4260
 8832TIP3    H150691   3.897   5.756  11.818 -0.3286  0.6680 -1.7381
 8832TIP3    H250692   3.772   5.705  11.749 -0.8705  1.1726 -1.1479
 8833TIP3   OH250693   1.743   4.000  11.136  0.2895 -0.5307 -0.1465
 8833TIP3    H150694   1.667   4.011  11.194 -0.0993 -2.4279 -0.2485
 8833TIP3    H250695   1.720   4.050  11.057  0.0847  0.6619  0.6418
 8834TIP3   OH250696   1.898   3.646  10.169 -0.4329 -0.3327 -0.1438
 8834TIP3    H150697   1.887   3.642  10.264 -1.1868 -0.3975 -0.2269
 8834TIP3    H250698   1.979   3.695  10.156 -0.3280 -0.3194  0.5312
 8835TIP3   OH250699   0.889   2.085  11.706  0.0147  0.0559 -0.2778
 8835TIP3    H150700   0.848   2.172  11.715  1.6208  0.8170  0.1632
 8835TIP3    H250701   0.916   2.063  11.795  0.7503 -0.3196 -0.5896
 8836TIP3   OH250702   5.490   5.379  11.447  0.2224  0.7252 -0.2948
 8836TIP3    H150703   5.552   5.452  11.441 -0.5158  1.2994 -1.1481
 8836TIP3    H250704   5.455   5.385  11.536  0.3041  1.2983 -0.2990
 8837TIP3   OH250705   6.652   0.955   9.223 -0.1748 -0.1102  0.3642
 8837TIP3    H150706   6.595   0.953   9.147  0.6301 -1.4373 -0.2477
 8837TIP3    H250707   6.595   0.977   9.296 -1.1027  0.4311 -0.5057
 8838TIP3   OH250708   4.401   1.636  11.399  0.6581  0.3694 -0.2460
 8838TIP3    H150709   4.394   1.712  11.456 -0.5553  1.4560 -1.7838
 8838TIP3    H250710   4.431   1.566  11.457  2.0337  2.0376  1.1647
 8839TIP3   OH250711   4.876   4.707  10.543  0.6772 -0.1923 -0.6127
 8839TIP3    H150712   4.788   4.744  10.547  0.8287  0.2473 -1.3336
 8839TIP3    H250713   4.861   4.612  10.540  0.2262 -0.1226 -0.7109
 8840TIP3   OH250714   2.491   4.433  10.416 -0.2219 -0.0311 -0.5719
 8840TIP3    H150715   2.503   4.358  10.357 -0.3799 -0.6886  0.2056
 8840TIP3    H250716   2.562   4.493  10.394 -0.1571 -0.3654 -1.2859
 8841TIP3   OH250717   1.975   5.327   9.412 -0.3084  0.4843  0.0572
 8841TIP3    H150718   1.913   5.267   9.370  0.5882  0.4811 -1.3242
 8841TIP3    H250719   1.934   5.413   9.405 -0.3194  0.4348 -0.5545
 8842TIP3   OH250720   1.264   3.360   9.626 -1.0089  0.2105  0.3620
 8842TIP3    H150721   1.326   3.390   9.692  0.5409 -2.9344  0.4862
 8842TIP3    H250722   1.286   3.412   9.548  1.0536 -0.0297  0.7232
 8843TIP3   OH250723   2.251   3.930  10.351 -0.7154 -0.0575 -0.2565
 8843TIP3    H150724   2.324   3.883  10.310 -1.4680 -0.3259 -1.3460
 8843TIP3    H250725   2.210   3.865  10.408 -0.4670 -0.0882 -0.1131
 8844TIP3   OH250726   1.923   2.435  11.461  0.6931 -0.1004  0.1700
 8844TIP3    H150727   1.952   2.434  11.552 -1.3412 -1.6015  0.9046
 8844TIP3    H250728   1.908   2.527  11.440  0.3255  0.2028  1.6867
 8845TIP3   OH250729   0.384   6.465  11.047 -0.2960  0.2354  0.0979
 8845TIP3    H150730   0.382   6.475  10.952 -0.8890  2.8764  0.3300
 8845TIP3    H250731   0.458   6.407  11.063 -0.6838 -0.9662 -1.9847
 8846TIP3   OH250732   0.072   1.387  12.280 -0.0434  0.0067  0.3285
 8846TIP3    H150733   0.058   1.372  12.186  0.5333 -1.3942  0.4429
 8846TIP3    H250734   0.104   1.303  12.313 -0.7744  0.3118  1.8918
 8847TIP3   OH250735   0.668   1.084  11.820  0.6288 -0.0356  0.1559
 8847TIP3    H150736   0.633   1.014  11.765 -1.7282  1.1301  0.0594
 8847TIP3    H250737   0.735   1.126  11.766  0.7979 -1.0779 -0.4650
 8848TIP3   OH250738   4.240   0.257  10.658 -0.2430  0.0568  0.4666
 8848TIP3    H150739   4.194   0.175  10.677  0.1999 -0.8864 -2.0586
 8848TIP3    H250740   4.326   0.229  10.628 -0.0433  1.4315 -0.3311
 8849TIP3   OH250741   5.478   3.260   9.821 -0.1851  0.0552 -0.2956
 8849TIP3    H150742   5.473   3.355   9.810  0.4832  0.1349  0.0098
 8849TIP3    H250743   5.423   3.224   9.752 -0.3099  0.6635 -0.5140
 8850TIP3   OH250744   6.125   3.453  11.938 -0.2770  0.6480 -0.3944
 8850TIP3    H150745   6.148   3.467  11.846 -1.3926  3.3070 -0.3736
 8850TIP3    H250746   6.184   3.512  11.986 -1.1742  0.9458  0.3615
 8851TIP3   OH250747   5.406   1.764  11.489 -0.5481  0.1647  0.2034
 8851TIP3    H150748   5.315   1.753  11.513 -0.5581 -1.0361 -0.3165
 8851TIP3    H250749   5.456   1.722  11.559 -0.2077  3.1496  1.9253
 8852TIP3   OH250750   5.871   3.529  10.238  0.5935  0.2917 -0.7073
 8852TIP3    H150751   5.938   3.492  10.181  0.1457 -0.0299 -1.0358
 8852TIP3    H250752   5.842   3.455  10.291  2.7799  1.0569  1.7887
 8853TIP3   OH250753   1.072   6.092  12.617 -0.2105  0.2771  0.3036
 8853TIP3    H150754   1.068   6.136  12.532  1.4682  0.7614  0.4299
 8853TIP3    H250755   1.017   6.145  12.674 -1.3271 -0.0342 -0.4550
 8854TIP3   OH250756   0.956   1.200  10.412  0.3193  0.4052 -0.1305
 8854TIP3    H150757   0.881   1.252  10.383  0.7157 -0.0574 -2.1162
 8854TIP3    H250758   0.925   1.109  10.409  0.4626  0.3206  0.6915
 8855TIP3   OH250759   5.219   6.021  10.522  0.1779  0.4265  0.3002
 8855TIP3    H150760   5.150   6.076  10.485 -1.4431 -1.5682  0.1948
 8855TIP3    H250761   5.266   5.988  10.446 -0.2409 -0.0392  0.2375
 8856TIP3   OH250762   2.824   6.671  10.390  0.3469  0.3756  0.0479
 8856TIP3    H150763   2.741   6.658  10.344 -0.3750 -0.1753  1.4447
 8856TIP3    H250764   2.809   6.747  10.446  0.7450  0.2071  0.3907
 8857TIP3   OH250765   5.356   0.549  12.765 -0.1498 -0.3711 -0.0065
 8857TIP3    H150766   5.385   0.556  12.856  0.3785 -0.6872 -0.1477
 8857TIP3    H250767   5.368   0.636  12.729 -0.4949 -0.2093  0.2630
 8858TIP3   OH250768   2.441   0.975   9.142  0.1808  0.4945 -0.2048
 8858TIP3    H150769   2.430   0.966   9.236  0.8126 -0.4842 -0.2051
 8858TIP3    H250770   2.444   0.885   9.109  3.3256  0.6436 -0.7199
 8859TIP3   OH250771   1.383   1.154   9.844  0.2527  0.2419 -0.2756
 8859TIP3    H150772   1.451   1.221   9.840 -0.6485  1.1821 -0.0768
 8859TIP3    H250773   1.427   1.078   9.882  0.7221  1.4582  1.7612
 8860TIP3   OH250774   3.142   0.420  10.073  0.4327  0.1014  0.4164
 8860TIP3    H150775   3.193   0.398   9.995 -0.3649 -0.3068 -0.0093
 8860TIP3    H250776   3.167   0.354  10.138  0.6655  0.0842  0.3076
 8861TIP3   OH250777   4.220   3.646  11.234 -0.2836 -0.6350 -0.1194
 8861TIP3    H150778   4.198   3.658  11.326 -1.3172  0.1363 -0.4322
 8861TIP3    H250779   4.151   3.588  11.201  0.2414 -1.1316 -0.3441
 8862TIP3   OH250780   1.941   6.483   9.742  0.6232  0.3704 -0.5270
 8862TIP3    H150781   1.991   6.464   9.821 -1.5645  0.0584  0.8748
 8862TIP3    H250782   1.933   6.579   9.741 -0.2488  0.3234  0.2753
 8863TIP3   OH250783   3.951   4.824  10.274  0.1425  0.5765 -0.5772
 8863TIP3    H150784   3.964   4.915  10.300  1.0168 -0.3526  2.8410
 8863TIP3    H250785   4.035   4.782  10.293 -1.3678 -1.6356  1.9346
 8864TIP3   OH250786   6.480   5.140  10.142 -0.0159 -0.0407  0.0373
 8864TIP3    H150787   6.484   5.216  10.085 -0.3738  0.8558  1.1748
 8864TIP3    H250788   6.395   5.146  10.185 -0.3578 -1.4743 -0.3530
 8865TIP3   OH250789   5.823   4.711  10.563  0.2279 -0.0475  0.0445
 8865TIP3    H150790   5.806   4.762  10.484  1.2487  2.7413  1.4989
 8865TIP3    H250791   5.875   4.769  10.619  0.6709 -2.3770  2.2549
 8866TIP3   OH250792   6.150   3.248   9.644  0.1289 -0.0264  0.3943
 8866TIP3    H150793   6.074   3.281   9.597  0.1728  2.7533  2.0658
 8866TIP3    H250794   6.125   3.252   9.737  1.3762 -1.6918  0.8606
 8867TIP3   OH250795   2.073   6.277  12.959 -0.2092  0.7950 -0.1593
 8867TIP3    H150796   1.986   6.316  12.962 -0.1883  0.9261 -0.9569
 8867TIP3    H250797   2.132   6.349  12.983 -0.4296  0.1283  2.8165
 8868TIP3   OH250798   5.716   0.893   9.479 -0.1988  0.1947 -0.9336
 8868TIP3    H150799   5.719   0.969   9.421  2.0784  0.9230  0.0281
 8868TIP3    H250800   5.709   0.930   9.567  1.3722 -0.6196 -0.4164
 8869TIP3   OH250801   3.365   5.076   9.621 -0.3086  0.1018 -0.5944
 8869TIP3    H150802   3.453   5.067   9.660 -0.7679 -1.6208  0.1570
 8869TIP3    H250803   3.364   5.012   9.550 -1.2607 -0.5877  0.0220
 8870TIP3   OH250804   3.911   0.585  11.463  0.1500 -0.3020 -0.2792
 8870TIP3    H150805   3.887   0.636  11.541  1.2862  0.6069 -0.4923
 8870TIP3    H250806   3.848   0.612  11.396  0.7753  0.9198 -0.4105
 8871TIP3   OH250807   4.061   2.243   9.903 -0.2262 -0.7900  0.6956
 8871TIP3    H150808   4.140   2.205   9.942 -0.0571  1.5269  2.8459
 8871TIP3    H250809   4.090   2.328   9.870 -1.5917 -0.4562  0.3230
 8872TIP3   OH250810   2.480   3.006  10.012 -0.3346 -0.1064 -0.2321
 8872TIP3    H150811   2.457   3.014  10.104  0.9531 -0.3635  0.1283
 8872TIP3    H250812   2.469   2.913   9.992  0.2313 -0.2112 -0.0868
 8873TIP3   OH250813   5.239   1.427  11.687  0.1782 -0.2609 -0.0945
 8873TIP3    H150814   5.152   1.460  11.709  0.5121  0.7818 -0.2802
 8873TIP3    H250815   5.232   1.400  11.595  0.1126  0.0393 -0.1790
 8874TIP3   OH250816   2.984   1.274  11.184  0.9803 -0.1153  0.1469
 8874TIP3    H150817   3.017   1.254  11.096 -0.5026 -1.2243 -0.1974
 8874TIP3    H250818   3.054   1.246  11.243  1.3046 -0.9544 -0.6138
 8875TIP3   OH250819   4.556   2.885   9.793 -0.5327 -0.5904  0.4056
 8875TIP3    H150820   4.614   2.870   9.867  1.3261 -2.2433 -1.2923
 8875TIP3    H250821   4.613   2.918   9.723 -2.1127  0.2985 -0.5400
 8876TIP3   OH250822   1.507   2.762   9.321 -0.0481  0.6094 -0.1324
 8876TIP3    H150823   1.435   2.813   9.284 -0.6343  0.6258  0.9684
 8876TIP3    H250824   1.551   2.822   9.381  1.0012  0.6462 -0.9171
 8877TIP3   OH250825   4.894   0.800  11.416 -0.3868  0.2707 -0.6610
 8877TIP3    H150826   4.956   0.772  11.349  0.3130 -1.4077  0.6114
 8877TIP3    H250827   4.948   0.819  11.493 -1.3746 -0.4225  0.2304
 8878TIP3   OH250828   6.049   1.126  10.368  0.0262 -0.5181  0.0922
 8878TIP3    H150829   6.131   1.156  10.407  0.2753 -1.4036  0.2701
 8878TIP3    H250830   6.075   1.058  10.306 -0.1525  2.0298 -3.0493
 8879TIP3   OH250831   0.332   1.766   9.652  0.2301  0.1614 -0.8011
 8879TIP3    H150832   0.267   1.836   9.638 -0.0413  0.4612  1.5307
 8879TIP3    H250833   0.296   1.690   9.606 -1.6395  0.4122  0.1703
 8880TIP3   OH250834   2.289   4.235  11.137 -0.1818 -0.2616  0.1258
 8880TIP3    H150835   2.249   4.297  11.077  2.1869 -0.2285 -1.5620
 8880TIP3    H250836   2.364   4.283  11.174  0.8679 -1.6317 -0.1563
 8881TIP3   OH250837   3.737   4.758   9.854 -0.5644 -0.3189  0.5115
 8881TIP3    H150838   3.751   4.670   9.821 -0.7331 -0.2750  0.3199
 8881TIP3    H250839   3.766   4.816   9.783  2.0699 -0.1581  1.6019
 8882TIP3   OH250840   3.863   3.079  11.898 -0.0141 -0.1075  0.0599
 8882TIP3    H150841   3.916   3.152  11.930 -0.7139  1.0039 -1.2038
 8882TIP3    H250842   3.781   3.085  11.946 -0.0405 -0.1058  0.0156
 8883TIP3   OH250843   1.433   3.530   9.439  0.2496 -0.2603  0.0703
 8883TIP3    H150844   1.487   3.577   9.503  1.5980  0.1327 -1.3240
 8883TIP3    H250845   1.487   3.457   9.410 -0.6228 -0.8369 -0.1402
 8884TIP3   OH250846   1.610   0.023  10.558  0.5728 -0.2319  0.4228
 8884TIP3    H150847   1.602   0.102  10.611  1.4377  1.4628 -1.8219
 8884TIP3    H250848   1.704   0.004  10.556  0.4722 -0.7417  0.1359
 8885TIP3   OH250849   2.104   1.310   9.513  0.1258 -0.8131  0.4164
 8885TIP3    H150850   2.093   1.219   9.484 -3.0307 -1.2911  2.6214
 8885TIP3    H250851   2.031   1.356   9.473  1.8002  0.9111 -0.8305
 8886TIP3   OH250852   5.249   3.813  10.869 -0.0090 -0.4535  0.3147
 8886TIP3    H150853   5.213   3.762  10.942  1.5157 -0.0429  1.3927
 8886TIP3    H250854   5.343   3.794  10.871  0.1343  0.0013 -1.2071
 8887TIP3   OH250855   1.242   0.054  10.009  0.5816  0.4229  0.0630
 8887TIP3    H150856   1.217   0.024  10.096 -3.4556  1.1768 -0.6270
 8887TIP3    H250857   1.263  -0.025   9.961  1.2380 -0.1478  1.2461
 8888TIP3   OH250858   6.552   1.126  10.883 -0.2601 -0.3080  0.1481
 8888TIP3    H150859   6.556   1.166  10.797  1.9483 -0.8359 -0.0468
 8888TIP3    H250860   6.589   1.039  10.871 -0.2990 -0.5440  1.5532
 8889TIP3   OH250861   1.939   6.702  12.437 -0.1935 -0.3769 -0.0076
 8889TIP3    H150862   1.955   6.763  12.509 -1.0476 -1.4761  1.1604
 8889TIP3    H250863   2.005   6.634  12.448 -0.3714 -0.5865 -0.2133
 8890TIP3   OH250864   6.394   3.720   9.993 -0.2578 -0.1797  0.0380
 8890TIP3    H150865   6.381   3.785   9.925 -0.9021 -0.4264 -0.0859
 8890TIP3    H250866   6.363   3.762  10.073 -1.0311 -0.4568 -0.1068
 8891TIP3   OH250867   2.045   2.232  12.853  0.4121  0.1167  0.0189
 8891TIP3    H150868   2.023   2.139  12.857 -0.5527  0.2335 -1.6305
 8891TIP3    H250869   2.078   2.245  12.763  0.1984  1.4250  0.1080
 8892TIP3   OH250870   1.347   2.888  10.867  0.4276  0.0585 -0.3704
 8892TIP3    H150871   1.396   2.819  10.822  1.8056  1.0787 -0.5068
 8892TIP3    H250872   1.382   2.889  10.956  0.0408  0.2264 -0.2187
 8893TIP3   OH250873   4.770   3.945   9.104  0.8233  0.1403 -0.2692
 8893TIP3    H150874   4.831   3.925   9.034 -0.4950 -1.9753 -0.8944
 8893TIP3    H250875   4.801   3.893   9.179  0.6559  0.2175 -0.1443
 8894TIP3   OH250876   1.835   3.915  12.070  0.2318 -0.1744  0.2502
 8894TIP3    H150877   1.858   3.995  12.021  0.0347 -0.6043 -0.5614
 8894TIP3    H250878   1.742   3.924  12.087  0.2604 -0.1185  0.3804
 8895TIP3   OH250879   5.883   0.521  10.401 -0.7482 -0.4506  0.5828
 8895TIP3    H150880   5.968   0.477  10.398 -0.9000 -0.9894  2.6080
 8895TIP3    H250881   5.820   0.449  10.408 -1.1562  0.0074  1.7926
 8896TIP3   OH250882   4.605   2.227  11.009  0.3426  0.3338  0.3794
 8896TIP3    H150883   4.698   2.253  11.009  0.9021 -1.4127 -1.1616
 8896TIP3    H250884   4.575   2.246  10.920 -0.5973  0.3175  0.6882
 8897TIP3   OH250885   3.580   4.518  10.956  0.2621 -0.5801  0.1036
 8897TIP3    H150886   3.486   4.537  10.953  0.5265  0.7279 -0.8934
 8897TIP3    H250887   3.597   4.470  10.875  0.9497  1.9075 -1.3184
 8898TIP3   OH250888   3.596   0.528   9.428  0.0892 -0.2657  0.1932
 8898TIP3    H150889   3.646   0.594   9.477  0.3704 -1.0875  1.0298
 8898TIP3    H250890   3.660   0.461   9.406 -0.1315 -0.1115 -0.9368
 8899TIP3   OH250891   5.553   0.107  11.057 -0.0432 -0.4721 -0.2909
 8899TIP3    H150892   5.515   0.054  10.987  2.2836 -0.7097 -1.4519
 8899TIP3    H250893   5.583   0.043  11.122 -0.6410 -0.3320  0.1398
 8900TIP3   OH250894   1.800   3.362  11.674  0.5193 -0.3635  0.3080
 8900TIP3    H150895   1.721   3.325  11.634  0.2662  1.1027 -0.6456
 8900TIP3    H250896   1.802   3.453  11.642  1.7431  0.0857  1.5863
 8901TIP3   OH250897   1.031   6.400  10.277 -0.1109 -0.0603  0.4905
 8901TIP3    H150898   0.945   6.440  10.269 -0.2759 -0.5669 -0.3551
 8901TIP3    H250899   1.053   6.408  10.370 -1.4318 -0.6746  0.8698
 8902TIP3   OH250900   2.474   0.986  11.774  0.5580 -0.3808 -0.0635
 8902TIP3    H150901   2.417   0.974  11.850  0.0989  1.4708 -0.0606
 8902TIP3    H250902   2.479   0.899  11.734  0.2662 -1.2566  1.6801
 8903TIP3   OH250903   1.522   6.100  13.557  0.3973  0.1664  0.5824
 8903TIP3    H150904   1.505   6.047  13.480 -3.8161  1.0379  0.6619
 8903TIP3    H250905   1.522   6.038  13.630 -1.6774 -0.1475  0.3819
 8904TIP3   OH250906   0.581   0.379  10.088 -0.0294 -0.6650 -0.2755
 8904TIP3    H150907   0.574   0.454  10.029  0.5442 -0.6190 -0.2872
 8904TIP3    H250908   0.653   0.327  10.053  2.4685  0.9487  2.1077
 8905TIP3   OH250909   3.383   4.206   9.843 -0.3551  0.4040 -0.0144
 8905TIP3    H150910   3.409   4.222   9.933 -1.7338 -0.2104  0.5211
 8905TIP3    H250911   3.449   4.146   9.809 -0.4596 -0.2911  0.9732
 8906TIP3   OH250912   1.318   3.379  11.985 -0.2619  0.1066  0.4662
 8906TIP3    H150913   1.298   3.446  12.050  0.9315  0.9506 -0.0013
 8906TIP3    H250914   1.356   3.427  11.912  0.8215 -1.1066  0.1943
 8907TIP3   OH250915   2.113   4.434  11.286  0.7633 -0.0795  0.0380
 8907TIP3    H150916   2.057   4.364  11.254  0.3123  0.4051 -0.2604
 8907TIP3    H250917   2.098   4.435  11.381 -1.4302  1.4183 -0.2291
 8908TIP3   OH250918   2.455   1.638  11.634  0.4227  0.4901 -0.3594
 8908TIP3    H150919   2.511   1.616  11.559  1.6197 -0.3537  0.7367
 8908TIP3    H250920   2.508   1.699  11.686 -0.3027  0.8845 -0.0671
 8909TIP3   OH250921   1.188   6.092   9.570 -0.0554 -0.4088 -0.3336
 8909TIP3    H150922   1.138   6.010   9.575 -1.0399  0.1067 -1.2337
 8909TIP3    H250923   1.279   6.065   9.568 -0.3734 -1.4998 -0.7007
 8910TIP3   OH250924   5.232   4.481   9.084 -0.5184 -0.1266  0.4326
 8910TIP3    H150925   5.255   4.550   9.146  0.4093  1.6484 -1.7623
 8910TIP3    H250926   5.272   4.508   9.002 -0.5883 -3.0352 -0.6763
 8911TIP3   OH250927   2.669   4.535  10.150  0.0659 -0.2527 -0.6455
 8911TIP3    H150928   2.710   4.581  10.076  1.3117  0.1351  0.2627
 8911TIP3    H250929   2.683   4.593  10.225 -1.1445 -0.6675 -0.0856
 8912TIP3   OH250930   5.620   0.340  11.669 -0.0553 -0.2679 -0.4280
 8912TIP3    H150931   5.689   0.327  11.733  1.5070 -0.9525 -2.1538
 8912TIP3    H250932   5.593   0.431  11.680  1.1896  0.0353  0.2422
 8913TIP3   OH250933   1.033   5.148   9.655  0.2206 -0.4884 -0.1911
 8913TIP3    H150934   1.057   5.083   9.590 -1.8235  0.7365 -2.3263
 8913TIP3    H250935   0.940   5.131   9.674  0.2925  0.3115  1.0357
 8914TIP3   OH250936   1.315   0.831   9.118  0.8698  0.4563 -0.3107
 8914TIP3    H150937   1.358   0.752   9.088  0.7761  0.6233 -0.8851
 8914TIP3    H250938   1.383   0.881   9.163  1.0979  0.3883 -0.5853
 8915TIP3   OH250939   2.226   1.954  11.794 -0.1416 -0.0146  0.5139
 8915TIP3    H150940   2.136   1.933  11.819  0.0102 -1.6117 -0.1638
 8915TIP3    H250941   2.231   1.932  11.701  0.2066  2.7190 -0.2173
 8916TIP3   OH250942   2.127   2.274  12.601  0.3421  0.0051 -0.4292
 8916TIP3    H150943   2.198   2.327  12.638 -0.6135 -0.1026  1.7184
 8916TIP3    H250944   2.089   2.329  12.533  1.0780  0.9688 -0.0877
 8917TIP3   OH250945   2.399   3.822  13.143  0.2313 -0.4529  0.4899
 8917TIP3    H150946   2.459   3.891  13.113  1.0971 -0.9022  1.1553
 8917TIP3    H250947   2.346   3.802  13.065  1.0272 -0.1360 -0.1546
 8918TIP3   OH250948   6.565   6.287  11.401  0.2983  0.2105  0.3308
 8918TIP3    H150949   6.602   6.339  11.473  0.0576 -1.0509  1.4166
 8918TIP3    H250950   6.505   6.227  11.444  1.0203 -1.3804 -0.7873
 8919TIP3   OH250951   4.852   3.556  11.524  0.4087 -0.1185  0.4378
 8919TIP3    H150952   4.779   3.503  11.555  0.4818 -0.4619  0.0271
 8919TIP3    H250953   4.828   3.646  11.547  1.5666 -0.5103  3.8355
 8920TIP3   OH250954   2.545   5.490  10.190  0.1819  0.2410  0.2108
 8920TIP3    H150955   2.585   5.537  10.117 -0.9456 -1.2095 -1.4114
 8920TIP3    H250956   2.511   5.559  10.247  2.6858  1.4500  0.3721
 8921TIP3   OH250957   2.543   3.457  11.588 -0.0742  0.4581  0.4282
 8921TIP3    H150958   2.493   3.535  11.611  0.1632  0.8239 -0.2882
 8921TIP3    H250959   2.499   3.386  11.636 -0.8331  0.8863  0.3788
 8922TIP3   OH250960   2.876   6.648  11.969 -0.2811 -0.2189 -0.2505
 8922TIP3    H150961   2.892   6.685  11.883 -1.3429 -0.4356 -0.5554
 8922TIP3    H250962   2.864   6.554  11.953 -0.1592 -0.3085  0.1722
 8923TIP3   OH250963   3.780   4.450  11.172 -0.0794 -0.1422  0.5132
 8923TIP3    H150964   3.818   4.388  11.110  2.9422  2.0027  0.0361
 8923TIP3    H250965   3.785   4.405  11.256  0.6208 -1.1134 -0.0330
 8924TIP3   OH250966   4.415   5.688  11.890 -0.2638 -0.1153 -0.5558
 8924TIP3    H150967   4.405   5.655  11.980  0.4907  2.1828  0.4381
 8924TIP3    H250968   4.434   5.609  11.839 -0.4132 -1.4724  1.3343
 8925TIP3   OH250969   1.217   5.520  12.488  0.2453 -0.0460 -0.6490
 8925TIP3    H150970   1.159   5.463  12.438 -2.0892 -0.0681  1.8273
 8925TIP3    H250971   1.176   5.525  12.575  2.1346  2.7712  0.2209
 8926TIP3   OH250972   6.519   0.631  10.157  0.1631 -0.2669  0.7442
 8926TIP3    H150973   6.447   0.585  10.200 -1.3342  0.9054 -0.3914
 8926TIP3    H250974   6.551   0.570  10.090 -0.6387 -0.3053  0.3957
 8927TIP3   OH250975   3.968   2.676   9.590  0.1294 -0.0512 -0.3963
 8927TIP3    H150976   3.956   2.629   9.508 -0.6689 -0.0919 -0.2637
 8927TIP3    H250977   3.938   2.765   9.571  1.9147  0.5159 -0.7349
 8928TIP3   OH250978   6.213   0.599  11.008 -0.0441  0.3830  0.0283
 8928TIP3    H150979   6.259   0.585  10.925 -0.3916 -1.9836  0.1665
 8928TIP3    H250980   6.261   0.671  11.050 -1.2166  3.2142 -3.1074
 8929TIP3   OH250981   4.868   0.262  12.203 -0.3889 -0.4826  0.0334
 8929TIP3    H150982   4.791   0.295  12.248 -0.4829 -0.1399 -0.3661
 8929TIP3    H250983   4.856   0.289  12.112 -0.7494 -2.1274 -0.4370
 8930TIP3   OH250984   2.027   2.601  10.923 -0.3177  0.4009 -0.0914
 8930TIP3    H150985   2.073   2.630  11.002  1.2401 -0.6201 -0.5754
 8930TIP3    H250986   2.009   2.508  10.938  0.0167  0.1898 -0.9407
 8931TIP3   OH250987   5.447   0.942  10.656 -0.1557  0.3844  0.2628
 8931TIP3    H150988   5.402   0.979  10.581  3.6858 -0.1857 -2.5859
 8931TIP3    H250989   5.474   1.018  10.708 -0.3212  0.9818 -0.5100
 8932TIP3   OH250990   3.573   2.045  11.020 -0.1981  0.1909 -0.5973
 8932TIP3    H150991   3.485   2.012  11.002 -0.0270 -0.4670 -0.2300
 8932TIP3    H250992   3.629   2.004  10.954  0.0464 -0.4305 -0.0153
 8933TIP3   OH250993   2.848   5.480  12.471 -0.3809  0.2558 -0.0779
 8933TIP3    H150994   2.919   5.455  12.413 -1.4428 -0.3071 -1.1837
 8933TIP3    H250995   2.870   5.569  12.499  0.6039  0.1998 -0.6215
 8934TIP3   OH250996   0.795   3.035  10.134 -0.5350 -1.0363 -0.2621
 8934TIP3    H150997   0.789   2.964  10.070  0.7747 -0.1943 -1.3691
 8934TIP3    H250998   0.806   2.991  10.218 -0.2683 -2.1581 -0.8675
 8935TIP3   OH250999   4.038   4.697  11.655  0.0204 -0.1224  0.1806
 8935TIP3    H151000   4.131   4.693  11.678  0.0377 -1.1441 -0.0472
 8935TIP3    H251001   4.016   4.790  11.661  0.6574 -0.0512  1.8172
 8936TIP3   OH251002   0.009   1.647  12.208  0.0669  0.4939 -0.6621
 8936TIP3    H151003   0.095   1.688  12.209 -0.4697  1.6663  0.6524
 8936TIP3    H251004   0.026   1.554  12.223  1.0167  0.9408  1.3066
 8937TIP3   OH251005   5.399   0.565  11.612  0.6029  0.8290 -0.1479
 8937TIP3    H151006   5.493   0.574  11.598  0.5818  1.9383  0.3219
 8937TIP3    H251007   5.372   0.649  11.650 -0.0392 -0.5164  2.6408
 8938TIP3   OH251008   0.082   5.523  10.287  0.3517  0.0350 -0.1240
 8938TIP3    H151009  -0.012   5.530  10.267  0.1536 -1.4445  0.1461
 8938TIP3    H251010   0.085   5.511  10.382  0.8518  0.5411 -0.0758
 8939TIP3   OH251011   2.703   4.329  11.502  0.0817 -0.8277  0.2459
 8939TIP3    H151012   2.748   4.292  11.578 -1.5975 -0.5437  1.4434
 8939TIP3    H251013   2.764   4.393  11.466  1.2957 -1.6722  0.7506
 8940TIP3   OH251014   5.156   6.624  10.340 -0.1623 -0.6735 -0.0439
 8940TIP3    H151015   5.071   6.653  10.306 -0.4983 -0.3651  1.0402
 8940TIP3    H251016   5.141   6.605  10.432  1.0027 -0.3685  0.2336
 8941TIP3   OH251017   3.323   3.784  10.580  0.2078 -0.1736  0.1287
 8941TIP3    H151018   3.308   3.693  10.607  1.9776 -0.9722 -1.4586
 8941TIP3    H251019   3.273   3.793  10.499  3.7590 -1.3113 -2.3957
 8942TIP3   OH251020   3.386   4.595  10.487  0.2490 -0.0739  0.4433
 8942TIP3    H151021   3.369   4.502  10.506 -1.2025 -0.0294 -0.5099
 8942TIP3    H251022   3.437   4.594  10.407 -0.5869 -0.0416 -0.1018
 8943TIP3   OH251023   4.268   6.106  10.948 -0.5901 -0.0120  0.4164
 8943TIP3    H151024   4.214   6.170  10.994 -0.5399  0.6289 -0.3876
 8943TIP3    H251025   4.358   6.137  10.961 -0.2767 -1.5430  2.4805
 8944TIP3   OH251026   1.980   6.558  11.304 -0.2000 -0.1217  0.2401
 8944TIP3    H151027   2.000   6.607  11.383 -0.6732 -1.1546  1.0362
 8944TIP3    H251028   1.958   6.624  11.239  0.2352  0.7472  0.9625
 8945TIP3   OH251029   1.172   0.332  12.132  0.0397  0.3811  0.0582
 8945TIP3    H151030   1.226   0.348  12.055  1.8204 -3.4151  0.2874
 8945TIP3    H251031   1.231   0.345  12.206  0.1137 -1.6714  0.4189
 8946TIP3   OH251032   5.833   6.451   9.903  0.1338 -0.3123 -0.2215
 8946TIP3    H151033   5.831   6.383   9.970 -1.1004  0.3553  0.4567
 8946TIP3    H251034   5.915   6.498   9.917  0.6174 -1.1645 -0.1970
 8947TIP3   OH251035   1.792   3.641  11.971  0.0106 -0.4063 -0.2221
 8947TIP3    H151036   1.830   3.729  11.972 -1.5551  0.3007  0.2564
 8947TIP3    H251037   1.776   3.621  12.063 -0.6714 -0.7046 -0.3986
 8948TIP3   OH251038   4.752   3.495  10.261 -0.4576 -0.0951  0.4745
 8948TIP3    H151039   4.788   3.550  10.191 -0.1996 -0.7920  0.0396
 8948TIP3    H251040   4.674   3.542  10.290 -0.2588  0.4858  0.0997
 8949TIP3   OH251041   2.520   6.597   9.915  0.3277  0.4606  0.1881
 8949TIP3    H151042   2.514   6.503   9.896  0.0969  0.1115  1.8704
 8949TIP3    H251043   2.436   6.632   9.888  0.0311 -0.0038  0.4976
 8950TIP3   OH251044   4.115   4.168  10.034 -0.1998  0.5150 -0.2975
 8950TIP3    H151045   4.192   4.177  10.091 -1.9059  6.5432  1.7402
 8950TIP3    H251046   4.044   4.147  10.094 -1.2066  1.9083 -0.9636
 8951TIP3   OH251047   2.132   4.423  11.580  0.4632  0.2181  0.0313
 8951TIP3    H151048   2.186   4.369  11.638  1.0963 -1.9734 -2.4238
 8951TIP3    H251049   2.049   4.434  11.627  1.8469  0.8815  2.4645
 8952TIP3   OH251050   3.510   3.935  11.534 -0.0412  0.5253  0.1786
 8952TIP3    H151051   3.428   3.967  11.570  0.2579  0.7982  0.6214
 8952TIP3    H251052   3.561   4.014  11.518  0.3776  0.3218  0.4947
 8953TIP3   OH251053   5.838   6.389  12.154 -0.5119  0.3100  0.3298
 8953TIP3    H151054   5.787   6.402  12.075 -1.5058 -0.5260  0.8128
 8953TIP3    H251055   5.893   6.468  12.160 -1.4985  1.0789 -0.3811
 8954TIP3   OH251056   5.476   1.402  10.353  0.1783 -0.2096 -0.3062
 8954TIP3    H151057   5.537   1.465  10.390 -2.3480  2.6037 -0.5211
 8954TIP3    H251058   5.477   1.419  10.259 -0.6438 -0.3719 -0.3565
 8955TIP3   OH251059   4.397   1.953  10.289 -0.0550 -0.2917  0.1764
 8955TIP3    H151060   4.411   1.905  10.371  0.2413 -1.0786 -0.3295
 8955TIP3    H251061   4.384   2.044  10.317  0.5950 -0.4571  1.0545
 8956TIP3   OH251062   4.656   5.040   9.331  0.0924 -0.6779  0.2988
 8956TIP3    H151063   4.748   5.025   9.351 -0.3128 -1.1524  2.0054
 8956TIP3    H251064   4.632   4.968   9.273  0.5187 -1.2349  0.8011
 8957TIP3   OH251065   5.720   1.965  12.016 -0.4044 -0.3385  0.2893
 8957TIP3    H151066   5.692   1.874  12.026  0.0891 -0.5033  0.2080
 8957TIP3    H251067   5.663   2.014  12.075  0.4708 -0.9245  1.6823
 8958TIP3   OH251068   2.834   5.474  11.016  0.4351 -0.0529  0.8298
 8958TIP3    H151069   2.913   5.529  11.021 -0.4719  1.4471 -0.5239
 8958TIP3    H251070   2.848   5.407  11.083  2.4794  0.6587  1.2011
 8959TIP3   OH251071   2.191   0.134  10.977 -0.8269  0.4640  0.0052
 8959TIP3    H151072   2.116   0.101  10.928  0.0965  0.4534 -1.4572
 8959TIP3    H251073   2.223   0.058  11.026  0.4422 -0.5342 -2.2523
 8960TIP3   OH251074   3.050   4.210  11.029  0.0121 -0.3667 -0.1179
 8960TIP3    H151075   3.106   4.134  11.010 -0.3804 -0.1598 -2.2602
 8960TIP3    H251076   3.055   4.264  10.951  0.1136  1.7672  1.2817
 8961TIP3   OH251077   6.006   3.041  12.234 -0.2812 -0.2193 -0.2701
 8961TIP3    H151078   6.083   3.020  12.182  0.8866 -0.0208  1.3336
 8961TIP3    H251079   6.020   2.997  12.318 -1.1576  1.0873  0.6030
 8962TIP3   OH251080   0.515   0.558  10.393  0.1394 -0.0297  0.3240
 8962TIP3    H151081   0.527   0.652  10.402  2.5011 -0.3357  1.0490
 8962TIP3    H251082   0.486   0.546  10.303 -0.2008  1.3621  0.2217
 8963TIP3   OH251083   1.293   4.468  12.099 -0.0604  0.0177  0.4934
 8963TIP3    H151084   1.351   4.542  12.117  0.4416  0.0827 -1.2129
 8963TIP3    H251085   1.214   4.486  12.149 -0.1292  1.9705 -0.2585
 8964TIP3   OH251086   1.849   4.162  12.716 -0.3027 -0.2574 -0.1582
 8964TIP3    H151087   1.779   4.164  12.781  0.8789 -0.6901  1.1902
 8964TIP3    H251088   1.816   4.214  12.643 -1.4370  0.7884  1.0461
 8965TIP3   OH251089   2.263   0.115  12.957  0.1213 -0.4123  0.1133
 8965TIP3    H151090   2.332   0.149  13.013 -0.6598  0.4531  0.5783
 8965TIP3    H251091   2.309   0.071  12.886  1.1272 -0.9433  1.0729
 8966TIP3   OH251092   0.281   5.385  11.256 -0.4978  0.3332  0.2225
 8966TIP3    H151093   0.211   5.320  11.269 -0.1375 -0.6109 -2.1367
 8966TIP3    H251094   0.362   5.335  11.259 -0.0718  1.0115  0.3304
 8967TIP3   OH251095   2.606   2.733  10.984 -0.4940 -0.0067 -0.2286
 8967TIP3    H151096   2.623   2.760  11.074 -0.2489  0.1490 -0.3202
 8967TIP3    H251097   2.598   2.638  10.989  2.3829 -0.3448 -0.4645
 8968TIP3   OH251098   5.712   1.224  10.720  0.0027  0.5119 -0.4535
 8968TIP3    H151099   5.799   1.187  10.704  1.8483  3.9132  0.6876
 8968TIP3    H251100   5.673   1.231  10.633  1.3232 -0.1021 -1.1234
 8969TIP3   OH251101   4.975   2.249  11.544 -0.5973 -0.4552  0.2382
 8969TIP3    H151102   5.038   2.227  11.475 -1.1939 -1.3774 -0.0363
 8969TIP3    H251103   5.021   2.230  11.625  0.1301  0.6913  0.1186
 8970TIP3   OH251104   0.529   3.092  11.466  0.3217 -0.0009  0.6048
 8970TIP3    H151105   0.505   3.054  11.551  0.3808 -0.0512  0.5998
 8970TIP3    H251106   0.596   3.157  11.488  0.8832 -0.5389  0.5205
 8971TIP3   OH251107   5.372   1.218  10.672 -0.4476 -0.3472  0.3918
 8971TIP3    H151108   5.355   1.214  10.766  0.9268  0.0324  0.6816
 8971TIP3    H251109   5.407   1.306  10.658 -1.1486 -0.2112 -0.5778
 8972TIP3   OH251110   1.449   2.884   9.823  0.5028  0.7246  0.2266
 8972TIP3    H151111   1.471   2.791   9.826  0.3636  0.5889 -1.6263
 8972TIP3    H251112   1.410   2.903   9.908  2.6385 -0.3367  1.5339
 8973TIP3   OH251113   0.395   3.904  12.595 -0.9104  0.3597 -0.9248
 8973TIP3    H151114   0.464   3.927  12.657 -1.2935  0.0982 -0.3935
 8973TIP3    H251115   0.323   3.872  12.650 -1.3842  0.4517 -1.4817
 8974TIP3   OH251116   2.144   5.096  12.682 -0.2812 -0.4023 -0.3443
 8974TIP3    H151117   2.184   5.116  12.766 -2.1685 -2.5614  1.2063
 8974TIP3    H251118   2.168   5.004  12.665  0.7528  0.2151 -2.6391
 8975TIP3   OH251119   6.132   5.625  11.709  0.7660  0.3819 -0.3645
 8975TIP3    H151120   6.131   5.642  11.615 -0.0923 -0.6915 -0.5658
 8975TIP3    H251121   6.130   5.712  11.749  2.4358  0.9063 -1.3142
 8976TIP3   OH251122   3.773   0.355  11.211  0.1386  0.8487 -0.2069
 8976TIP3    H151123   3.850   0.298  11.220 -1.5783 -2.0869 -2.1111
 8976TIP3    H251124   3.714   0.327  11.281 -0.6324  0.3763 -1.0172
 8977TIP3   OH251125   0.438   1.603  12.445 -0.8262 -0.5729  0.0942
 8977TIP3    H151126   0.431   1.698  12.459  0.3209 -0.1662 -1.7195
 8977TIP3    H251127   0.347   1.573  12.445 -1.3184  0.8086 -0.8257
 8978TIP3   OH251128   5.158   0.832  10.431 -0.1223 -0.1037  0.2891
 8978TIP3    H151129   5.063   0.842  10.422 -0.0437  0.2000 -0.2873
 8978TIP3    H251130   5.194   0.912  10.391  0.4313 -1.0481 -1.2014
 8979TIP3   OH251131   4.235   2.707   9.561 -0.8519 -0.5062 -0.1191
 8979TIP3    H151132   4.141   2.717   9.550 -0.9500 -0.9291  0.3369
 8979TIP3    H251133   4.252   2.738   9.650 -0.3471  0.9683 -0.6879
 8980TIP3   OH251134   5.624   0.021  13.249 -0.1244  0.1476 -0.2689
 8980TIP3    H151135   5.684  -0.052  13.236 -0.2083  0.0007  0.1464
 8980TIP3    H251136   5.539  -0.013  13.221  0.1616  0.7030 -1.8922
 8981TIP3   OH251137   1.281   3.211  12.209  0.1391 -0.4514 -0.2165
 8981TIP3    H151138   1.306   3.228  12.118 -1.3437 -0.2821 -0.6161
 8981TIP3    H251139   1.305   3.292  12.255 -1.6094  0.5744 -1.0141
 8982TIP3   OH251140   1.054   0.256  10.396  0.3382 -0.3063  0.2646
 8982TIP3    H151141   1.137   0.223  10.431  2.0267 -0.6047 -3.5327
 8982TIP3    H251142   1.031   0.193  10.327 -0.7806  1.9974 -1.5988
 8983TIP3   OH251143   2.250   1.774  12.255 -0.2422 -0.0625  0.2306
 8983TIP3    H151144   2.330   1.818  12.225 -0.7505  0.1813 -0.8212
 8983TIP3    H251145   2.213   1.835  12.319 -0.2826  0.4781 -0.2897
 8984TIP3   OH251146   2.395   0.046  10.165  0.7846  0.0852  0.1141
 8984TIP3    H151147   2.367   0.094  10.087 -3.7248  0.2485  1.5045
 8984TIP3    H251148   2.346  -0.036  10.161  1.2787 -0.3714  2.1802
 8985TIP3   OH251149   6.616   4.233  11.718 -0.1210 -0.1173 -0.0231
 8985TIP3    H151150   6.695   4.190  11.749 -0.2993 -0.3741  0.0821
 8985TIP3    H251151   6.647   4.306  11.666  0.1893 -0.5621 -0.4721
 8986TIP3   OH251152   2.211   5.954  11.886  0.3203 -0.4171  0.3042
 8986TIP3    H151153   2.145   6.008  11.843  1.8853 -0.1947 -1.9758
 8986TIP3    H251154   2.166   5.870  11.901 -1.1218  0.4168  0.8744
 8987TIP3   OH251155   2.610   1.561  11.423 -0.8491  0.1193 -0.0702
 8987TIP3    H151156   2.585   1.516  11.343  0.2257  0.2521 -0.5007
 8987TIP3    H251157   2.658   1.495  11.474  0.7864  0.7285 -0.7293
 8988TIP3   OH251158   3.086   5.104  10.594  0.7441  0.1286 -0.1299
 8988TIP3    H151159   3.119   5.057  10.671  0.4994  2.0793  1.2364
 8988TIP3    H251160   2.993   5.117  10.612  0.2975 -0.8241 -1.5721
 8989TIP3   OH251161   5.605   0.762  10.976 -0.0329  0.0160  0.4178
 8989TIP3    H151162   5.585   0.676  10.942 -0.7246  0.2807  0.1418
 8989TIP3    H251163   5.676   0.794  10.920 -0.4760  0.0409 -0.1370
 8990TIP3   OH251164   6.305   2.343  10.009 -0.1824 -0.2097  0.1664
 8990TIP3    H151165   6.353   2.362   9.928  0.9666 -0.9662  0.6416
 8990TIP3    H251166   6.269   2.255   9.995 -1.4486  0.3377 -0.1732
 8991TIP3   OH251167   5.105   5.944  12.093 -0.1194 -0.2302  0.5728
 8991TIP3    H151168   5.196   5.959  12.118 -0.1006  0.0191  0.3555
 8991TIP3    H251169   5.063   6.030  12.099 -0.6190 -0.5423  1.7950
 8992TIP3   OH251170   4.131   6.566  10.978 -0.0693  0.5530 -0.1594
 8992TIP3    H151171   4.122   6.560  11.073  0.2092 -0.0656 -0.1733
 8992TIP3    H251172   4.058   6.515  10.943  1.3271 -1.4715 -0.2693
 8993TIP3   OH251173   4.149   5.726  12.186 -0.4408 -0.4278  0.2878
 8993TIP3    H151174   4.081   5.685  12.133  0.7898 -2.1592 -0.0165
 8993TIP3    H251175   4.231   5.695  12.149  0.8460  4.4183 -1.7410
 8994TIP3   OH251176   4.466   0.726  12.198  0.1119 -0.4905 -0.6602
 8994TIP3    H151177   4.511   0.749  12.280 -0.4473 -1.6039 -0.0087
 8994TIP3    H251178   4.471   0.805  12.145  0.4007  0.2949  0.4887
 8995TIP3   OH251179   3.191   1.045  11.461 -0.8775  0.3683 -0.1051
 8995TIP3    H151180   3.096   1.057  11.459 -0.9928 -0.6118 -1.1137
 8995TIP3    H251181   3.203   0.958  11.499 -0.4067  0.2595 -0.4953
 8996TIP3   OH251182   2.904   0.648  10.671  0.0997 -0.4515 -0.2110
 8996TIP3    H151183   2.837   0.582  10.691  0.2798 -0.2462  1.1875
 8996TIP3    H251184   2.898   0.660  10.577 -1.3782 -0.9245 -0.2104
 8997TIP3   OH251185   0.776   4.032  11.277  0.4717  0.2269 -0.3709
 8997TIP3    H151186   0.696   4.056  11.323 -1.5900  1.8724 -4.2658
 8997TIP3    H251187   0.765   3.939  11.257  0.5532 -0.0605  0.8554
 8998TIP3   OH251188   3.802   4.923   9.649 -0.0513 -0.6723 -0.7237
 8998TIP3    H151189   3.794   5.011   9.613 -1.1805 -0.1917  0.5959
 8998TIP3    H251190   3.843   4.872   9.579  0.8913  0.9457 -1.4155
 8999TIP3   OH251191   1.690   2.098   9.774 -0.5080 -0.4211  0.0764
 8999TIP3    H151192   1.621   2.164   9.771 -1.0802 -0.9368  1.1706
 8999TIP3    H251193   1.761   2.135   9.722 -1.7620 -0.0797 -1.4575
 9000TIP3   OH251194   1.325   6.461  11.219 -0.0602  0.1862  0.5321
 9000TIP3    H151195   1.325   6.375  11.262  0.3785 -1.0518 -1.7882
 9000TIP3    H251196   1.412   6.496  11.236  1.1420 -1.5394 -1.5164
 9001TIP3   OH251197   3.862   0.748  11.701 -0.1408  0.7807 -0.0090
 9001TIP3    H151198   3.924   0.699  11.757 -1.4566 -0.2972  0.5646
 9001TIP3    H251199   3.913   0.821  11.668  1.9925 -1.0266 -1.0124
 9002TIP3   OH251200   6.229   5.397  12.969 -0.3369  0.0222 -0.1321
 9002TIP3    H151201   6.271   5.382  13.054 -1.4689  2.6731  0.9980
 9002TIP3    H251202   6.141   5.361  12.979 -1.5568  3.0355  1.0487
 9003TIP3   OH251203   1.935   4.232  10.825 -0.6286  0.1179 -0.2791
 9003TIP3    H151204   2.008   4.292  10.841 -1.0393  0.5979 -0.1800
 9003TIP3    H251205   1.974   4.145  10.829  0.3121  0.4126 -2.1636
 9004TIP3   OH251206   5.028   6.033   9.400 -0.2464 -0.1362  0.3168
 9004TIP3    H151207   5.107   5.981   9.383 -1.0325 -0.9934 -0.8409
 9004TIP3    H251208   5.041   6.113   9.349 -0.6648 -0.8225 -0.8971
 9005TIP3   OH251209   6.541   0.709   9.828  0.2889  0.3776 -0.3719
 9005TIP3    H151210   6.490   0.751   9.897  2.8957  2.2235  0.5798
 9005TIP3    H251211   6.581   0.633   9.870 -2.7655 -2.1571 -1.5653
 9006TIP3   OH251212   0.731   5.095   9.688  0.1599 -0.5970 -0.5718
 9006TIP3    H151213   0.734   5.175   9.636 -0.5547  1.7676  2.7265
 9006TIP3    H251214   0.641   5.063   9.676  0.1124 -0.3022 -1.0458
 9007TIP3   OH251215   0.480   2.671  10.642  0.5010 -0.0431 -0.3341
 9007TIP3    H151216   0.407   2.728  10.667 -0.0461  0.2966 -2.5041
 9007TIP3    H251217   0.495   2.691  10.549  0.5845 -3.0846 -1.0715
 9008TIP3   OH251218   3.683   5.378  11.123 -0.5956 -0.0140  0.3310
 9008TIP3    H151219   3.724   5.317  11.061 -2.2466  1.7023 -2.6031
 9008TIP3    H251220   3.754   5.400  11.184  1.9473  0.1878 -2.4692
 9009TIP3   OH251221   6.686   2.310  12.054 -0.2712  0.1002 -0.2348
 9009TIP3    H151222   6.616   2.271  12.001  0.5312 -0.5196 -0.8730
 9009TIP3    H251223   6.641   2.370  12.113 -1.3168 -0.1012 -0.7981
 9010TIP3   OH251224   0.478   2.817  11.902 -0.1104 -1.0584  0.4637
 9010TIP3    H151225   0.530   2.777  11.833 -0.9076 -0.6030 -0.4207
 9010TIP3    H251226   0.465   2.747  11.966 -0.1127 -1.7451 -0.2783
 9011TIP3   OH251227   5.456   2.383  12.070 -0.0261  0.4560 -0.3561
 9011TIP3    H151228   5.529   2.393  12.131 -0.5433  0.6246  0.2596
 9011TIP3    H251229   5.380   2.417  12.119 -0.3228  1.3211 -1.3770
 9012TIP3   OH251230   0.085   5.786  10.595  0.0596  0.1018 -0.1722
 9012TIP3    H151231   0.074   5.816  10.685 -0.4261 -1.5154  0.3452
 9012TIP3    H251232   0.119   5.698  10.604 -1.2441 -0.5801 -1.5253
 9013TIP3   OH251233   6.179   3.048  11.238 -0.0780 -0.0306  0.3763
 9013TIP3    H151234   6.221   3.013  11.317  1.5970 -1.0667 -0.9207
 9013TIP3    H251235   6.245   3.103  11.197 -1.1129  0.9338 -0.0644
 9014TIP3   OH251236   4.770   0.806  11.879  0.1124 -0.0673  0.4817
 9014TIP3    H151237   4.716   0.755  11.820 -0.4008 -1.8896  2.4016
 9014TIP3    H251238   4.833   0.850  11.822 -0.2146 -1.8585 -1.3856
 9015TIP3   OH251239   0.803   4.158  11.864 -0.1924  0.0097  0.0143
 9015TIP3    H151240   0.882   4.108  11.887  0.6716  1.0786 -0.5176
 9015TIP3    H251241   0.812   4.239  11.913 -1.1567 -0.0032  0.2203
 9016TIP3   OH251242   5.598   3.325  11.104  0.0576 -0.9348  0.0767
 9016TIP3    H151243   5.693   3.314  11.097  0.0366 -1.0948  0.0367
 9016TIP3    H251244   5.571   3.351  11.016  0.3107  1.0361  0.5213
 9017TIP3   OH251245   0.587   4.484  10.954  0.1218  0.1769 -0.3384
 9017TIP3    H151246   0.500   4.477  10.992  0.4611  1.9857  0.8582
 9017TIP3    H251247   0.588   4.569  10.910  1.4312  0.3983  0.0743
 9018TIP3   OH251248   3.705   2.031  11.472 -0.1130 -0.0051  0.3903
 9018TIP3    H151249   3.767   2.000  11.407  0.4917  1.0603  0.4414
 9018TIP3    H251250   3.633   2.068  11.421  0.2527  0.6147  0.3021
 9019TIP3   OH251251   1.335   3.447  11.015 -0.2555 -0.2205 -0.2251
 9019TIP3    H151252   1.250   3.449  10.972  0.6451  1.4464 -2.0810
 9019TIP3    H251253   1.385   3.381  10.967  0.1543  0.2700 -0.4706
 9020TIP3   OH251254   1.755   3.617  10.975  0.3912  0.0237  0.6965
 9020TIP3    H151255   1.662   3.626  10.997  0.0339 -1.2852 -0.1284
 9020TIP3    H251256   1.789   3.555  11.040  0.4977 -0.0749  0.5472
 9021TIP3   OH251257   1.494   4.272  10.716 -0.1091  0.7235 -0.2238
 9021TIP3    H151258   1.583   4.270  10.681 -0.0908  0.6659 -0.1748
 9021TIP3    H251259   1.448   4.337  10.662  0.2433  1.5383  0.4449
 9022TIP3   OH251260   3.140   4.429  10.317  0.3414  0.1777  0.5422
 9022TIP3    H151261   3.131   4.502  10.255  2.6548  0.3421  0.3326
 9022TIP3    H251262   3.145   4.351  10.261  0.5188  0.1275  0.6301
 9023TIP3   OH251263   5.960   5.501  11.911 -0.5541 -0.1141  0.2628
 9023TIP3    H151264   6.013   5.538  11.841  0.4201  0.7859  1.4281
 9023TIP3    H251265   5.871   5.499  11.875  0.3746 -2.9331 -2.2269
 9024TIP3   OH251266   1.712   5.619   9.317 -0.3220 -0.2812 -0.1450
 9024TIP3    H151267   1.791   5.626   9.371 -1.1084 -1.2039  1.1761
 9024TIP3    H251268   1.663   5.546   9.355 -1.3761 -0.3480 -1.5323
 9025TIP3   OH251269   6.580   5.567  11.230  0.0566 -0.3984  0.2845
 9025TIP3    H151270   6.578   5.496  11.294 -0.5307  0.1697  0.9175
 9025TIP3    H251271   6.669   5.566  11.195  1.0593  0.5793  2.6350
 9026TIP3   OH251272   5.691   5.494   9.480 -0.0805 -0.1197  0.4201
 9026TIP3    H151273   5.782   5.496   9.449  0.0644 -0.4236  0.8172
 9026TIP3    H251274   5.689   5.422   9.543 -0.7962 -0.6505 -0.1919
 9027TIP3   OH251275   0.338   5.243  12.642  0.3906  0.8886 -0.3315
 9027TIP3    H151276   0.253   5.198  12.650  0.3995  0.7482 -0.9937
 9027TIP3    H251277   0.315   5.333  12.617  0.4522  0.7505 -0.8856
 9028TIP3   OH251278   2.225   0.420   9.786  0.2136  0.0507 -1.1747
 9028TIP3    H151279   2.277   0.436   9.708  1.1810  1.8850 -0.2037
 9028TIP3    H251280   2.151   0.481   9.779  1.0431  1.2391 -0.0391
 9029TIP3   OH251281   1.735   5.065  12.348 -0.4367  0.4933  0.3540
 9029TIP3    H151282   1.699   5.089  12.433  0.3937  0.9173  0.5956
 9029TIP3    H251283   1.810   5.122  12.336  1.6341 -1.9164  0.9533
 9030TIP3   OH251284   0.833   5.347   9.714  0.0473  0.2707 -0.5760
 9030TIP3    H151285   0.850   5.432   9.754 -0.3732  0.7684 -1.4324
 9030TIP3    H251286   0.913   5.327   9.665  0.5058 -0.2715  0.3649
 9031TIP3   OH251287   0.296   6.435  10.772 -0.5683  0.6255 -0.0697
 9031TIP3    H151288   0.324   6.488  10.697 -2.4425  0.9906 -0.5449
 9031TIP3    H251289   0.367   6.371  10.783 -0.0173  0.8770 -1.8383
 9032TIP3   OH251290   1.202   1.096   9.648  0.2971 -0.5785  0.5645
 9032TIP3    H151291   1.112   1.122   9.666 -0.4424 -0.8716 -2.3107
 9032TIP3    H251292   1.254   1.142   9.715 -1.7463  1.4628  0.8562
 9033TIP3   OH251293   4.901   3.851  12.394 -0.5614  0.7054  0.2464
 9033TIP3    H151294   4.838   3.809  12.335  0.2450 -0.8652  0.4490
 9033TIP3    H251295   4.963   3.895  12.336  0.1096 -0.6596 -0.1158
 9034TIP3   OH251296   1.819   5.919  12.367 -0.5567  0.4379 -0.2373
 9034TIP3    H151297   1.866   5.848  12.410  1.8172  1.0237 -1.6507
 9034TIP3    H251298   1.732   5.919  12.407  0.1473 -1.6990  1.4655
 9035TIP3   OH251299   1.994   4.259   9.395  0.7113  0.1641  0.1134
 9035TIP3    H151300   2.065   4.304   9.442  2.5251 -1.9164 -0.4693
 9035TIP3    H251301   1.971   4.186   9.453 -0.4203  0.3644 -0.0771
 9036TIP3   OH251302   5.991   5.691  10.506  0.4837 -0.8713 -0.1821
 9036TIP3    H151303   5.952   5.769  10.546 -0.1491 -1.3137  0.0845
 9036TIP3    H251304   6.058   5.725  10.447  1.0840 -0.1749  0.8641
 9037TIP3   OH251305   1.279   3.977  10.551 -0.2637 -0.1024  0.0527
 9037TIP3    H151306   1.289   4.059  10.599  0.1087 -0.8727  1.3458
 9037TIP3    H251307   1.364   3.934  10.559 -0.9849 -1.4250  0.9741
 9038TIP3   OH251308   4.036   5.095  10.762 -0.3713  0.1199  0.0587
 9038TIP3    H151309   4.043   4.999  10.758 -0.3156  0.1646 -3.0545
 9038TIP3    H251310   4.113   5.122  10.812 -0.3423 -1.4414  0.9249
 9039TIP3   OH251311   4.135   0.115  10.161  0.7580 -0.3171  0.6563
 9039TIP3    H151312   4.190   0.145  10.233  0.4357  0.6048  0.5354
 9039TIP3    H251313   4.051   0.159  10.175  1.0158  0.7879 -0.8641
 9040TIP3   OH251314   3.488   0.351  11.603  0.3373 -0.0313  0.2573
 9040TIP3    H151315   3.509   0.258  11.614 -0.3925 -0.4295 -1.4106
 9040TIP3    H251316   3.475   0.361  11.508 -2.2157  1.1877  0.6635
 9041TIP3   OH251317   5.335   4.673  11.439  0.1716  0.3337  0.2078
 9041TIP3    H151318   5.339   4.618  11.360 -0.6147  0.3030  0.1799
 9041TIP3    H251319   5.252   4.721  11.430 -0.7852 -0.9253  1.8385
 9042TIP3   OH251320   0.192   4.746  11.633  0.1181 -0.3709 -0.6551
 9042TIP3    H151321   0.134   4.813  11.670  1.1966 -0.3405  1.0626
 9042TIP3    H251322   0.242   4.792  11.566 -1.0680 -0.1531 -1.4291
 9043TIP3   OH251323   0.824   0.031  11.643  0.2864 -0.0552 -0.1198
 9043TIP3    H151324   0.791   0.078  11.567  1.5874  4.1108  1.6039
 9043TIP3    H251325   0.919   0.033  11.633  0.4470 -0.1922  1.1865
 9044TIP3   OH251326   6.554   3.269  12.787 -0.4488  0.0704 -0.2704
 9044TIP3    H151327   6.587   3.296  12.702 -0.1682 -1.3582 -0.6356
 9044TIP3    H251328   6.463   3.298  12.788 -0.6780 -0.5885 -1.3648
 9045TIP3   OH251329   5.145   0.465  11.619 -0.3980 -0.1406  0.3356
 9045TIP3    H151330   5.231   0.495  11.589 -0.2789  0.6116  1.3656
 9045TIP3    H251331   5.162   0.383  11.664 -0.2214 -0.0351  0.4649
 9046TIP3   OH251332   0.425   3.164  11.738 -0.2659  0.0192  0.3228
 9046TIP3    H151333   0.408   3.151  11.832 -0.6943  1.5758  0.4992
 9046TIP3    H251334   0.487   3.237  11.735  0.5005 -0.6440 -0.5978
 9047TIP3   OH251335   0.615   3.707  12.223  0.3563 -0.4987 -0.0994
 9047TIP3    H151336   0.540   3.653  12.197  0.6523 -0.6183 -0.7192
 9047TIP3    H251337   0.686   3.644  12.235  0.6188 -0.2856 -0.5127
 9048TIP3   OH251338   2.626   4.862  11.627  0.2066 -0.1894 -0.2523
 9048TIP3    H151339   2.630   4.766  11.619 -1.2925 -0.2751 -0.2675
 9048TIP3    H251340   2.569   4.889  11.555  0.9673  0.7647 -0.5081
 9049TIP3   OH251341   6.639   5.100  10.417 -0.5478  0.2243 -0.3927
 9049TIP3    H151342   6.647   5.192  10.442  2.7092  0.2656 -1.0935
 9049TIP3    H251343   6.624   5.102  10.323  0.3790  0.0589 -0.5501
 9050TIP3   OH251344   0.347   2.313   9.590  0.7370  0.1195  0.5162
 9050TIP3    H151345   0.286   2.368   9.541  1.1524  0.4631  0.3773
 9050TIP3    H251346   0.304   2.227   9.595  0.5038  0.2007 -0.0780
 9051TIP3   OH251347   0.551   5.031  10.841  0.3599  0.6030  0.3680
 9051TIP3    H151348   0.558   4.999  10.751  0.6906  1.3523  0.1243
 9051TIP3    H251349   0.494   4.968  10.884  0.8965 -0.2541 -0.1375
 9052TIP3   OH251350   5.906   0.611  10.069 -0.2906  0.3033 -0.1014
 9052TIP3    H151351   5.864   0.609   9.983  0.4310  0.0505 -0.4594
 9052TIP3    H251352   5.879   0.529  10.110  1.7014 -1.0414 -1.2687
 9053TIP3   OH251353   2.018   0.485   9.009  0.0402  0.2918 -0.4460
 9053TIP3    H151354   1.993   0.400   9.045  2.1734 -0.6179 -0.9256
 9053TIP3    H251355   1.976   0.488   8.923 -1.6130  0.6183  0.3304
 9054TIP3   OH251356   0.025   4.121  12.091  1.0728 -0.2218  0.4857
 9054TIP3    H151357   0.010   4.042  12.040  1.1128 -0.1542  0.3699
 9054TIP3    H251358   0.083   4.175  12.037  0.1918  0.3559  0.1003
 9055TIP3   OH251359   3.783   0.324   9.835 -0.3338  0.4679 -0.1651
 9055TIP3    H151360   3.857   0.315   9.775 -1.0543 -0.6985 -0.9300
 9055TIP3    H251361   3.763   0.234   9.861 -0.0933  0.9311  1.7940
 9056TIP3   OH251362   1.510   5.608  11.143 -0.2850  0.2085 -0.3286
 9056TIP3    H151363   1.536   5.582  11.055  0.1993  0.2029 -0.1876
 9056TIP3    H251364   1.566   5.683  11.164  0.9537 -0.9558  0.6912
 9057TIP3   OH251365   5.816   2.424  11.547 -0.5522  0.2319 -0.1102
 9057TIP3    H151366   5.876   2.483  11.502 -0.1626 -0.8668 -1.0803
 9057TIP3    H251367   5.872   2.360  11.589 -1.0108 -1.4065 -1.8743
 9058TIP3   OH251368   0.967   2.531   9.354  0.3728  0.3384  0.2755
 9058TIP3    H151369   0.980   2.610   9.302  0.3933  0.0764 -0.1259
 9058TIP3    H251370   0.914   2.559   9.428 -0.9853  0.4261 -0.6856
 9059TIP3   OH251371   0.378   1.398  10.402  0.3710 -0.3130  0.3124
 9059TIP3    H151372   0.340   1.453  10.470  2.8247  0.8531  0.8689
 9059TIP3    H251373   0.311   1.394  10.334  0.1617  3.7758  0.0455
 9060TIP3   OH251374   4.775   5.553  11.662 -0.6786  0.2778  0.0808
 9060TIP3    H151375   4.847   5.514  11.713 -0.4698  0.5626  0.0026
 9060TIP3    H251376   4.765   5.495  11.587  1.2673  1.6616 -1.3444
 9061TIP3   OH251377   3.643   1.428  11.761  0.1882 -0.0586  0.5247
 9061TIP3    H151378   3.730   1.438  11.799  0.4887 -0.3419 -0.0788
 9061TIP3    H251379   3.605   1.352  11.805  1.1842 -1.4343 -0.9109
 9062TIP3   OH251380   1.804   1.666  11.000 -0.3916 -0.6117  0.1571
 9062TIP3    H151381   1.889   1.706  10.983  0.0046 -1.0303  1.0802
 9062TIP3    H251382   1.806   1.643  11.093 -0.8421 -2.1611 -0.1781
 9063TIP3   OH251383   1.383   1.048  10.533 -0.1146  0.0731 -0.0356
 9063TIP3    H151384   1.309   1.048  10.593 -1.2882  1.2139 -1.3949
 9063TIP3    H251385   1.375   0.966  10.485  0.6454 -0.6946  1.0949
 9064TIP3   OH251386   4.535   4.024  10.778 -0.0750  0.3134 -0.5084
 9064TIP3    H151387   4.608   4.061  10.728 -0.7052 -0.9064 -2.4814
 9064TIP3    H251388   4.574   3.954  10.829  0.0306 -1.2641 -2.6126
 9065TIP3   OH251389   0.347   3.452  10.290  0.3247  0.0357 -0.0385
 9065TIP3    H151390   0.377   3.363  10.308  0.5386  0.1748  0.2991
 9065TIP3    H251391   0.408   3.485  10.224 -1.0336 -0.8136 -1.8131
 9066TIP3   OH251392   4.786   5.744  11.869 -0.2115  0.3012 -0.0366
 9066TIP3    H151393   4.732   5.686  11.923 -1.1775 -0.2273 -1.4974
 9066TIP3    H251394   4.790   5.700  11.783 -1.6332  2.7183 -1.4417
 9067TIP3   OH251395   4.856   4.880  11.546  0.3662  0.1641  0.7592
 9067TIP3    H151396   4.885   4.933  11.472  1.8250 -1.2064  0.3014
 9067TIP3    H251397   4.761   4.889  11.546  0.2197 -0.5708 -1.8935
 9068TIP3   OH251398   2.219   0.534   9.206  0.2020  0.2944  0.1211
 9068TIP3    H151399   2.150   0.507   9.147  0.7169  1.0581 -0.8697
 9068TIP3    H251400   2.290   0.472   9.190 -0.4392 -0.8744  1.5880
 9069TIP3   OH251401   0.087   0.253   9.319  0.3083 -0.3958  0.2733
 9069TIP3    H151402   0.057   0.190   9.385 -0.2324  0.1788  0.5898
 9069TIP3    H251403   0.058   0.215   9.236  0.8115 -1.0199  0.3727
 9070TIP3   OH251404   6.294   2.999  11.472  1.2213  0.0243 -0.1281
 9070TIP3    H151405   6.304   2.970  11.563  2.7206 -0.1227 -0.3056
 9070TIP3    H251406   6.321   3.091  11.473 -0.7765  0.6480 -0.0797
 9071TIP3   OH251407   6.404   3.249  11.433 -0.0966 -0.0675 -0.0179
 9071TIP3    H151408   6.424   3.252  11.339  2.8325 -2.5478  0.3636
 9071TIP3    H251409   6.467   3.309  11.473 -0.6932  0.2589  0.4440
 9072TIP3   OH251410   4.908   3.799  11.333 -0.5280 -0.4249  0.3641
 9072TIP3    H151411   4.931   3.825  11.244  0.1843 -0.4598  0.5306
 9072TIP3    H251412   4.819   3.764  11.326 -0.5690 -0.1940 -0.2861
 9073TIP3   OH251413   4.234   5.623  11.166 -0.5704 -0.3892  0.4440
 9073TIP3    H151414   4.178   5.694  11.135 -0.8445  0.0670  1.9448
 9073TIP3    H251415   4.265   5.581  11.085  0.2576  1.9094 -0.5164
 9074TIP3   OH251416   3.234   1.847   8.999 -0.1884 -0.2494 -0.4468
 9074TIP3    H151417   3.318   1.837   9.043  0.1075 -2.0552 -1.3062
 9074TIP3    H251418   3.220   1.763   8.955 -1.7937  0.4865 -1.4507
 9075TIP3   OH251419   2.321   1.563   9.280 -0.5094 -0.9021  0.6740
 9075TIP3    H151420   2.264   1.530   9.211 -0.4602 -0.1793  0.2710
 9075TIP3    H251421   2.401   1.512   9.273 -0.8572 -1.4716  0.8146
 9076TIP3   OH251422   0.527   1.559   9.043  0.1275 -0.6168 -0.0101
 9076TIP3    H151423   0.522   1.655   9.040 -1.0205 -0.6694 -0.9781
 9076TIP3    H251424   0.585   1.540   9.116  1.1907  0.8358 -0.4134
 9077TIP3   OH251425   3.369   1.722  10.019 -0.2278  0.3987 -0.0955
 9077TIP3    H151426   3.418   1.719   9.936 -1.4638  2.0009 -0.9536
 9077TIP3    H251427   3.302   1.789  10.004 -1.1392 -0.0129  1.8694
 9078TIP3   OH251428   4.122   0.249  10.978  0.1826 -0.3710  0.0831
 9078TIP3    H151429   4.054   0.227  11.042  0.8260  1.5683  1.5193
 9078TIP3    H251430   4.192   0.186  10.996 -0.4962 -1.2394 -0.2198
 9079TIP3   OH251431   2.385   0.617  10.669 -0.0541  0.2661 -0.3130
 9079TIP3    H151432   2.355   0.528  10.684  1.3549 -0.1653  0.1451
 9079TIP3    H251433   2.339   0.645  10.591 -0.6250 -0.8167 -0.3848
 9080TIP3   OH251434   0.978   2.050  11.978 -0.6011  0.3653  0.0312
 9080TIP3    H151435   1.003   2.127  12.029 -1.4312  1.1610 -0.7169
 9080TIP3    H251436   0.925   1.997  12.039 -1.3315  1.1530  0.0973
 9081TIP3   OH251437   2.808   2.145  10.248  0.3034 -0.2625  0.0175
 9081TIP3    H151438   2.882   2.149  10.309 -0.4217 -0.2795  0.9124
 9081TIP3    H251439   2.806   2.231  10.206  0.7123 -0.2019  0.1213
 9082TIP3   OH251440   5.476   6.207  11.461 -0.2663  0.2037 -0.3712
 9082TIP3    H151441   5.535   6.141  11.496  0.9088  1.7070  0.6024
 9082TIP3    H251442   5.408   6.157  11.415  0.1033 -1.6902  1.0306
 9083TIP3   OH251443   0.258   4.079  12.421  0.0841  0.2344  0.2146
 9083TIP3    H151444   0.205   4.003  12.397 -0.0988  0.6804 -0.8404
 9083TIP3    H251445   0.322   4.045  12.484 -0.8441 -0.5045  0.7883
 9084TIP3   OH251446   1.489   4.195  10.167 -0.2583 -0.1208 -0.3163
 9084TIP3    H151447   1.416   4.134  10.177  0.0033 -0.3763  0.0547
 9084TIP3    H251448   1.451   4.281  10.186 -0.1195 -0.4207  1.4675
 9085TIP3   OH251449   4.176   1.144  10.917  0.1989  0.2440 -0.0105
 9085TIP3    H151450   4.219   1.155  11.002  0.3940  0.2413 -0.1097
 9085TIP3    H251451   4.136   1.057  10.922  1.6003 -0.4547 -0.5387
 9086TIP3   OH251452   2.259   5.126  10.292 -0.1656 -0.6512  0.4435
 9086TIP3    H151453   2.189   5.084  10.343 -1.0628  0.3055  0.0465
 9086TIP3    H251454   2.286   5.201  10.345 -1.0093  0.2688 -0.3855
 9087TIP3   OH251455   2.796   1.070  11.236  0.2439  0.1443 -0.3107
 9087TIP3    H151456   2.711   1.112  11.248 -0.0806 -0.7530  0.6113
 9087TIP3    H251457   2.857   1.143  11.223 -0.1715  0.9798  2.0178
 9088TIP3   OH251458   3.948   0.174  10.787 -0.1144  0.5830  0.0327
 9088TIP3    H151459   3.990   0.229  10.853  0.7924 -0.7567  0.6212
 9088TIP3    H251460   4.005   0.097  10.779 -3.5202 -2.6306  2.7331
 9089TIP3   OH251461   1.886   6.032   9.644 -0.1590 -0.4092 -0.6666
 9089TIP3    H151462   1.908   6.117   9.683 -1.3066  0.1805 -1.2521
 9089TIP3    H251463   1.959   5.975   9.668  0.7849  0.8236 -0.5228
 9090TIP3   OH251464   2.062   6.409  10.701 -0.8063 -0.0643 -0.4903
 9090TIP3    H151465   1.968   6.407  10.718 -0.8402 -0.2545 -0.6971
 9090TIP3    H251466   2.098   6.341  10.757 -0.7340  0.3115 -0.0730
 9091TIP3   OH251467   1.885   0.845   9.585  0.0653 -0.4429 -0.3571
 9091TIP3    H151468   1.806   0.834   9.638 -1.0230 -1.9151 -2.1551
 9091TIP3    H251469   1.878   0.933   9.548  0.0181 -0.0336  0.5945
 9092TIP3   OH251470   0.027   4.409  10.849 -0.3593  0.1431 -0.0678
 9092TIP3    H151471   0.024   4.316  10.826  0.1515  0.2797 -0.7298
 9092TIP3    H251472   0.119   4.432  10.845 -0.4708  0.6550  0.2021
 9093TIP3   OH251473   3.112   6.519  11.321  0.1721 -0.6674 -0.3811
 9093TIP3    H151474   3.198   6.536  11.283  0.0095 -0.0483 -0.4792
 9093TIP3    H251475   3.055   6.587  11.284 -0.6253 -1.7469 -1.2092
 9094TIP3   OH251476   2.560   1.605  12.145 -0.0764  0.6732 -0.5794
 9094TIP3    H151477   2.571   1.510  12.146 -1.3080  0.4823  1.9076
 9094TIP3    H251478   2.498   1.621  12.073  0.1221 -0.3859 -1.0065
 9095TIP3   OH251479   1.136   3.385  11.257  0.0794 -0.5870 -0.1239
 9095TIP3    H151480   1.119   3.409  11.166  0.9529 -1.0108 -0.4026
 9095TIP3    H251481   1.063   3.425  11.306 -0.8192 -1.0061 -1.0886
 9096TIP3   OH251482   2.995   2.308  10.668  0.1028  0.2071 -0.4613
 9096TIP3    H151483   3.013   2.349  10.753  0.4188 -0.3542 -0.2511
 9096TIP3    H251484   2.986   2.382  10.607  1.7411  0.5743 -0.3032
 9097TIP3   OH251485   4.927   6.605  12.197  0.0767  0.0378  0.1956
 9097TIP3    H151486   4.870   6.617  12.121  1.4433  1.2512 -0.6883
 9097TIP3    H251487   4.992   6.674  12.190  1.0020 -0.6081  1.7895
 9098TIP3   OH251488   1.815   1.435  10.098 -0.1802 -0.6123  0.3183
 9098TIP3    H151489   1.875   1.454  10.027 -0.4787  1.8288  0.6200
 9098TIP3    H251490   1.728   1.446  10.060 -0.3472  0.1985  0.8942
 9099TIP3   OH251491   1.319   4.754   9.871 -0.2186 -0.6087  0.2452
 9099TIP3    H151492   1.288   4.844   9.859 -0.8098 -0.8859 -0.3903
 9099TIP3    H251493   1.376   4.758   9.948  0.3747  0.4525 -0.2314
 9100TIP3   OH251494   5.257   5.994   9.217  0.1498  0.0659  0.0665
 9100TIP3    H151495   5.256   5.936   9.140  0.0401  0.7347 -0.4418
 9100TIP3    H251496   5.325   5.957   9.274  0.6310 -0.1079 -0.6048
 9101TIP3   OH251497   5.851   1.320  10.315 -0.0782  0.0598 -0.5966
 9101TIP3    H151498   5.781   1.279  10.264  0.1826 -3.1626  1.3645
 9101TIP3    H251499   5.909   1.247  10.339  0.7096  1.6350  2.7952
 9102TIP3   OH251500   4.259   6.240  10.078 -0.5248  0.2422  0.1940
 9102TIP3    H151501   4.182   6.259  10.131  1.4094 -0.4039  3.4805
 9102TIP3    H251502   4.260   6.309  10.011 -3.9034  0.2189 -0.0583
 9103TIP3   OH251503   2.858   3.857   9.719  0.4318  0.2053 -0.4415
 9103TIP3    H151504   2.950   3.853   9.743  0.5051  0.7815 -0.6334
 9103TIP3    H251505   2.814   3.803   9.785  0.9407 -0.3413 -0.5453
 9104TIP3   OH251506   1.394   4.384  10.963 -0.1426 -0.1934  0.1236
 9104TIP3    H151507   1.408   4.479  10.968  1.6624 -0.4319  0.2820
 9104TIP3    H251508   1.451   4.355  10.892 -1.3880 -1.0665 -0.5483
 9105TIP3   OH251509   4.312   5.961  11.293 -0.0817 -0.0412  0.5771
 9105TIP3    H151510   4.351   5.966  11.380  0.0492 -0.7891  0.5631
 9105TIP3    H251511   4.386   5.959  11.233 -0.1438  2.8095  0.2731
 9106TIP3   OH251512   6.000   1.949   9.278  0.3967  0.4861  0.3314
 9106TIP3    H151513   6.061   2.014   9.314  1.8733  0.0131 -1.1847
 9106TIP3    H251514   5.954   1.995   9.208 -0.3943  0.5847  0.8982
 9107TIP3   OH251515   1.714   2.824   9.539  0.5969  0.0572  0.4693
 9107TIP3    H151516   1.800   2.789   9.561 -0.2335 -1.3356  1.6456
 9107TIP3    H251517   1.691   2.880   9.613  0.2829  0.0815  0.3562
 9108TIP3   OH251518   5.412   4.112  11.080 -0.0316  0.0784 -0.4217
 9108TIP3    H151519   5.423   4.153  10.994 -1.7591 -0.8032 -1.1142
 9108TIP3    H251520   5.321   4.132  11.104  0.5929  0.8520  1.5321
 9109TIP3   OH251521   1.221   5.180  12.496  0.1078  0.7517  0.1707
 9109TIP3    H151522   1.219   5.098  12.447 -2.9850  0.2452  0.9314
 9109TIP3    H251523   1.289   5.167  12.562  0.9371 -0.4342 -0.8811
 9110TIP3   OH251524   3.462   5.287  10.330  0.0341 -0.3113  0.0940
 9110TIP3    H151525   3.414   5.310  10.410  0.2995  1.1207 -0.1160
 9110TIP3    H251526   3.404   5.316  10.260 -0.4727 -2.1252 -0.2819
 9111TIP3   OH251527   1.025   2.484  11.201  0.0104  1.2071  0.6968
 9111TIP3    H151528   1.096   2.535  11.239  0.0781  1.3778  0.3464
 9111TIP3    H251529   1.023   2.511  11.109  0.1408  0.4774  0.4745
 9112TIP3   OH251530   6.301   3.944   9.195  0.4001  0.8095  0.1916
 9112TIP3    H151531   6.291   3.881   9.124 -1.6909  1.6877 -0.3761
 9112TIP3    H251532   6.243   3.912   9.264  2.1088  0.1804  1.4305
 9113TIP3   OH251533   0.954   2.256   9.319 -0.2439  0.7656 -0.1951
 9113TIP3    H151534   0.956   2.233   9.227  1.5764  0.4464 -0.1223
 9113TIP3    H251535   0.961   2.352   9.320  1.9824  0.6547 -0.4107
 9114TIP3   OH251536   1.524   5.989  12.212 -0.4776 -0.2475 -0.0782
 9114TIP3    H151537   1.530   5.969  12.306 -1.5951 -1.0526 -0.1559
 9114TIP3    H251538   1.593   6.053  12.197  1.6114 -2.1484  0.7439
 9115TIP3   OH251539   4.796   6.566  10.068  0.2883  0.2384  0.2581
 9115TIP3    H151540   4.837   6.621  10.135  0.8530  1.0863 -0.7589
 9115TIP3    H251541   4.719   6.615  10.040 -0.7313 -0.7541  1.2426
 9116TIP3   OH251542   1.925   4.465  11.770  0.2707 -0.3652  0.2909
 9116TIP3    H151543   1.843   4.487  11.726  0.8952 -0.6185 -1.0493
 9116TIP3    H251544   1.935   4.371  11.757  2.3695  0.1247 -2.5175
 9117TIP3   OH251545   5.619   4.991  11.858  0.0615 -0.0799 -0.0065
 9117TIP3    H151546   5.631   5.071  11.908 -1.8609 -0.0120  0.4337
 9117TIP3    H251547   5.617   4.921  11.924 -1.5120 -0.0945 -0.0256
 9118TIP3   OH251548   3.269   1.680  11.532  0.8749 -0.9777 -0.3747
 9118TIP3    H151549   3.295   1.756  11.480 -1.2637  0.7735  0.9590
 9118TIP3    H251550   3.344   1.621  11.526  1.3378 -0.2593 -4.1256
 9119TIP3   OH251551   4.435   5.704  11.355 -0.0169  0.8208  0.4267
 9119TIP3    H151552   4.384   5.705  11.274  1.0260 -1.3745 -0.3436
 9119TIP3    H251553   4.523   5.678  11.327  0.7436  1.4558  2.1101
 9120TIP3   OH251554   5.611   2.873   9.590  0.1862 -0.1929 -0.5780
 9120TIP3    H151555   5.686   2.835   9.635  1.2157  1.3999 -0.8536
 9120TIP3    H251556   5.631   2.967   9.586 -1.2034  0.0876 -1.8338
 9121TIP3   OH251557   4.169   3.328   9.354 -0.5126 -0.6495  0.2464
 9121TIP3    H151558   4.198   3.264   9.289 -0.2176 -1.1605  0.8661
 9121TIP3    H251559   4.074   3.324   9.350 -0.5035 -0.0874 -0.7159
 9122TIP3   OH251560   6.692   2.626   9.563  0.8511  0.3667 -0.4885
 9122TIP3    H151561   6.746   2.675   9.501 -0.5895 -1.5449 -3.5054
 9122TIP3    H251562   6.712   2.534   9.545 -1.2834 -0.3202  0.2710
 9123TIP3   OH251563   3.003   6.060  10.559 -0.1638 -0.0852  0.0724
 9123TIP3    H151564   3.049   6.022  10.634 -0.8844 -0.2458  0.4361
 9123TIP3    H251565   3.060   6.040  10.484 -0.5947 -2.0653  0.2135
 9124TIP3   OH251566   4.847   0.931   9.671 -0.6833 -0.8656  0.8739
 9124TIP3    H151567   4.771   0.955   9.723 -1.6779  0.3589 -1.0497
 9124TIP3    H251568   4.826   0.844   9.637 -1.4164 -0.4006  0.0872
 9125TIP3   OH251569   3.255   6.703   9.690 -0.0655  0.3234  0.2338
 9125TIP3    H151570   3.159   6.704   9.695 -0.0496 -0.4464  1.0859
 9125TIP3    H251571   3.284   6.713   9.781  0.6463  0.0692  0.0431
 9126TIP3   OH251572   0.862   3.916  12.223 -0.0255  0.5435 -0.3040
 9126TIP3    H151573   0.911   3.834  12.234  0.3464  0.6838 -0.8788
 9126TIP3    H251574   0.926   3.985  12.238 -0.2156  0.7294 -0.3448
 9127TIP3   OH251575   6.517   3.974  10.971 -0.4952  0.1197  0.3505
 9127TIP3    H151576   6.583   3.919  10.930 -0.6117 -0.8175  1.3786
 9127TIP3    H251577   6.505   3.937  11.058 -0.0038  2.2439  1.3998
 9128TIP3   OH251578   0.511   0.809  10.514 -0.3290 -0.2822 -0.3292
 9128TIP3    H151579   0.485   0.900  10.529 -0.8598 -0.3418 -0.8453
 9128TIP3    H251580   0.514   0.770  10.602 -0.7324  0.0664 -0.1568
 9129TIP3   OH251581   2.816   5.814  11.715  0.2913 -0.0737  0.5820
 9129TIP3    H151582   2.783   5.888  11.765 -3.6363  0.2144 -2.0297
 9129TIP3    H251583   2.771   5.737  11.751 -0.4817 -0.2293 -0.6336
 9130TIP3   OH251584   5.549   5.988  10.810 -0.1547  0.0560 -0.1937
 9130TIP3    H151585   5.558   5.912  10.867 -2.8974 -0.2572 -0.0497
 9130TIP3    H251586   5.571   6.062  10.865 -0.9135 -0.3946  0.7403
 9131TIP3   OH251587   0.214   1.845  10.302 -0.3055 -0.4447 -0.2820
 9131TIP3    H151588   0.281   1.907  10.330 -1.7345  0.3314  1.6586
 9131TIP3    H251589   0.255   1.795  10.231  2.2818  0.0012  0.8020
 9132TIP3   OH251590   1.704   3.387  10.274 -0.7511 -0.2360 -0.3296
 9132TIP3    H151591   1.668   3.321  10.334 -2.0968 -0.8584 -1.7227
 9132TIP3    H251592   1.782   3.346  10.237 -0.6600 -0.3798  0.0175
 9133TIP3   OH251593   3.359   3.351  10.743 -0.0046  0.3638  0.3045
 9133TIP3    H151594   3.406   3.288  10.688 -0.0028 -0.3820  1.1390
 9133TIP3    H251595   3.363   3.314  10.831 -1.4614  0.6916  0.5344
 9134TIP3   OH251596   0.315   4.875  10.951 -0.2376  0.3205 -0.2649
 9134TIP3    H151597   0.321   4.939  11.022 -0.8130  0.1096 -0.0279
 9134TIP3    H251598   0.336   4.791  10.992 -0.8369  0.1585 -0.2823
 9135TIP3   OH251599   4.109   6.006  11.941 -0.5347  0.4572 -0.1086
 9135TIP3    H151600   4.178   6.047  11.992 -1.1279  2.3426 -0.7377
 9135TIP3    H251601   4.154   5.939  11.890  0.2326 -0.7076  1.9984
 9136TIP3   OH251602   2.594   5.824  10.290  0.0646  0.3057  0.4217
 9136TIP3    H151603   2.550   5.746  10.324 -1.2723  0.5283 -0.7404
 9136TIP3    H251604   2.657   5.847  10.359 -2.6001  0.8397  2.8687
 9137TIP3   OH251605   6.671   5.592  11.831 -0.1954 -0.2156 -0.2882
 9137TIP3    H151606   6.649   5.600  11.924  1.4945  0.7713  0.0794
 9137TIP3    H251607   6.591   5.619  11.785 -0.3218  1.6735  0.9218
 9138TIP3   OH251608   2.862   5.349  10.040 -0.4691  0.2797  0.0960
 9138TIP3    H151609   2.810   5.428  10.021 -1.5841 -0.2451  0.8641
 9138TIP3    H251610   2.837   5.325  10.129 -0.5087 -1.2140 -0.3008
 9139TIP3   OH251611   4.800   3.154  10.794  0.3161  0.2763 -0.8334
 9139TIP3    H151612   4.751   3.159  10.876 -0.5251  0.3667 -1.3267
 9139TIP3    H251613   4.874   3.096  10.813  0.3552  0.6188  0.0921
 9140TIP3   OH251614   4.487   3.209  10.710  0.0209  0.0565  0.1993
 9140TIP3    H151615   4.490   3.134  10.650  0.6932 -1.0452  1.5490
 9140TIP3    H251616   4.572   3.208  10.753  0.1769  1.8377  0.0107
 9141TIP3   OH251617   0.837   2.173  12.972  0.1599 -0.2318 -0.0892
 9141TIP3    H151618   0.854   2.256  12.928 -1.4706 -1.0109 -2.3960
 9141TIP3    H251619   0.758   2.189  13.024  0.1500 -0.1968 -0.1152
 9142TIP3   OH251620   6.173   4.316  11.602 -0.3527  0.2202 -1.3124
 9142TIP3    H151621   6.255   4.355  11.634 -0.9842  1.0259 -0.6469
 9142TIP3    H251622   6.174   4.228  11.640 -0.6890  0.8795  0.3186
 9143TIP3   OH251623   5.035   2.471  11.143  0.4002 -0.2046 -0.5934
 9143TIP3    H151624   5.109   2.423  11.180  0.7138  0.6958 -0.0213
 9143TIP3    H251625   5.062   2.563  11.146  0.4551 -0.0535 -3.0485
 9144TIP3   OH251626   5.484   5.799  11.422  0.5746  0.7783 -0.0687
 9144TIP3    H151627   5.481   5.846  11.339  2.6544  1.1942  0.0374
 9144TIP3    H251628   5.393   5.782  11.443  0.0107  0.1409 -2.7077
 9145TIP3   OH251629   4.200   2.789   9.840 -0.1152 -0.1662  0.2313
 9145TIP3    H151630   4.114   2.802   9.880 -0.0778 -0.5591  0.4424
 9145TIP3    H251631   4.246   2.871   9.856 -0.5520  0.1600 -0.1444
 9146TIP3   OH251632   5.162   2.906  10.585 -0.3046 -0.5807  0.0181
 9146TIP3    H151633   5.130   2.822  10.552 -0.3934 -0.8779  0.8357
 9146TIP3    H251634   5.257   2.898  10.585 -0.1227  0.5544 -3.0751
 9147TIP3   OH251635   3.738   2.413   9.946 -0.3735  0.3839 -0.5067
 9147TIP3    H151636   3.770   2.453   9.865 -2.5552 -0.8492 -2.0894
 9147TIP3    H251637   3.661   2.362   9.919  0.5025 -2.4776  1.8338
 9148TIP3   OH251638   0.780   5.261   9.420  0.4126  0.6407 -0.6117
 9148TIP3    H151639   0.798   5.350   9.451 -0.4118  1.1828 -1.6278
 9148TIP3    H251640   0.686   5.251   9.428  0.6110 -0.5549  0.4971
 9149TIP3   OH251641   6.144   1.161  11.997 -0.1187  0.0547 -0.1272
 9149TIP3    H151642   6.058   1.154  11.956  0.3458 -1.5953 -0.9263
 9149TIP3    H251643   6.134   1.116  12.081 -0.3810  1.0920  0.4080
 9150TIP3   OH251644   6.249   6.210  10.459  0.6973  0.3864  0.0541
 9150TIP3    H151645   6.312   6.282  10.471 -0.6197  1.9858 -2.0090
 9150TIP3    H251646   6.251   6.191  10.366 -1.4457  0.1009  0.0078
 9151TIP3   OH251647   6.376   1.387  10.510 -0.0137  0.3035  0.0213
 9151TIP3    H151648   6.407   1.452  10.574  0.0522 -0.3988  0.7123
 9151TIP3    H251649   6.443   1.318  10.512 -0.5589 -0.2342 -0.0063
 9152TIP3   OH251650   2.355   4.907  10.078  0.5730  0.1638  0.1368
 9152TIP3    H151651   2.388   4.924  10.166  2.0776 -0.5039 -0.2680
 9152TIP3    H251652   2.349   4.812  10.072 -1.2194  0.2398  0.0748
 9153TIP3   OH251653   0.775   3.097  12.336 -0.4778 -0.5377  0.2133
 9153TIP3    H151654   0.856   3.129  12.296 -0.1049 -0.2131  1.2038
 9153TIP3    H251655   0.749   3.024  12.281 -0.8663  0.8838 -1.5844
 9154TIP3   OH251656   0.510   0.293  11.826  0.7120  0.5532  0.0189
 9154TIP3    H151657   0.455   0.255  11.757  0.9288  0.0112  0.1442
 9154TIP3    H251658   0.599   0.266  11.804  0.9693  1.5892 -0.2900
 9155TIP3   OH251659   1.755   0.806  12.556 -0.2735 -0.1610 -0.1318
 9155TIP3    H151660   1.816   0.737  12.530 -0.9522 -1.2253  1.0166
 9155TIP3    H251661   1.680   0.794  12.498 -0.7674 -0.9894  0.6521
 9156TIP3   OH251662   2.539   0.776  10.076  0.0105  0.2156  0.4304
 9156TIP3    H151663   2.455   0.813  10.048 -0.0613 -0.2104  0.0560
 9156TIP3    H251664   2.529   0.682  10.061  0.7409  0.2135 -0.1239
 9157TIP3   OH251665   4.766   0.561  10.826  0.4422  0.0413 -0.0234
 9157TIP3    H151666   4.731   0.576  10.738  0.1176 -0.2689  0.0531
 9157TIP3    H251667   4.855   0.596  10.822  0.7528 -0.7800 -0.7450
 9158TIP3   OH251668   3.088   0.393  11.735  0.1162  0.2338  0.7276
 9158TIP3    H151669   3.121   0.401  11.646 -0.3461 -2.0783  0.2720
 9158TIP3    H251670   3.062   0.482  11.760  1.0495  1.0645 -1.1036
 9159TIP3   OH251671   3.835   4.521   9.780 -0.0992 -0.1747 -0.2804
 9159TIP3    H151672   3.911   4.507   9.837  0.5772 -0.8911 -1.3186
 9159TIP3    H251673   3.811   4.434   9.750  0.6076  0.2957 -2.3873
 9160TIP3   OH251674   6.489   0.621   9.361 -0.3971  0.3662  0.8873
 9160TIP3    H151675   6.472   0.682   9.289 -1.4521 -0.8340  0.0673
 9160TIP3    H251676   6.409   0.569   9.367  0.3234 -0.6746  1.8164
 9161TIP3   OH251677   5.487   6.600  12.939  0.2663 -0.3693 -0.0190
 9161TIP3    H151678   5.455   6.518  12.977 -0.6686 -0.4248 -0.8894
 9161TIP3    H251679   5.414   6.632  12.887  0.0994  1.7506  1.4155
 9162TIP3   OH251680   3.990   4.090  11.110 -0.3419  0.2164 -0.0040
 9162TIP3    H151681   4.083   4.072  11.128  0.0604  2.1857  0.1227
 9162TIP3    H251682   3.985   4.100  11.015 -0.4043  0.2744  0.0050
 9163TIP3   OH251683   1.745   2.931  10.709 -0.0735  0.3790 -0.8271
 9163TIP3    H151684   1.671   2.882  10.746 -1.1603  1.9260 -0.8175
 9163TIP3    H251685   1.743   3.015  10.754  0.2550  1.3115 -2.4476
 9164TIP3   OH251686   0.038   0.626   9.470  0.1686  0.2103 -0.2976
 9164TIP3    H151687  -0.049   0.622   9.432 -0.2393 -0.4628  0.6673
 9164TIP3    H251688   0.095   0.655   9.398 -0.4895 -1.4228 -1.5191
 9165TIP3   OH251689   1.099   4.264  11.956  0.4114 -0.2731 -0.0943
 9165TIP3    H151690   1.107   4.316  12.035 -0.9106 -0.0870 -0.0612
 9165TIP3    H251691   1.141   4.181  11.977 -0.7340 -0.5613  1.1217
 9166TIP3   OH251692   2.526   2.086  11.420  0.2620 -0.1406  0.1173
 9166TIP3    H151693   2.615   2.050  11.417  0.2856 -0.0529 -0.2598
 9166TIP3    H251694   2.519   2.139  11.341 -0.3893 -0.7616 -0.2552
 9167TIP3   OH251695   5.388   5.870  10.302 -0.5559  0.2197 -0.6010
 9167TIP3    H151696   5.303   5.830  10.323  0.0140 -0.1164  1.2772
 9167TIP3    H251697   5.404   5.845  10.211 -1.7421 -1.0484 -0.5018
 9168TIP3   OH251698   1.244   3.797  10.898 -0.5180 -0.2221 -0.6172
 9168TIP3    H151699   1.287   3.753  10.826 -1.7273 -1.3463 -0.6957
 9168TIP3    H251700   1.174   3.848  10.857 -0.8155 -0.3663 -0.2989
 9169TIP3   OH251701   6.383   5.266  11.314 -0.3619 -0.6671  0.3135
 9169TIP3    H151702   6.430   5.198  11.265  0.1544  0.4767 -0.8531
 9169TIP3    H251703   6.322   5.218  11.370  1.2545 -2.1524  0.8889
 9170TIP3   OH251704   0.665   1.908  10.070 -0.0886 -0.1635 -0.9006
 9170TIP3    H151705   0.705   1.995  10.066  0.6771 -0.3387  1.5781
 9170TIP3    H251706   0.627   1.896   9.983 -1.4501  3.2069 -0.9353
 9171TIP3   OH251707   3.927   0.299  12.563 -0.1380 -0.1881  0.3048
 9171TIP3    H151708   3.908   0.392  12.578  1.1463 -0.0141  1.0458
 9171TIP3    H251709   3.905   0.256  12.646  1.3331 -0.1760  0.7311
 9172TIP3   OH251710   4.264   5.664  10.024 -0.1429  0.1002  0.4248
 9172TIP3    H151711   4.186   5.709   9.991 -0.1679  0.2776  0.7267
 9172TIP3    H251712   4.269   5.584   9.971 -0.5966  0.0281  0.4801
 9173TIP3   OH251713   5.213   2.307   9.243  0.1156  0.2419 -0.3532
 9173TIP3    H151714   5.136   2.362   9.257 -0.6772 -0.6511 -1.1729
 9173TIP3    H251715   5.268   2.324   9.321 -0.6371  1.2882 -0.0245
 9174TIP3   OH251716   3.803   6.120  11.127  0.1341 -0.2587  0.6417
 9174TIP3    H151717   3.747   6.179  11.178  1.8006  0.1315  2.1539
 9174TIP3    H251718   3.788   6.144  11.036 -1.2408  0.6212  1.0719
 9175TIP3   OH251719   0.221   2.751  12.488 -0.2714 -0.0501  0.3822
 9175TIP3    H151720   0.247   2.677  12.433 -0.5037 -0.6086  1.0055
 9175TIP3    H251721   0.296   2.810  12.486 -0.7697  0.5717 -1.5766
 9176TIP3   OH251722   0.960   4.795  11.482 -0.5952  0.5329 -0.8210
 9176TIP3    H151723   0.986   4.704  11.498  0.7829  1.2215  1.3697
 9176TIP3    H251724   1.026   4.828  11.421 -0.7696  0.2218 -1.1799
 9177TIP3   OH251725   5.778   6.459  12.693  0.5111 -0.2527 -0.3215
 9177TIP3    H151726   5.792   6.387  12.631  0.0348 -1.7879  1.2514
 9177TIP3    H251727   5.763   6.415  12.777  1.8667  1.7458  1.0574
 9178TIP3   OH251728   4.306   4.636   9.480  0.5434 -0.1024 -0.2107
 9178TIP3    H151729   4.389   4.596   9.508  0.7825  1.2509  1.2084
 9178TIP3    H251730   4.239   4.589   9.530  0.1613 -2.5250 -2.7886
 9179TIP3   OH251731   6.627   1.840   9.235  0.3397  0.3570  0.5214
 9179TIP3    H151732   6.704   1.850   9.291  0.8541  1.7458 -0.4011
 9179TIP3    H251733   6.657   1.864   9.148 -1.1060  0.8213  0.1235
 9180TIP3   OH251734   0.314   3.745   9.913  0.3872  0.1692  0.6997
 9180TIP3    H151735   0.283   3.818   9.966  1.7663  0.7761  0.7083
 9180TIP3    H251736   0.324   3.672   9.975 -0.8480 -0.0209  0.7143
 9181TIP3   OH251737   0.220   6.594  11.857  0.2278 -0.4311  0.4626
 9181TIP3    H151738   0.258   6.594  11.769 -0.9405  0.8789 -0.0871
 9181TIP3    H251739   0.142   6.538  11.849 -0.7913  0.9790  0.1999
 9182TIP3   OH251740   6.517   6.073  11.100 -0.0836  0.2002 -0.0435
 9182TIP3    H151741   6.559   6.138  11.044 -0.8442  1.6262  0.9520
 9182TIP3    H251742   6.560   5.991  11.079  1.0376  1.0518 -1.2362
 9183TIP3   OH251743   5.401   3.840   9.771 -0.2842 -0.1635 -0.4441
 9183TIP3    H151744   5.484   3.815   9.731 -0.7679 -1.7393 -0.5321
 9183TIP3    H251745   5.420   3.846   9.864  0.2572  0.9842 -0.6139
 9184TIP3   OH251746   0.278   1.644  10.818  0.3555 -0.3822 -0.4755
 9184TIP3    H151747   0.353   1.629  10.761 -0.5259  4.3415 -3.3694
 9184TIP3    H251748   0.294   1.730  10.857 -2.1982 -0.5671  1.2213
 9185TIP3   OH251749   3.140   4.273  10.047  0.8860  0.3332  0.2237
 9185TIP3    H151750   3.201   4.339  10.014  1.5321 -1.0454 -1.5140
 9185TIP3    H251751   3.078   4.259   9.975  0.9577 -1.1489  0.4039
 9186TIP3   OH251752   4.571   2.890  10.794 -0.1371 -0.4126  0.1290
 9186TIP3    H151753   4.601   2.959  10.853  0.5933 -0.8143  0.2410
 9186TIP3    H251754   4.597   2.919  10.706 -1.0976  0.1169 -0.0021
 9187TIP3   OH251755   6.369   4.476  11.236  0.2606  0.5535 -0.6194
 9187TIP3    H151756   6.350   4.437  11.321 -0.4573  1.1968 -0.4625
 9187TIP3    H251757   6.346   4.569  11.248  0.7712  0.7719 -1.3217
 9188TIP3   OH251758   3.418   2.716  10.801 -0.1976 -0.0575 -0.5078
 9188TIP3    H151759   3.481   2.788  10.807 -0.0776 -0.1937 -0.0484
 9188TIP3    H251760   3.346   2.750  10.749 -0.6743  0.7830  0.6595
 9189TIP3   OH251761   0.411   1.098  11.072  0.7287 -0.0687 -0.0783
 9189TIP3    H151762   0.350   1.073  11.142  1.0958 -0.5036  0.0928
 9189TIP3    H251763   0.405   1.193  11.067 -1.6989 -0.2036 -1.6171
 9190TIP3   OH251764   0.081   3.484  10.294  0.1480  0.1674  0.5358
 9190TIP3    H151765   0.042   3.397  10.288  0.2555 -0.0004  1.9513
 9190TIP3    H251766   0.175   3.468  10.285  0.1530  0.1604  0.6002
 9191TIP3   OH251767   4.289   0.134  10.378  0.1182 -0.1024 -0.1658
 9191TIP3    H151768   4.322   0.085  10.453  2.9634  1.4937 -0.2695
 9191TIP3    H251769   4.339   0.215  10.377 -0.2084  0.1973 -3.4560
 9192TIP3   OH251770   5.141   3.667  12.593  0.4534  0.1093  0.5797
 9192TIP3    H151771   5.086   3.743  12.572  1.2532  0.9887  1.5350
 9192TIP3    H251772   5.080   3.594  12.601 -0.6389  1.1152  1.9143
 9193TIP3   OH251773   6.532   5.656   9.516 -0.2962  0.5535  0.0971
 9193TIP3    H151774   6.439   5.672   9.499 -0.4640  1.7526  1.8486
 9193TIP3    H251775   6.559   5.730   9.571  1.3929 -0.3968  0.6105
 9194TIP3   OH251776   4.690   6.208  11.239 -0.3095 -0.1386 -0.4006
 9194TIP3    H151777   4.695   6.158  11.320 -0.9261  0.9032  0.2976
 9194TIP3    H251778   4.620   6.166  11.189 -0.2309 -0.5040 -0.2093
 9195TIP3   OH251779   3.939   0.691  10.593 -0.4809  0.4217  0.7244
 9195TIP3    H151780   3.994   0.641  10.652  0.7216 -0.3551 -0.9714
 9195TIP3    H251781   3.992   0.768  10.570  0.1678 -0.5714 -1.2928
 9196TIP3   OH251782   6.534   3.308  10.104 -0.0140 -0.0438 -0.2727
 9196TIP3    H151783   6.516   3.237  10.042 -0.5591 -0.9996  0.9358
 9196TIP3    H251784   6.583   3.373  10.053  1.6677 -1.8633 -1.0958
 9197TIP3   OH251785   4.962   4.002  11.563 -0.3752 -0.1325 -0.0797
 9197TIP3    H151786   4.920   3.919  11.584 -1.0426  0.4589  1.0162
 9197TIP3    H251787   4.943   4.015  11.470  0.6615 -1.7000 -0.5487
 9198TIP3   OH251788   6.296   5.274  10.373 -0.5809  0.7954 -0.1025
 9198TIP3    H151789   6.256   5.220  10.304  0.8186 -0.6282  0.1527
 9198TIP3    H251790   6.231   5.275  10.443  0.2984 -2.8709  0.9947
 9199TIP3   OH251791   4.688   5.969  12.107 -0.4343 -0.2597 -0.1807
 9199TIP3    H151792   4.758   6.000  12.051  1.2020 -2.4067  0.5223
 9199TIP3    H251793   4.725   5.971  12.195 -1.0112 -1.9727  0.1438
 9200TIP3   OH251794   6.006   6.255  10.959  0.5053 -0.0215 -0.3032
 9200TIP3    H151795   5.991   6.195  10.886  1.4251 -1.4112  0.6064
 9200TIP3    H251796   6.013   6.341  10.918 -1.7387 -0.3492 -1.5700
 9201TIP3   OH251797   6.174   1.450  11.942 -0.1942  0.1605  0.4110
 9201TIP3    H151798   6.138   1.362  11.954 -2.0566  0.6048 -1.4210
 9201TIP3    H251799   6.103   1.508  11.967  0.9740  1.1873  1.4676
 9202TIP3   OH251800   0.402   0.917  12.098  0.1405 -0.1990 -0.1688
 9202TIP3    H151801   0.360   0.941  12.181 -0.3982 -1.5159 -0.0334
 9202TIP3    H251802   0.438   0.999  12.065 -1.8568  0.8494  0.1082
 9203TIP3   OH251803   2.024   0.361  12.465 -0.5035 -0.3466 -0.0140
 9203TIP3    H151804   2.001   0.280  12.511  0.2329 -1.7898 -2.0340
 9203TIP3    H251805   1.948   0.417  12.476 -0.7897 -1.0487  1.9699
 9204TIP3   OH251806   3.621   3.177  11.103  0.6786  0.3576  0.0136
 9204TIP3    H151807   3.663   3.172  11.190 -0.9788  0.7358  0.8775
 9204TIP3    H251808   3.661   3.254  11.062 -0.5980  2.0217  1.6836
 9205TIP3   OH251809   4.549   4.997  11.036  0.0036 -0.3487 -0.3921
 9205TIP3    H151810   4.583   5.086  11.031 -1.1451  0.1366  0.0316
 9205TIP3    H251811   4.525   4.985  11.128 -2.0451 -0.2168 -0.8579
 9206TIP3   OH251812   6.557   4.090   9.658  0.4018  0.4951 -0.8868
 9206TIP3    H151813   6.535   4.064   9.747  2.1753  0.8490 -0.3046
 9206TIP3    H251814   6.482   4.061   9.605  0.5577 -2.3143  0.2726
 9207TIP3   OH251815   3.908   2.123   9.693 -0.4603 -0.6628 -0.1342
 9207TIP3    H151816   3.947   2.157   9.773 -4.2192  2.6125  0.6448
 9207TIP3    H251817   3.929   2.188   9.626 -0.9690 -1.0585 -0.6946
 9208TIP3   OH251818   2.000   4.980  12.407 -0.3046  0.2783 -0.8211
 9208TIP3    H151819   2.039   4.930  12.478 -0.5794 -1.9619 -2.1605
 9208TIP3    H251820   1.914   5.006  12.440  0.4785  1.2867  0.4742
 9209TIP3   OH251821   0.050   3.775  11.346 -0.1988 -0.6757  0.0987
 9209TIP3    H151822   0.006   3.705  11.299 -2.8266  0.9667 -0.1101
 9209TIP3    H251823   0.066   3.842  11.280  0.1750 -0.1698  0.6862
 9210TIP3   OH251824   1.481   5.617  12.494 -0.5728  0.0752  0.2421
 9210TIP3    H151825   1.387   5.596  12.492 -0.2096 -1.7873  0.7743
 9210TIP3    H251826   1.524   5.533  12.512  1.3915  0.3689 -2.4544
 9211TIP3   OH251827   4.892   4.846  11.959 -0.9056  0.6384 -0.1162
 9211TIP3    H151828   4.815   4.877  12.007 -0.3815  3.0971 -0.7234
 9211TIP3    H251829   4.956   4.826  12.026 -2.1443 -1.8548  0.4218
 9212TIP3   OH251830   0.642   2.598   9.342 -0.2166  0.1491  0.2316
 9212TIP3    H151831   0.678   2.632   9.424  0.9586  1.8050 -0.9058
 9212TIP3    H251832   0.692   2.642   9.274 -1.8756 -0.3791 -1.4077
 9213TIP3   OH251833   0.868   1.173  11.628 -0.6548 -0.1617  0.0008
 9213TIP3    H151834   0.958   1.147  11.646 -0.7602 -0.9947 -0.6333
 9213TIP3    H251835   0.875   1.264  11.598 -0.0866 -0.0485  0.4706
 9214TIP3   OH251836   4.783   3.681  10.914 -0.0438 -0.2544  0.5366
 9214TIP3    H151837   4.853   3.668  10.850 -1.2008 -2.2188 -0.4155
 9214TIP3    H251838   4.778   3.598  10.962 -0.1094  0.7147  2.2979
 9215TIP3   OH251839   3.136   1.425  11.463  0.2493 -0.5971  0.0711
 9215TIP3    H151840   3.095   1.493  11.409  1.1118 -0.2512 -0.1632
 9215TIP3    H251841   3.228   1.450  11.466  0.2717 -0.7748  1.4613
 9216TIP3   OH251842   5.366   4.880  11.745 -0.3642 -0.5787 -0.1387
 9216TIP3    H151843   5.453   4.899  11.778 -0.0848 -0.4168 -0.9358
 9216TIP3    H251844   5.368   4.787  11.723 -0.4387 -0.6080 -0.0220
 9217TIP3   OH251845   6.533   5.963  10.771 -0.5974  0.0249  0.0032
 9217TIP3    H151846   6.625   5.936  10.779 -0.4636  0.8765  1.4966
 9217TIP3    H251847   6.537   6.049  10.730 -0.6982  0.3657  0.7155
 9218TIP3   OH251848   3.041   2.222  11.629 -0.4668  0.7714 -0.1147
 9218TIP3    H151849   3.044   2.152  11.564  0.2286  1.3966 -0.7724
 9218TIP3    H251850   3.046   2.176  11.713 -1.7845 -0.0679 -0.4625
 9219TIP3   OH251851   1.252   3.774  10.099  0.2315 -0.0135  0.4279
 9219TIP3    H151852   1.252   3.753  10.193 -1.9617  0.4750  0.5878
 9219TIP3    H251853   1.335   3.821  10.085  0.9164 -0.6939  1.9599
 9220TIP3   OH251854   4.640   0.984  11.618 -0.2437  0.0270  0.3233
 9220TIP3    H151855   4.599   1.019  11.539 -0.1173 -1.9788 -0.6923
 9220TIP3    H251856   4.630   0.889  11.610  1.3861 -0.3192  1.8408
 9221TIP3   OH251857   1.725   5.106  11.139 -0.1926 -0.2472 -0.6362
 9221TIP3    H151858   1.780   5.051  11.194  2.0548  1.2706 -1.2379
 9221TIP3    H251859   1.710   5.054  11.060  1.0608 -0.3799 -0.7939
 9222TIP3   OH251860   1.798   5.643  11.830  0.4925  0.4722 -0.5679
 9222TIP3    H151861   1.751   5.613  11.752 -0.3303  0.6095 -0.1340
 9222TIP3    H251862   1.775   5.579  11.897 -0.9186  1.7708  0.2500
 9223TIP3   OH251863   2.020   4.230  10.267  0.1441 -0.0673  0.5418
 9223TIP3    H151864   2.065   4.272  10.340  2.5135 -2.0516  0.3693
 9223TIP3    H251865   1.952   4.177  10.308 -0.0748  0.6361  1.1004
 9224TIP3   OH251866   3.549   3.611   9.944 -0.7594  0.0945  0.2570
 9224TIP3    H151867   3.601   3.645   9.872 -3.5460  2.4138 -0.8839
 9224TIP3    H251868   3.557   3.677  10.013 -0.6022 -0.5337  0.8510
 9225TIP3   OH251869   4.768   5.256   9.187 -0.2940  0.6063 -0.3193
 9225TIP3    H151870   4.718   5.328   9.150 -0.2898 -0.9273 -3.6480
 9225TIP3    H251871   4.702   5.196   9.222 -0.3034  1.9394  2.2537
 9226TIP3   OH251872   0.577   5.934  12.023 -0.3218  0.0029 -0.2538
 9226TIP3    H151873   0.617   5.852  11.992 -1.6885 -0.7066 -0.2045
 9226TIP3    H251874   0.643   6.000  12.006 -0.0374 -0.7481 -2.4073
 9227TIP3   OH251875   3.448   6.387  12.663  0.5220  0.8314 -0.1476
 9227TIP3    H151876   3.525   6.392  12.607  0.1491  0.7168 -0.6858
 9227TIP3    H251877   3.482   6.381  12.752  1.2531 -3.1366 -0.5522
 9228TIP3   OH251878   4.274   3.928  10.881  0.4186  0.2283 -0.4910
 9228TIP3    H151879   4.291   3.958  10.970 -0.9427 -0.2821 -0.0446
 9228TIP3    H251880   4.339   3.974  10.828  0.8039  1.0654  0.6632
 9229TIP3   OH251881   0.764   4.586   9.511  0.4447 -0.1906  0.0926
 9229TIP3    H151882   0.789   4.576   9.419 -2.9907 -1.0995 -0.8935
 9229TIP3    H251883   0.754   4.496   9.543 -0.7742  0.0963  0.5683
 9230TIP3   OH251884   0.787   0.230  11.813 -0.0040 -0.2304  0.3685
 9230TIP3    H151885   0.801   0.186  11.730  0.3012  0.2449  0.1607
 9230TIP3    H251886   0.856   0.197  11.870  0.8364  0.7015 -0.0847
 9231TIP3   OH251887   1.090   1.322  11.790 -0.3869  0.5766  0.4104
 9231TIP3    H151888   1.133   1.397  11.831  0.2528 -1.5420  4.0257
 9231TIP3    H251889   1.001   1.322  11.826 -0.3592 -0.4167  0.4982
 9232TIP3   OH251890   0.386   3.201  10.422  0.1366 -0.0617  0.4352
 9232TIP3    H151891   0.340   3.271  10.468  0.2471  0.5045 -0.2891
 9232TIP3    H251892   0.428   3.149  10.491 -0.6283  0.0898  1.0310
 9233TIP3   OH251893   4.605   2.113   9.961  0.0043  0.3987  0.0106
 9233TIP3    H151894   4.626   2.196  10.006  0.1333 -0.1941  1.0831
 9233TIP3    H251895   4.635   2.045  10.022 -0.8467 -0.4430 -0.4907
 9234TIP3   OH251896   5.722   5.784  10.965 -0.2523  0.5587 -0.7554
 9234TIP3    H151897   5.813   5.765  10.989 -0.4255  1.3968  0.6532
 9234TIP3    H251898   5.697   5.711  10.908  1.0713 -0.0549 -0.5980
 9235TIP3   OH251899   6.549   2.675  11.169  0.4040  0.3547  0.1913
 9235TIP3    H151900   6.643   2.692  11.171  0.9887 -2.4610  0.6902
 9235TIP3    H251901   6.532   2.645  11.080 -0.0464  0.7774  0.1272
 9236TIP3   OH251902   2.983   4.215  10.537 -0.4505  0.3965 -0.0082
 9236TIP3    H151903   2.970   4.168  10.619  0.2896  0.1864  0.0049
 9236TIP3    H251904   2.908   4.191  10.483 -1.4396  1.2758  0.9235
 9237TIP3   OH251905   0.332   5.663  11.446  0.3769 -0.5741  0.1096
 9237TIP3    H151906   0.360   5.622  11.364  0.5959  0.5743 -0.4212
 9237TIP3    H251907   0.410   5.706  11.480 -0.3551  1.6491 -0.7660
 9238TIP3   OH251908   0.473   2.311  11.951  0.3138  0.0158  0.1957
 9238TIP3    H151909   0.534   2.323  12.024  1.3522 -3.3170  0.0181
 9238TIP3    H251910   0.386   2.315  11.991  0.7580  0.7362  1.1366
 9239TIP3   OH251911   0.546   2.053  11.303  0.2692  0.4723  0.4298
 9239TIP3    H151912   0.529   1.978  11.246  0.3355 -0.1508  1.2045
 9239TIP3    H251913   0.535   2.018  11.391  0.8316  1.2501  0.8185
 9240TIP3   OH251914   1.818   0.968  11.637  0.5196 -0.3240 -0.7540
 9240TIP3    H151915   1.791   1.056  11.662  1.6117 -0.7585  2.4524
 9240TIP3    H251916   1.845   0.976  11.545  0.5826  2.6523 -0.5648
 9241TIP3   OH251917   0.114   6.198  11.316 -0.0715 -0.2404  0.1003
 9241TIP3    H151918   0.117   6.157  11.402  0.2582  1.7591  1.0978
 9241TIP3    H251919   0.026   6.233  11.308  0.4868  1.3573  0.5443
 9242TIP3   OH251920   5.678   3.545  11.249  0.0474  0.5285 -0.5241
 9242TIP3    H151921   5.655   3.460  11.211 -1.5942  0.6996  0.0124
 9242TIP3    H251922   5.773   3.541  11.262  0.0898 -0.9471 -1.1526
 9243TIP3   OH251923   6.231   5.906  10.846 -0.2000  0.3936  0.2994
 9243TIP3    H151924   6.185   5.936  10.767  1.1053  0.6009 -0.4185
 9243TIP3    H251925   6.313   5.955  10.846 -0.1406  0.3375  1.7702
 9244TIP3   OH251926   3.104   6.083  10.852 -0.4946 -0.6401  0.3155
 9244TIP3    H151927   3.088   6.175  10.833  2.7083  0.0538  0.5209
 9244TIP3    H251928   3.098   6.076  10.947 -0.1743 -0.5073  0.3469
 9245TIP3   OH251929   4.275   4.858  11.423 -0.6846  0.4145 -0.0769
 9245TIP3    H151930   4.320   4.777  11.446 -2.3499 -0.0701  1.7103
 9245TIP3    H251931   4.280   4.911  11.503 -1.0749  1.3988 -0.6836
 9246TIP3   OH251932   0.278   5.428   9.495  0.0721 -0.0516  0.6154
 9246TIP3    H151933   0.221   5.436   9.570 -1.2648 -0.9260 -0.2757
 9246TIP3    H251934   0.295   5.519   9.468  0.5205  0.2635  1.8960
 9247TIP3   OH251935   5.544   3.378  10.841 -0.1557 -0.2648  0.3764
 9247TIP3    H151936   5.580   3.465  10.853  1.0757 -0.6461 -0.3937
 9247TIP3    H251937   5.451   3.392  10.824  0.2018  0.9478 -0.6544
 9248TIP3   OH251938   4.863   3.504   9.959  0.6864  0.3397  0.1640
 9248TIP3    H151939   4.904   3.588   9.980  1.0205  0.2663 -0.2091
 9248TIP3    H251940   4.770   3.517   9.981  0.6743  0.9161 -0.2180
 9249TIP3   OH251941   1.918   5.305  11.153  0.1795 -0.3851  0.7299
 9249TIP3    H151942   1.969   5.254  11.215  0.2153 -2.0994 -0.6441
 9249TIP3    H251943   1.831   5.266  11.156  0.3433 -0.9087 -0.7190
 9250TIP3   OH251944   2.293   3.748  12.021  0.1585  0.6118  0.0229
 9250TIP3    H151945   2.268   3.656  12.036  1.5877  0.2557  0.3225
 9250TIP3    H251946   2.323   3.778  12.107  0.3087  1.1721 -0.2264
 9251TIP3   OH251947   5.409   4.743   9.634 -0.2131 -0.3874  0.5879
 9251TIP3    H151948   5.336   4.770   9.580 -0.2062 -2.3149 -0.4849
 9251TIP3    H251949   5.471   4.816   9.629 -1.4014  0.6365  0.3057
 9252TIP3   OH251950   5.648   5.611  11.536  0.0254 -0.1798  0.2967
 9252TIP3    H151951   5.737   5.637  11.514 -0.0035 -0.5522 -0.2979
 9252TIP3    H251952   5.593   5.653  11.469  0.0656 -2.4456 -1.3043
 9253TIP3   OH251953   6.468   2.261  11.115  0.0938  0.0585  0.2395
 9253TIP3    H151954   6.446   2.311  11.036  2.2082  0.5614 -0.1153
 9253TIP3    H251955   6.385   2.229  11.148 -1.0614  1.6074 -1.0286
 9254TIP3   OH251956   2.619   6.600  10.208  0.1144  0.3791 -0.1068
 9254TIP3    H151957   2.610   6.518  10.159 -1.3174 -1.0223  2.3219
 9254TIP3    H251958   2.567   6.663  10.158 -1.4532 -1.0327 -0.3328
 9255TIP3   OH251959   2.484   0.747  11.665 -0.1551 -0.3041 -0.1676
 9255TIP3    H151960   2.531   0.713  11.588 -0.2411 -1.7609  0.3990
 9255TIP3    H251961   2.393   0.752  11.637 -0.2949 -1.5020  0.0448
 9256TIP3   OH251962   1.900   0.294  11.038  0.2086 -0.1915  0.3161
 9256TIP3    H151963   1.969   0.307  10.973  1.6127  1.3085  2.0147
 9256TIP3    H251964   1.844   0.371  11.029  0.5001  0.1010  0.9833
 9257TIP3   OH251965   5.049   2.731  11.547 -0.6065 -0.2505 -0.1076
 9257TIP3    H151966   5.135   2.688  11.546 -0.3309  0.2697  0.3484
 9257TIP3    H251967   5.053   2.794  11.475 -0.9005 -0.7699 -0.5857
 9258TIP3   OH251968   1.741   5.043  10.373 -0.5378 -0.1603 -0.2354
 9258TIP3    H151969   1.648   5.051  10.393 -0.0739  1.0089  1.7748
 9258TIP3    H251970   1.771   5.133  10.359  0.3045 -0.5160 -0.8448
 9259TIP3   OH251971   4.416   5.753  10.243  0.1822  0.1409  0.1761
 9259TIP3    H151972   4.340   5.808  10.261  1.4966  2.5268 -0.9883
 9259TIP3    H251973   4.386   5.690  10.177 -1.3247 -0.4549  1.3898
 9260TIP3   OH251974   4.756   6.547  10.724  0.2291 -0.3761  0.0884
 9260TIP3    H151975   4.690   6.516  10.662  0.4641 -0.1276 -0.2923
 9260TIP3    H251976   4.802   6.617  10.677 -0.5640  0.8453  1.0733
 9261TIP3   OH251977   1.426   5.828  11.795 -0.2232  0.1669  0.5008
 9261TIP3    H151978   1.468   5.899  11.746  1.5854 -0.8501  0.4877
 9261TIP3    H251979   1.492   5.800  11.858  0.4411 -3.5738 -1.5599
 9262TIP3   OH251980   6.222   3.524  11.695  0.5086 -0.1946  0.1901
 9262TIP3    H151981   6.314   3.529  11.671  0.4696 -0.6314 -0.0616
 9262TIP3    H251982   6.179   3.589  11.639  0.0974 -2.6202 -2.5736
 9263TIP3   OH251983   5.220   6.562   9.538  0.1859  0.6245 -0.5020
 9263TIP3    H151984   5.145   6.573   9.478 -0.6274 -0.5755  0.2375
 9263TIP3    H251985   5.180   6.555   9.625  1.1517 -0.0499 -0.0955
 9264TIP3   OH251986   0.757   0.415  10.486  0.3973  0.1475 -0.3091
 9264TIP3    H151987   0.687   0.473  10.456 -0.9555 -1.3557 -0.2170
 9264TIP3    H251988   0.778   0.361  10.409  0.2140 -0.5762  0.1359
 9265TIP3   OH251989   2.249   0.551  10.141  0.3811 -0.1841 -0.1316
 9265TIP3    H151990   2.201   0.468  10.134 -2.7049  1.3813  0.4596
 9265TIP3    H251991   2.331   0.536  10.094 -0.5079 -3.2244 -0.9334
 9266TIP3   OH251992   0.931   1.787   9.531 -0.4106 -0.5663  0.1983
 9266TIP3    H151993   0.935   1.877   9.499 -2.0816 -0.2605  0.8013
 9266TIP3    H251994   0.840   1.761   9.520 -0.2185 -1.7535  1.2116
 9267TIP3   OH251995   4.063   5.762  12.713 -0.4808 -0.9279  0.4076
 9267TIP3    H151996   3.983   5.813  12.726  0.0741 -0.3578  1.9217
 9267TIP3    H251997   4.093   5.785  12.626 -2.2838 -1.6445 -0.4496
 9268TIP3   OH251998   1.615   5.343   9.713  0.2113  0.0693 -0.1821
 9268TIP3    H151999   1.663   5.359   9.794  1.2094 -1.0781 -0.5211
 9268TIP3    H252000   1.601   5.249   9.711 -0.7668  0.2099 -0.8199
 9269TIP3   OH252001   2.248   3.097  10.643  0.6985  0.0799 -0.3638
 9269TIP3    H152002   2.318   3.032  10.638  0.8204  0.0396  1.4093
 9269TIP3    H252003   2.196   3.072  10.720  1.2182  2.4781  0.8632
 9270TIP3   OH252004   1.092   6.522   9.718  0.3639  0.2172 -0.2149
 9270TIP3    H152005   1.092   6.617   9.709  0.8744  0.2094 -0.3300
 9270TIP3    H252006   1.184   6.498   9.726  0.1620 -0.0828  1.8667
 9271TIP3   OH252007   4.017   2.905  10.145 -0.2796  0.3430 -0.3623
 9271TIP3    H152008   3.978   2.992  10.138  0.9421  0.9263 -0.1795
 9271TIP3    H252009   3.979   2.856  10.073  1.5522  2.0541 -2.6677
 9272TIP3   OH252010   1.346   5.545   9.331 -0.5436  0.0621 -0.3282
 9272TIP3    H152011   1.304   5.630   9.317 -0.6770  0.0286 -0.1403
 9272TIP3    H252012   1.275   5.481   9.324 -0.3520 -0.0871 -1.0308
 9273TIP3   OH252013   3.867   0.057  12.164  0.3011  0.3857  0.1403
 9273TIP3    H152014   3.806  -0.014  12.143 -0.0088  0.5660  0.4202
 9273TIP3    H252015   3.940   0.044  12.103  0.6311 -0.6499  0.7260
 9274TIP3   OH252016   2.781   4.065  10.028 -0.0655  0.3156  0.0248
 9274TIP3    H152017   2.846   4.121   9.985  0.3037  1.6298  2.1582
 9274TIP3    H252018   2.714   4.126  10.059 -1.3507 -0.8171 -0.4220
 9275TIP3   OH252019   0.267   5.810   9.115  0.3069  0.5099  0.0695
 9275TIP3    H152020   0.313   5.875   9.062  2.2655 -1.6073 -1.0035
 9275TIP3    H252021   0.253   5.737   9.056  2.0041 -1.7245  2.2283
 9276TIP3   OH252022   0.637   5.048  11.445 -0.1033  0.9558 -0.4329
 9276TIP3    H152023   0.724   5.019  11.470  0.6036  0.7410 -2.9344
 9276TIP3    H252024   0.650   5.137  11.412 -0.8516  0.9542 -0.7433
 9277TIP3   OH252025   1.458   6.249  10.652  0.5124  0.3330 -0.0254
 9277TIP3    H152026   1.426   6.159  10.654  0.0856  0.4596 -0.7130
 9277TIP3    H252027   1.552   6.241  10.673  0.5585 -0.3094 -0.4331
 9278TIP3   OH252028   4.299   1.013  12.417  0.5895  0.0972  0.2558
 9278TIP3    H152029   4.354   1.079  12.376 -0.9993  0.2173 -1.8831
 9278TIP3    H252030   4.346   0.931  12.405  1.8148  0.5885  1.4758
 9279TIP3   OH252031   5.860   2.306  12.711 -0.1947  0.1562 -0.0223
 9279TIP3    H152032   5.835   2.388  12.668  0.6832  1.0986  1.1878
 9279TIP3    H252033   5.795   2.294  12.779  1.0435  1.2282  1.4297
 9280TIP3   OH252034   2.073   6.203  11.518 -0.7150  0.1711 -0.4353
 9280TIP3    H152035   2.089   6.212  11.612 -2.9428 -0.2862  0.0366
 9280TIP3    H252036   2.137   6.137  11.490  0.8508  1.2545  0.4605
 9281TIP3   OH252037   3.008   1.302  10.641 -0.2023 -0.0643  0.1528
 9281TIP3    H152038   2.954   1.228  10.668 -1.1169 -0.3002 -2.0257
 9281TIP3    H252039   3.013   1.293  10.545 -1.7735  3.5323 -0.4388
 9282TIP3   OH252040   0.653   5.618   9.296 -0.0930 -0.2203 -0.3859
 9282TIP3    H152041   0.692   5.703   9.274  0.9627 -1.0634 -1.9643
 9282TIP3    H252042   0.668   5.608   9.390  0.9771  0.7423 -0.4306
 9283TIP3   OH252043   2.864   1.002  11.743 -0.3939 -0.0048 -0.5416
 9283TIP3    H152044   2.812   1.050  11.807 -2.1079  0.0942 -1.9505
 9283TIP3    H252045   2.952   0.997  11.782 -1.7307 -1.5187  2.6597
 9284TIP3   OH252046   3.257   4.738  11.055 -0.0842 -0.2443 -0.2674
 9284TIP3    H152047   3.189   4.782  11.004  0.4080 -0.2193 -0.9142
 9284TIP3    H252048   3.304   4.684  10.991  1.0268  0.3655  0.0086
 9285TIP3   OH252049   1.871   1.393   9.415  0.5374  0.0293 -0.0425
 9285TIP3    H152050   1.864   1.470   9.472 -0.5973  0.3340 -0.5728
 9285TIP3    H252051   1.823   1.417   9.336 -1.0334 -1.7157  0.3167
 9286TIP3   OH252052   0.523   2.812   9.816  0.0331 -0.1822  0.2979
 9286TIP3    H152053   0.439   2.781   9.850 -0.5662 -1.2627 -1.9238
 9286TIP3    H252054   0.515   2.907   9.813  0.2153  0.0175  3.1555
 9287TIP3   OH252055   2.158   0.866  12.136  0.6540  0.5934 -0.4151
 9287TIP3    H152056   2.211   0.838  12.211  0.5919  1.5110 -0.0218
 9287TIP3    H252057   2.087   0.917  12.174 -1.1488 -1.4621 -0.8396
 9288TIP3   OH252058   1.907   5.579  12.250  0.2132  0.2015  0.4384
 9288TIP3    H152059   1.964   5.654  12.266 -0.9188  0.8332  1.7970
 9288TIP3    H252060   1.820   5.611  12.274 -0.4301 -1.2727  0.1387
 9289TIP3   OH252061   0.399   0.738  11.357  0.1633 -0.2261  0.1335
 9289TIP3    H152062   0.385   0.775  11.444 -0.5074 -1.0166  0.3737
 9289TIP3    H252063   0.462   0.797  11.316 -1.5316  1.7274  0.1526
 9290TIP3   OH252064   1.992   4.233  11.113  0.5694 -0.1760 -0.7719
 9290TIP3    H152065   2.003   4.277  11.029  1.8867  0.0506 -0.4998
 9290TIP3    H252066   2.046   4.155  11.108  0.8666 -0.0332 -0.0576
 9291TIP3   OH252067   6.095   1.286  11.353 -0.1380 -0.0768 -0.0916
 9291TIP3    H152068   6.088   1.320  11.442 -1.7169 -0.6904  0.0481
 9291TIP3    H252069   6.019   1.321  11.307 -0.8868 -1.9866 -0.4044
 9292TIP3   OH252070   4.365   4.612  10.892  0.1715 -0.0155  0.4537
 9292TIP3    H152071   4.313   4.602  10.971 -2.5603 -0.0939 -1.2217
 9292TIP3    H252072   4.384   4.522  10.864  0.3825 -0.0034  0.5573
 9293TIP3   OH252073   5.793   1.537  11.839  0.7026 -0.5106 -0.0066
 9293TIP3    H152074   5.709   1.544  11.794  0.2910 -2.0151  0.4536
 9293TIP3    H252075   5.808   1.443  11.847  2.9227 -0.3008 -0.9320
 9294TIP3   OH252076   6.241   5.074  10.596  0.7013  0.5550 -0.2324
 9294TIP3    H152077   6.313   5.129  10.566  1.4016 -0.4300 -0.3857
 9294TIP3    H252078   6.250   5.071  10.691  2.3561 -1.5128 -0.3863
 9295TIP3   OH252079   2.349   1.633   9.728 -0.1124 -0.1792 -0.2451
 9295TIP3    H152080   2.278   1.612   9.668  0.0307 -0.4911 -0.3082
 9295TIP3    H252081   2.384   1.548   9.755 -0.4323 -0.0544  0.5926
 9296TIP3   OH252082   1.277   1.618   9.450 -0.0725  0.3300 -0.2974
 9296TIP3    H152083   1.288   1.548   9.386 -2.0854 -1.5734  1.2956
 9296TIP3    H252084   1.357   1.614   9.503 -0.6041 -1.5265  0.4249
 9297TIP3   OH252085   1.385   2.545   9.431  0.0278 -0.7959 -0.2034
 9297TIP3    H152086   1.309   2.563   9.376 -0.4476 -2.3580 -0.1084
 9297TIP3    H252087   1.453   2.606   9.400 -1.8068  2.0593  1.0235
 9298TIP3   OH252088   4.332   3.303   9.714  0.4722  0.0943  0.4868
 9298TIP3    H152089   4.306   3.372   9.654  0.7443 -0.4880 -0.3162
 9298TIP3    H252090   4.252   3.251   9.727  0.4862  0.0516  0.4008
 9299TIP3   OH252091   2.154   0.786   9.374  0.2097  0.1143  0.0035
 9299TIP3    H152092   2.082   0.750   9.323  0.1995  0.9842 -0.6147
 9299TIP3    H252093   2.233   0.754   9.330  0.2059 -0.1039  0.1519
 9300TIP3   OH252094   1.573   3.632  10.328  0.7073 -0.6905 -0.3297
 9300TIP3    H152095   1.643   3.570  10.313  1.3858 -0.3306  1.1237
 9300TIP3    H252096   1.530   3.601  10.408 -0.3601 -0.5333 -0.8267
 9301TIP3   OH252097   0.181   1.603  10.021 -0.5932 -0.2884 -0.8493
 9301TIP3    H152098   0.201   1.526  10.074 -0.7609  0.7314  0.7753
 9301TIP3    H252099   0.219   1.585   9.935  1.4193 -1.1939  0.1722
 9302TIP3   OH252100   4.506   1.401  11.573 -0.0312 -0.2154  0.5722
 9302TIP3    H152101   4.459   1.321  11.550  1.1874 -0.2943 -2.1167
 9302TIP3    H252102   4.541   1.385  11.661 -1.6231 -1.7224  0.9796
 9303TIP3   OH252103   1.608   0.663  11.131 -0.0845 -0.1070  0.0217
 9303TIP3    H152104   1.627   0.704  11.216  0.6560 -0.8370  0.2196
 9303TIP3    H252105   1.519   0.628  11.141  0.6192 -1.7311  1.1510
 9304TIP3   OH252106   5.716   2.280  10.230  0.5771 -0.5351 -0.1129
 9304TIP3    H152107   5.769   2.231  10.293 -1.4939 -3.2364 -0.2690
 9304TIP3    H252108   5.767   2.359  10.212  3.6108 -2.0321  1.1137
 9305TIP3   OH252109   2.138   3.753  10.529 -0.1187 -0.0430  0.1850
 9305TIP3    H152110   2.152   3.680  10.469 -1.8947  0.3113 -0.7442
 9305TIP3    H252111   2.127   3.712  10.615  0.1511 -0.7609 -0.1175
 9306TIP3   OH252112   4.204   5.130  10.095 -0.8085 -0.0665  0.2134
 9306TIP3    H152113   4.274   5.072  10.122  0.7650  1.2926 -0.7573
 9306TIP3    H252114   4.135   5.116  10.160  0.0653 -1.9312  0.8074
 9307TIP3   OH252115   1.786   4.491   9.932  0.1319  0.3271 -0.3513
 9307TIP3    H152116   1.705   4.535   9.903  0.7158  1.2505 -0.6240
 9307TIP3    H252117   1.757   4.405   9.962 -0.8472  0.3075 -1.2768
 9308TIP3   OH252118   2.386   0.804  11.131  0.5492 -0.3363 -0.6728
 9308TIP3    H152119   2.461   0.827  11.077 -0.1473  0.9914 -1.1192
 9308TIP3    H252120   2.310   0.822  11.075 -0.1298 -1.0909 -0.0251
 9309TIP3   OH252121   6.458   5.421  11.591 -0.0481  0.3841 -0.3609
 9309TIP3    H152122   6.471   5.500  11.643  0.1166 -0.8742  1.5880
 9309TIP3    H252123   6.379   5.440  11.539  0.9188  2.4126 -1.1826
 9310TIP3   OH252124   3.264   1.368  12.094  1.1518 -0.1024  0.0376
 9310TIP3    H152125   3.257   1.390  12.001 -0.6659 -1.1291 -0.1213
 9310TIP3    H252126   3.301   1.280  12.096 -0.4486 -0.8192  0.1383
 9311TIP3   OH252127   0.096   4.239  10.571 -0.1385  0.0276  0.1415
 9311TIP3    H152128   0.137   4.313  10.526 -0.2547  0.5290  0.8594
 9311TIP3    H252129   0.029   4.208  10.509  0.0733  0.3661 -0.2615
 9312TIP3   OH252130   6.096   3.988   9.698  0.2620 -0.4207  0.2335
 9312TIP3    H152131   6.149   4.051   9.747 -1.0990  0.5100  0.5893
 9312TIP3    H252132   6.034   4.042   9.649 -1.0534 -1.4615  0.6711
 9313TIP3   OH252133   0.558   3.072  10.587  0.2123 -0.1328 -0.1008
 9313TIP3    H152134   0.644   3.105  10.562 -0.6766  0.5753 -2.5002
 9313TIP3    H252135   0.575   3.011  10.659  2.4379  1.6964  1.0317
 9314TIP3   OH252136   2.751   0.394  12.456 -0.4007 -0.2953  0.3877
 9314TIP3    H152137   2.796   0.363  12.378 -0.8887 -1.3617  0.5186
 9314TIP3    H252138   2.710   0.316  12.493 -0.2993  0.2145  1.6297
 9315TIP3   OH252139   3.906   2.102  11.073  0.3088  0.0424 -0.1650
 9315TIP3    H152140   3.846   2.081  11.002 -1.1954  1.0172  0.7541
 9315TIP3    H252141   3.993   2.083  11.038 -0.4084  0.1693 -2.1128
 9316TIP3   OH252142   1.176   3.512  10.136 -0.6036 -0.0331  0.9739
 9316TIP3    H152143   1.089   3.511  10.175 -0.3705 -0.8903  1.4986
 9316TIP3    H252144   1.193   3.605  10.119 -2.1188  0.0372 -0.3262
 9317TIP3   OH252145   2.171   4.415   9.550  0.1480  0.4744  0.2013
 9317TIP3    H152146   2.102   4.480   9.565  0.7999  0.8610  1.6463
 9317TIP3    H252147   2.226   4.420   9.628  1.1740 -0.6295 -0.4278
 9318TIP3   OH252148   4.831   0.459  11.208 -0.5354  0.0830 -0.2077
 9318TIP3    H152149   4.898   0.485  11.270 -0.1464  0.8630 -0.9276
 9318TIP3    H252150   4.763   0.526  11.216 -1.0298 -0.4569  0.1985
 9319TIP3   OH252151   1.456   1.508  11.099  0.8169 -0.5842  0.4960
 9319TIP3    H152152   1.526   1.483  11.039  0.3109 -0.7668 -0.0261
 9319TIP3    H252153   1.416   1.425  11.125  0.3598 -0.4402  0.2564
 9320TIP3   OH252154   4.492   0.080   9.711 -0.0636 -0.0979  0.3278
 9320TIP3    H152155   4.426   0.088   9.780  1.4133 -0.3648  1.8433
 9320TIP3    H252156   4.484   0.161   9.660 -1.5764 -0.1588  0.4421
 9321TIP3   OH252157   4.365   4.323  10.790 -0.1869 -0.2534 -0.5513
 9321TIP3    H152158   4.297   4.323  10.724  0.9855 -1.0248 -1.8057
 9321TIP3    H252159   4.445   4.299  10.743  0.8061 -0.1925  1.0168
 9322TIP3   OH252160   0.829   2.293  11.253 -0.1538 -0.1416  0.3374
 9322TIP3    H152161   0.888   2.369  11.261 -1.0325  0.6335 -0.2746
 9322TIP3    H252162   0.742   2.332  11.242 -0.4420 -1.2093 -1.4819
 9323TIP3   OH252163   4.830   1.963  11.511 -0.1851 -0.1375  0.0327
 9323TIP3    H152164   4.762   1.983  11.575 -0.0973 -1.0015  0.4067
 9323TIP3    H252165   4.864   2.049  11.484 -0.4149  0.2430  0.9358
 9324TIP3   OH252166   1.068   2.039  10.002 -0.2891  0.0638 -0.0336
 9324TIP3    H152167   1.147   2.073   9.961 -0.7942  1.0712 -0.1953
 9324TIP3    H252168   1.005   2.111   9.997 -0.4476  0.1828  2.3300
 9325TIP3   OH252169   0.283   3.911   9.402  0.1304  0.4657  0.4959
 9325TIP3    H152170   0.360   3.969   9.401 -1.0881  2.1645  0.0233
 9325TIP3    H252171   0.317   3.826   9.430  2.3077  0.9662 -0.4226
 9326TIP3   OH252172   1.613   3.064  10.254  0.2041 -0.2857  0.2546
 9326TIP3    H152173   1.633   3.106  10.337  1.0905  0.3219 -0.2554
 9326TIP3    H252174   1.681   2.997  10.243  0.7540  0.3740 -0.4878
 9327TIP3   OH252175   1.294   5.551  10.629  0.7259  0.3012  0.6791
 9327TIP3    H152176   1.281   5.499  10.708 -0.5174 -1.1845 -0.4377
 9327TIP3    H252177   1.364   5.506  10.581  0.0190 -0.0772 -0.0354
 9328TIP3   OH252178   2.447   2.629  10.382  0.3529 -0.4308  0.2734
 9328TIP3    H152179   2.523   2.633  10.324 -0.9759  0.0578 -1.5274
 9328TIP3    H252180   2.463   2.697  10.448  0.9500  0.4892 -0.7940
 9329TIP3   OH252181   2.713   4.518  12.807  0.0301  0.1389 -0.0406
 9329TIP3    H152182   2.786   4.494  12.864 -0.0262  0.6117  0.2436
 9329TIP3    H252183   2.638   4.526  12.867 -0.2110 -0.1654 -0.3029
 9330TIP3   OH252184   6.645   4.840  11.983  0.1492  0.0275  0.0987
 9330TIP3    H152185   6.694   4.877  11.909 -0.7923  1.3728  0.0982
 9330TIP3    H252186   6.553   4.853  11.959 -0.1727  0.6244  1.5649
 9331TIP3   OH252187   3.107   0.943   9.941  0.6202  0.4256 -0.2927
 9331TIP3    H152188   3.175   1.002   9.974  0.8844  0.7909 -1.4583
 9331TIP3    H252189   3.084   0.977   9.855 -0.7880  0.0880 -0.0870
 9332TIP3   OH252190   2.310   4.638  10.110  0.8734  0.1510  0.1103
 9332TIP3    H152191   2.223   4.617  10.145  0.6646  2.3149  1.0582
 9332TIP3    H252192   2.368   4.630  10.186  1.5854 -1.4408 -0.5526
 9333TIP3   OH252193   1.456   6.538  10.460 -0.2992  0.4500 -0.6491
 9333TIP3    H152194   1.520   6.607  10.476  0.2797  0.0723 -1.2519
 9333TIP3    H252195   1.408   6.529  10.542  0.1847  0.9900 -0.3027
 9334TIP3   OH252196   4.860   4.326  12.242  0.0141 -0.2571  0.2935
 9334TIP3    H152197   4.886   4.416  12.223 -0.7131  0.3318  1.8485
 9334TIP3    H252198   4.927   4.294  12.302  1.5549 -1.6127 -2.0051
 9335TIP3   OH252199   5.893   0.751   9.725  0.6796  0.3043  0.1966
 9335TIP3    H152200   5.950   0.728   9.653  1.4240  0.8611  0.5997
 9335TIP3    H252201   5.819   0.690   9.717  1.1186 -0.1441 -0.5689
 9336TIP3   OH252202   3.208   0.753  11.580  0.3145  0.4122  0.9525
 9336TIP3    H152203   3.299   0.723  11.583 -0.2558 -1.8578  6.1499
 9336TIP3    H252204   3.160   0.679  11.543  0.2142  0.1309  1.6447
 9337TIP3   OH252205   0.796   5.797  11.556  0.2708  0.0676  0.0745
 9337TIP3    H152206   0.876   5.754  11.526  0.5992  0.6370  0.1095
 9337TIP3    H252207   0.823   5.888  11.574 -0.0482 -0.0798  1.4617
 9338TIP3   OH252208   6.276   1.645  10.731 -0.2841  0.6073  1.2582
 9338TIP3    H152209   6.246   1.556  10.746  1.3625 -0.1873  0.0728
 9338TIP3    H252210   6.274   1.656  10.636  4.2599 -0.0411  0.8397
 9339TIP3   OH252211   2.879   5.255  11.164 -0.1887  0.8427 -0.4366
 9339TIP3    H152212   2.945   5.211  11.217 -0.4787 -0.1762 -0.9058
 9339TIP3    H252213   2.864   5.197  11.089 -0.4774  1.8065 -1.1466
 9340TIP3   OH252214   0.610   4.693  10.778 -0.1611  0.5438  0.1637
 9340TIP3    H152215   0.688   4.729  10.821  0.6098  0.5652 -1.2097
 9340TIP3    H252216   0.584   4.761  10.716 -0.5041 -0.0255 -0.3182
 9341TIP3   OH252217   0.545   4.281  11.862  0.1674 -0.0018 -0.1828
 9341TIP3    H152218   0.620   4.226  11.884 -1.3853 -1.5693  1.5549
 9341TIP3    H252219   0.541   4.345  11.933  0.0297  0.2557 -0.4221
 9342TIP3   OH252220   1.045   4.320  10.008 -0.0468 -0.1860 -0.0303
 9342TIP3    H152221   0.999   4.336   9.925 -1.1299 -0.6381  0.4570
 9342TIP3    H252222   1.027   4.397  10.061  1.2175  0.4137 -0.4362
 9343TIP3   OH252223   1.980   1.861  11.025 -0.2589 -0.1717 -0.2240
 9343TIP3    H152224   2.005   1.895  11.111  0.2917 -0.3163 -0.3197
 9343TIP3    H252225   1.897   1.904  11.005  0.8200  1.8291 -0.7374
 9344TIP3   OH252226   0.503   6.343   9.639  0.2727  0.0484  0.0966
 9344TIP3    H152227   0.571   6.395   9.682  1.1726 -1.3394  0.3850
 9344TIP3    H252228   0.461   6.295   9.710 -0.3333  0.1136 -0.2116
 9345TIP3   OH252229   3.753   6.569  11.845 -1.0223 -0.0911  0.2784
 9345TIP3    H152230   3.715   6.504  11.904  1.9428 -1.1746  1.1962
 9345TIP3    H252231   3.836   6.531  11.817  0.2249  2.7103 -0.2383
 9346TIP3   OH252232   5.444   5.456  10.503 -0.3699  0.1354  0.8167
 9346TIP3    H152233   5.409   5.532  10.550 -0.3761  0.5634  0.1378
 9346TIP3    H252234   5.526   5.436  10.548 -0.4755  0.4120  1.1394
 9347TIP3   OH252235   3.426   6.489  10.303  0.0229 -0.2891  0.3643
 9347TIP3    H152236   3.350   6.453  10.348  0.2556 -0.9574  0.2270
 9347TIP3    H252237   3.501   6.467  10.359  0.1422  0.1954  0.4034
 9348TIP3   OH252238   2.681   4.636  10.407 -0.0800  0.1963  0.5160
 9348TIP3    H152239   2.681   4.720  10.453 -0.6615 -0.8192  2.5034
 9348TIP3    H252240   2.770   4.603  10.417 -0.3997 -0.3722  1.6620
 9349TIP3   OH252241   5.703   5.159  10.968 -0.0239  0.1432 -0.3246
 9349TIP3    H152242   5.758   5.118  10.901  0.5763  0.6402 -0.1393
 9349TIP3    H252243   5.614   5.133  10.944  0.3660 -1.9017  0.2024
 9350TIP3   OH252244   6.319   4.211  12.658  0.2037 -0.0911  0.1602
 9350TIP3    H152245   6.322   4.135  12.715 -0.7368  0.0912  0.4615
 9350TIP3    H252246   6.244   4.262  12.689  0.2549  0.4853 -0.6300
 9351TIP3   OH252247   2.808   4.681  11.488 -0.1507 -0.1340 -0.1701
 9351TIP3    H152248   2.883   4.732  11.519 -0.5817  0.9195 -0.8159
 9351TIP3    H252249   2.846   4.599  11.458  0.7407  0.3437 -0.3872
 9352TIP3   OH252250   4.514   2.683  11.729  0.0163 -0.1529 -0.1815
 9352TIP3    H152251   4.594   2.691  11.677  0.7903 -0.1521  0.9643
 9352TIP3    H252252   4.510   2.765  11.779  0.1065 -0.7503  0.8389
 9353TIP3   OH252253   0.100   5.855  11.332 -0.2658 -0.0526 -0.3651
 9353TIP3    H152254   0.079   5.790  11.399  3.2189 -0.5030  0.4882
 9353TIP3    H252255   0.125   5.933  11.381 -1.7224  1.0988 -1.3374
 9354TIP3   OH252256   5.422   5.745  10.059 -0.3740  0.4548 -0.6556
 9354TIP3    H152257   5.466   5.783   9.983 -1.0674 -0.9851 -1.8306
 9354TIP3    H252258   5.354   5.690  10.022 -1.3261  0.4069  1.0576
 9355TIP3   OH252259   1.576   3.794  11.732  0.2128 -0.3593  0.8891
 9355TIP3    H152260   1.606   3.859  11.668 -0.3500 -1.1829 -0.2496
 9355TIP3    H252261   1.656   3.751  11.762  0.8248  2.1143  3.1425
 9356TIP3   OH252262   0.455   5.120  11.978  0.0085  0.0436 -0.2262
 9356TIP3    H152263   0.499   5.073  11.908 -0.8832 -0.1988 -0.6355
 9356TIP3    H252264   0.368   5.141  11.943 -0.7583 -0.8048  1.0764
 9357TIP3   OH252265   5.835   3.238  11.301 -0.0440  0.2769 -0.4489
 9357TIP3    H152266   5.753   3.244  11.350  0.8059 -1.0920  1.2421
 9357TIP3    H252267   5.834   3.150  11.264  2.1522 -1.1390  2.5270
 9358TIP3   OH252268   0.794   5.862  10.152  0.4001  0.5866  0.0281
 9358TIP3    H152269   0.871   5.804  10.147  1.0289  1.4621 -0.8640
 9358TIP3    H252270   0.831   5.950  10.158 -0.5470  0.9086  1.6869
 9359TIP3   OH252271   3.901   0.290  11.856  0.1881  0.2224 -0.7995
 9359TIP3    H152272   3.891   0.373  11.903 -0.4508 -1.5150  2.4628
 9359TIP3    H252273   3.996   0.282  11.842  0.2358  1.5810 -1.4650
 9360TIP3   OH252274   2.596   4.458  11.191  0.7118 -0.1395  0.2302
 9360TIP3    H152275   2.588   4.381  11.248  1.1118 -0.5776 -0.2855
 9360TIP3    H252276   2.682   4.448  11.150 -0.0851 -0.5324 -1.4308
 9361TIP3   OH252277   4.305   3.660  10.862  0.1576 -0.5911  0.3961
 9361TIP3    H152278   4.212   3.638  10.855  0.4900 -1.5397 -1.9531
 9361TIP3    H252279   4.306   3.753  10.886 -1.3480 -0.7670  1.2846
 9362TIP3   OH252280   2.729   0.216   9.117 -0.1263  0.2035  0.0861
 9362TIP3    H152281   2.662   0.152   9.094 -0.7793  0.4163  1.2875
 9362TIP3    H252282   2.808   0.164   9.131 -0.6722 -0.3726  1.1323
 9363TIP3   OH252283   4.293   6.590  11.598  0.1949 -0.1553 -0.3616
 9363TIP3    H152284   4.243   6.671  11.596 -0.7712 -0.7132  0.2823
 9363TIP3    H252285   4.332   6.588  11.686  0.7967 -0.0568 -0.6205
 9364TIP3   OH252286   6.367   6.562  11.410  0.1509  0.2896  0.4079
 9364TIP3    H152287   6.434   6.523  11.354 -2.6316 -1.7009 -1.8214
 9364TIP3    H252288   6.330   6.633  11.358 -0.2544  0.6161  1.1225
 9365TIP3   OH252289   1.944   0.449   9.537  0.1173  0.3760 -0.3670
 9365TIP3    H152290   1.952   0.491   9.622  1.7342 -1.5594  0.5155
 9365TIP3    H252291   1.852   0.461   9.512 -0.7296 -0.1254  2.2567
 9366TIP3   OH252292   4.299   3.147  11.693 -0.1180  0.0754 -0.3800
 9366TIP3    H152293   4.334   3.084  11.756 -0.9969 -0.6222 -0.5659
 9366TIP3    H252294   4.210   3.166  11.724 -0.6449 -0.4288 -1.4775
 9367TIP3   OH252295   3.611   0.374  10.978 -0.2737  0.5022  0.2655
 9367TIP3    H152296   3.658   0.318  10.916 -1.2416  0.0340 -0.0821
 9367TIP3    H252297   3.662   0.370  11.058  0.8331  0.8593 -0.4001
 9368TIP3   OH252298   0.909   5.057  10.690  0.4519 -0.4171  0.5195
 9368TIP3    H152299   0.838   5.083  10.631  1.1058  1.5047  0.5261
 9368TIP3    H252300   0.984   5.041  10.633  1.5014  2.8455  0.8052
 9369TIP3   OH252301   1.189   0.770  11.383  0.0218  0.3997  0.3160
 9369TIP3    H152302   1.231   0.856  11.388  1.4147 -0.2652  0.3740
 9369TIP3    H252303   1.096   0.790  11.375  0.5226  2.0795 -4.4722
 9370TIP3   OH252304   0.270   3.199  10.056  0.0763 -0.1583  0.4424
 9370TIP3    H152305   0.358   3.163  10.066 -0.0522  0.0268  2.8214
 9370TIP3    H252306   0.229   3.187  10.142 -2.7199 -1.4209 -0.9372
 9371TIP3   OH252307   4.040   5.536   9.660 -0.0530  0.7007  0.1970
 9371TIP3    H152308   4.055   5.511   9.751 -0.7018 -0.9940 -0.1190
 9371TIP3    H252309   4.122   5.516   9.615 -0.3079 -0.1558  0.0973
 9372TIP3   OH252310   4.368   5.170   9.802  0.3440 -0.2635 -0.2018
 9372TIP3    H152311   4.309   5.188   9.729 -0.9623  0.3821  0.9499
 9372TIP3    H252312   4.453   5.203   9.774 -0.5610  1.7623 -0.6983
 9373TIP3   OH252313   5.921   0.098  11.657  0.5907 -0.5386 -0.3466
 9373TIP3    H152314   5.928   0.130  11.747  1.4429 -1.7890  0.0675
 9373TIP3    H252315   5.998   0.134  11.613  0.2839 -0.0960 -0.5251
 9374TIP3   OH252316   6.592   6.237   9.420  0.5176  0.5203 -0.1648
 9374TIP3    H152317   6.583   6.261   9.512 -1.7834  1.9037 -0.6559
 9374TIP3    H252318   6.678   6.270   9.395  1.6840 -0.8832  1.7036
 9375TIP3   OH252319   0.003   4.618   9.246 -0.3944  0.0897 -0.1454
 9375TIP3    H152320  -0.009   4.539   9.299 -1.2997 -2.1494 -3.3303
 9375TIP3    H252321   0.095   4.613   9.218 -0.3036  0.4639  0.0919
 9376TIP3   OH252322   2.367   5.546   9.577  0.2474 -0.4677  0.6754
 9376TIP3    H152323   2.390   5.636   9.554  0.0238 -0.3043  1.0882
 9376TIP3    H252324   2.447   5.510   9.615  0.2567 -0.3586  0.7593
 9377TIP3   OH252325   2.965   1.759  11.944  0.1319  0.1379  0.4922
 9377TIP3    H152326   3.032   1.759  12.012 -0.2652 -0.8197  0.9047
 9377TIP3    H252327   2.882   1.767  11.992 -0.0514  1.6897 -0.0295
 9378TIP3   OH252328   6.125   6.587  12.647  0.1611 -0.7478  0.5963
 9378TIP3    H152329   6.152   6.667  12.690  3.3728 -0.9235 -0.8388
 9378TIP3    H252330   6.169   6.517  12.694 -2.5863 -1.8223  1.8231
 9379TIP3   OH252331   6.160   2.169   9.245 -0.5420  0.1520  0.7446
 9379TIP3    H152332   6.088   2.164   9.182 -1.5812 -1.5176  1.9888
 9379TIP3    H252333   6.239   2.164   9.192 -1.3821 -2.5846 -0.4126
 9380TIP3   OH252334   0.674   3.004  10.881 -0.1843 -0.6592 -0.4819
 9380TIP3    H152335   0.616   3.066  10.925 -1.0614 -1.0496 -1.0638
 9380TIP3    H252336   0.747   3.058  10.850 -0.6287 -0.0229 -0.4448
 9381TIP3   OH252337   4.156   0.514  10.752  0.2890 -0.7558 -0.1802
 9381TIP3    H152338   4.180   0.555  10.669  1.0109  2.3854  1.4060
 9381TIP3    H252339   4.188   0.424  10.745  1.5154 -0.2012 -2.7911
 9382TIP3   OH252340   0.921   0.841  10.714 -0.0300 -0.5416 -0.1356
 9382TIP3    H152341   0.873   0.849  10.796 -1.4743 -0.2085 -0.9787
 9382TIP3    H252342   0.911   0.749  10.689 -0.5721 -0.3898 -0.4978
 9383TIP3   OH252343   4.636   2.334  11.986  0.2763  0.0085 -0.6031
 9383TIP3    H152344   4.588   2.365  12.063  0.2665 -1.2375 -0.0776
 9383TIP3    H252345   4.728   2.338  12.013  0.3791  0.9055 -1.0473
 9384TIP3   OH252346   5.777   4.695   9.534 -0.1461 -0.4978  0.3394
 9384TIP3    H152347   5.832   4.659   9.603  1.7823  1.3294 -0.1387
 9384TIP3    H252348   5.824   4.773   9.504 -2.2358  0.2611 -1.2167
 9385TIP3   OH252349   2.271   1.148  13.169 -0.3797  0.3334  0.0887
 9385TIP3    H152350   2.313   1.233  13.177 -4.0594  2.2798  1.4517
 9385TIP3    H252351   2.327   1.089  13.219  1.3854  2.3344  0.6280
 9386TIP3   OH252352   5.559   5.724   9.560  0.2638 -0.6849  1.0795
 9386TIP3    H152353   5.622   5.657   9.535 -0.7071 -1.0578 -0.5419
 9386TIP3    H252354   5.491   5.676   9.608 -0.1110 -0.7539  0.4826
 9387TIP3   OH252355   2.248   2.525   9.375  0.0682 -0.0836 -0.4419
 9387TIP3    H152356   2.288   2.543   9.290  0.8392 -0.1463 -0.0951
 9387TIP3    H252357   2.260   2.432   9.389  1.3546  0.1917  0.4369
 9388TIP3   OH252358   1.520   0.775  12.403  0.4645  0.0334  0.4767
 9388TIP3    H152359   1.490   0.700  12.455  0.1179  0.1608  0.4656
 9388TIP3    H252360   1.446   0.836  12.404 -0.0724 -0.5277 -1.2729
 9389TIP3   OH252361   1.670   1.372  11.432  0.5073  0.7995  0.2600
 9389TIP3    H152362   1.616   1.319  11.374 -0.3349 -0.6606  2.2769
 9389TIP3    H252363   1.747   1.317  11.451 -1.0062 -0.4784  3.4509
 9390TIP3   OH252364   1.853   3.399   9.544 -0.5275  0.8620 -0.3538
 9390TIP3    H152365   1.831   3.318   9.497 -0.2661 -0.1016  1.0975
 9390TIP3    H252366   1.792   3.399   9.619  2.3720 -0.4275  2.2275
 9391TIP3   OH252367   4.424   2.362  11.461  1.0471 -0.7080  0.2208
 9391TIP3    H152368   4.342   2.328  11.425  1.1211  0.3179 -0.9551
 9391TIP3    H252369   4.410   2.360  11.556 -1.2662  1.5160  0.0496
 9392TIP3   OH252370   2.345   0.928   9.967 -0.1285 -0.1191 -0.2630
 9392TIP3    H152371   2.369   0.906   9.877  1.4542  2.0337 -0.4414
 9392TIP3    H252372   2.255   0.960   9.961 -0.6931 -1.7027 -0.7422
 9393TIP3   OH252373   4.328   2.757  11.489  0.1691  0.0151  0.2686
 9393TIP3    H152374   4.414   2.715  11.490 -1.0850 -2.8243 -0.8049
 9393TIP3    H252375   4.283   2.722  11.566 -0.6472  0.0335 -0.1900
 9394TIP3   OH252376   2.611   3.752  10.980  0.3494 -0.4874  1.1597
 9394TIP3    H152377   2.641   3.840  10.958  3.3910 -1.9260 -1.4326
 9394TIP3    H252378   2.646   3.736  11.067  0.5457  0.5570  1.2869
 9395TIP3   OH252379   4.781   2.973  12.469  0.0332  0.4623 -0.6892
 9395TIP3    H152380   4.771   2.992  12.376 -0.2872  1.7226 -0.4151
 9395TIP3    H252381   4.865   3.012  12.493 -0.6861  1.7103 -0.0891
 9396TIP3   OH252382   0.992   0.148  11.972 -0.8651 -0.2115  0.2515
 9396TIP3    H152383   1.028   0.219  12.025 -0.8698  1.8401 -2.2840
 9396TIP3    H252384   1.068   0.102  11.937 -0.8416 -0.4225  0.5754
 9397TIP3   OH252385   6.572   3.134  10.313 -0.2043  0.3601 -0.1227
 9397TIP3    H152386   6.482   3.102  10.316 -0.0601 -0.0059  0.8071
 9397TIP3    H252387   6.567   3.217  10.266 -1.2079  0.8732  0.8367
 9398TIP3   OH252388   2.891   0.667   9.753 -0.0074 -0.0754 -0.2979
 9398TIP3    H152389   2.928   0.693   9.838 -2.4214  2.5320  0.1050
 9398TIP3    H252390   2.883   0.572   9.759  1.0409 -0.1099  1.8894
 9399TIP3   OH252391   5.442   5.444  10.222 -0.0477 -0.2057 -0.0684
 9399TIP3    H152392   5.459   5.420  10.313 -0.0620 -0.1742 -0.0577
 9399TIP3    H252393   5.505   5.514  10.204  0.2142 -0.4659 -0.1947
 9400TIP3   OH252394   5.743   2.383   9.028 -0.1604 -0.1076  0.2386
 9400TIP3    H152395   5.756   2.478   9.036 -0.0964 -0.1026  0.0681
 9400TIP3    H252396   5.664   2.365   9.079 -1.8368  0.4375 -2.0481
 9401TIP3   OH252397   4.844   3.200   9.413 -0.1875 -0.2053 -0.2671
 9401TIP3    H152398   4.766   3.153   9.383 -0.0227  0.3192 -1.5693
 9401TIP3    H252399   4.839   3.286   9.372  0.8524 -0.0052 -0.0216
 9402TIP3   OH252400   5.278   1.038  12.709  0.0465 -1.0762 -0.5411
 9402TIP3    H152401   5.217   0.981  12.756 -0.8346 -1.4196 -2.0474
 9402TIP3    H252402   5.223   1.093  12.654  0.8865  1.2219  0.7932
 9403TIP3   OH252403   4.686   6.026   9.613 -0.1471 -0.5467  0.2507
 9403TIP3    H152404   4.612   5.965   9.620  0.0018 -0.6370  1.1436
 9403TIP3    H252405   4.675   6.085   9.687  1.1066 -1.0336  0.8371
 9404TIP3   OH252406   5.109   4.215  11.715  0.1725 -0.4646 -0.3404
 9404TIP3    H152407   5.169   4.273  11.669 -0.5678 -1.1746 -2.3110
 9404TIP3    H252408   5.084   4.150  11.649  0.3250 -2.5485  1.5227
 9405TIP3   OH252409   0.303   4.552   9.481 -0.4329  0.1230 -0.0093
 9405TIP3    H152410   0.287   4.521   9.392 -2.6231 -0.0723  0.3815
 9405TIP3    H252411   0.353   4.481   9.522 -0.8913 -0.5587 -0.6014
 9406TIP3   OH252412   2.893   0.755  10.941 -0.1824  0.3435  0.2158
 9406TIP3    H152413   2.898   0.705  10.859 -3.2136 -0.6580  0.5203
 9406TIP3    H252414   2.864   0.842  10.915  0.3769  0.5021  0.1105
 9407TIP3   OH252415   5.443   3.484  11.362 -0.2825 -0.4316 -0.2086
 9407TIP3    H152416   5.361   3.528  11.338 -1.5067 -1.8692  1.1265
 9407TIP3    H252417   5.507   3.516  11.298 -1.3978  2.2153 -0.1462
 9408TIP3   OH252418   3.199   2.028  10.242 -0.2097 -0.5361  0.1500
 9408TIP3    H152419   3.118   1.977  10.240 -0.7804  0.3786 -0.7738
 9408TIP3    H252420   3.175   2.111  10.283 -0.3794  0.7215 -2.3194
 9409TIP3   OH252421   3.491   2.357   9.376 -0.3342  0.1251  0.4537
 9409TIP3    H152422   3.505   2.373   9.469  1.3258  0.8357  0.1249
 9409TIP3    H252423   3.431   2.283   9.373  0.9306 -1.0356  2.0994
 9410TIP3   OH252424   0.035   4.458  10.299 -0.2695 -0.0540 -0.3020
 9410TIP3    H152425  -0.017   4.516  10.243  0.3833 -0.4350 -1.3135
 9410TIP3    H252426   0.097   4.416  10.240  0.4620 -0.4411  0.7163
 9411TIP3   OH252427   6.393   3.619  10.376 -0.0951  0.2644 -0.4518
 9411TIP3    H152428   6.451   3.692  10.397 -0.4953  0.5984 -0.4940
 9411TIP3    H252429   6.405   3.558  10.449 -0.1032  0.5812 -0.1841
 9412TIP3   OH252430   2.302   5.716  10.212 -0.3237  0.0696 -0.5694
 9412TIP3    H152431   2.254   5.736  10.131 -0.9057 -0.4251 -0.3540
 9412TIP3    H252432   2.289   5.622  10.225 -1.0598  0.3106  0.6222
 9413TIP3   OH252433   3.895   2.305   9.448 -0.4636  0.2069 -0.1598
 9413TIP3    H152434   3.833   2.257   9.393 -1.4803  0.0875  1.0351
 9413TIP3    H252435   3.981   2.275   9.419 -1.0312 -1.2291 -0.4333
 9414TIP3   OH252436   5.351   3.233  10.431  0.0001 -0.0367  0.2715
 9414TIP3    H152437   5.302   3.209  10.352  1.8644  0.2680 -1.0504
 9414TIP3    H252438   5.354   3.329  10.428 -1.4623  0.0996  1.7480
 9415TIP3   OH252439   3.961   6.433  11.221  0.0286 -0.1127  0.2161
 9415TIP3    H152440   4.030   6.374  11.190  0.2674  0.3240 -0.0926
 9415TIP3    H252441   3.889   6.375  11.244  0.7762 -0.6362  1.3134
 9416TIP3   OH252442   0.562   4.350  11.424  0.0239 -0.4575  0.1368
 9416TIP3    H152443   0.510   4.380  11.499 -2.2300 -0.3686 -1.3610
 9416TIP3    H252444   0.555   4.255  11.426  1.7824 -0.6113  1.2046
 9417TIP3   OH252445   4.732   6.219  10.667 -0.5433 -0.4417  0.0621
 9417TIP3    H152446   4.736   6.267  10.750  0.5130  0.6025 -0.5627
 9417TIP3    H252447   4.811   6.246  10.620 -0.1597 -2.4592 -0.5264
 9418TIP3   OH252448   3.409   3.557  11.540  0.1701  0.2761  0.2794
 9418TIP3    H152449   3.352   3.498  11.491  1.3251 -1.0494  0.4477
 9418TIP3    H252450   3.434   3.625  11.477 -0.5181  0.1209 -0.1663
 9419TIP3   OH252451   5.742   6.241   9.134 -0.0352  0.0655  0.0068
 9419TIP3    H152452   5.775   6.215   9.048  1.9299  0.9665  0.4309
 9419TIP3    H252453   5.720   6.334   9.124  2.3613  0.8015  1.0032
 9420TIP3   OH252454   1.539   2.657   9.936 -0.1140 -0.1265 -0.1307
 9420TIP3    H152455   1.628   2.648   9.971 -0.1123  0.2942 -0.0209
 9420TIP3    H252456   1.482   2.647  10.013 -0.1923 -1.0256 -0.2997
 9421TIP3   OH252457   3.513   4.127  10.373 -0.0485  0.3584  0.1498
 9421TIP3    H152458   3.519   4.145  10.279 -2.1355 -3.1568 -0.8712
 9421TIP3    H252459   3.578   4.059  10.388  0.7236  1.3496  1.4656
 9422TIP3   OH252460   1.938   2.715  11.512  0.0329 -0.1383  0.7496
 9422TIP3    H152461   2.013   2.727  11.571  0.1332 -1.2301  0.8596
 9422TIP3    H252462   1.896   2.801  11.510  0.8752  0.3020  1.2524
 9423TIP3   OH252463   1.591   0.814  11.351 -0.1772 -0.3468 -0.2328
 9423TIP3    H152464   1.534   0.877  11.396  1.0455 -0.2567  1.2772
 9423TIP3    H252465   1.645   0.868  11.293 -0.5541 -0.2507 -0.4952
 9424TIP3   OH252466   2.028   5.494  10.175  0.5747  0.6143  0.5256
 9424TIP3    H152467   2.002   5.586  10.189 -0.5814  0.7413 -1.8553
 9424TIP3    H252468   2.024   5.455  10.262  0.5095  2.6784  1.5268
 9425TIP3   OH252469   0.786   6.539  10.243  0.5727  0.2619 -0.5010
 9425TIP3    H152470   0.751   6.627  10.229  2.7435  1.4444  0.8678
 9425TIP3    H252471   0.738   6.484  10.181 -2.7156  1.8780  0.3663
 9426TIP3   OH252472   0.685   5.700   9.601 -0.1679 -0.6610  0.2010
 9426TIP3    H152473   0.628   5.631   9.635  0.9245 -1.4711  0.4252
 9426TIP3    H252474   0.719   5.743   9.679  0.1039 -0.6630  0.0845
 9427TIP3   OH252475   0.384   6.399  12.335  0.1132  0.2095  0.3781
 9427TIP3    H152476   0.434   6.349  12.270  0.2198  0.6997  0.0734
 9427TIP3    H252477   0.446   6.416  12.405  0.2793  0.5197  0.1581
 9428TIP3   OH252478   0.198   0.227  12.655  0.0345 -0.0669 -0.2294
 9428TIP3    H152479   0.214   0.251  12.746  1.2112  1.4740 -0.8155
 9428TIP3    H252480   0.111   0.261  12.636  0.7576  1.8047 -0.3638
 9429TIP3   OH252481   3.054   1.294  10.356  0.2482  0.3059 -0.5613
 9429TIP3    H152482   3.018   1.254  10.277 -0.9397  2.0529 -0.9806
 9429TIP3    H252483   3.063   1.387  10.334  1.1188  0.6149  0.9412
 9430TIP3   OH252484   3.968   2.865   9.025  0.2804 -0.5080 -0.6747
 9430TIP3    H152485   4.033   2.795   9.034  0.3909 -0.6264 -2.1605
 9430TIP3    H252486   3.976   2.893   8.934 -0.8543  0.3763 -0.5192
 9431TIP3   OH252487   3.685   1.308  10.608 -0.1050  0.0221  0.1713
 9431TIP3    H152488   3.638   1.263  10.538 -0.3139  0.4176  0.0550
 9431TIP3    H252489   3.775   1.277  10.601 -0.6923 -2.1889  1.5752
 9432TIP3   OH252490   1.833   3.164   9.928 -0.2240  0.3757  0.3539
 9432TIP3    H152491   1.883   3.222   9.985  0.5851 -0.8023  0.8627
 9432TIP3    H252492   1.761   3.133   9.982  1.0141 -1.4042  1.0514
 9433TIP3   OH252493   4.123   4.514  11.346 -0.0955  0.1845  0.0275
 9433TIP3    H152494   4.161   4.566  11.417  0.4796 -0.8195  0.4749
 9433TIP3    H252495   4.151   4.425  11.364 -1.4590 -0.3699 -0.4750
 9434TIP3   OH252496   5.565   0.163  12.898  0.0660  0.4429 -0.2476
 9434TIP3    H152497   5.551   0.070  12.917  0.6242  0.0126 -1.8100
 9434TIP3    H252498   5.542   0.208  12.980  2.5268 -1.2656  1.5573
 9435TIP3   OH252499   3.836   5.654  10.528  0.1612  0.3678 -0.1026
 9435TIP3    H152500   3.901   5.674  10.595 -0.4752  0.0034  0.6460
 9435TIP3    H252501   3.761   5.621  10.577 -0.8445  1.4123 -0.8851
 9436TIP3   OH252502   5.238   1.990   9.335 -0.0349  0.0662 -0.2768
 9436TIP3    H152503   5.227   1.980   9.430  1.3313 -1.4083 -0.2457
 9436TIP3    H252504   5.196   2.074   9.315  1.8652  1.7174  2.0515
 9437TIP3   OH252505   3.447   3.282  12.061  0.2885 -0.6083  0.4575
 9437TIP3    H152506   3.414   3.371  12.045  1.2278 -0.5105 -1.2310
 9437TIP3    H252507   3.386   3.245  12.124 -0.5865  0.9732  0.5979
 9438TIP3   OH252508   3.187   0.196  12.235  0.4557 -0.0205 -0.2205
 9438TIP3    H152509   3.208   0.120  12.180  2.5135 -0.2743  0.8073
 9438TIP3    H252510   3.175   0.268  12.173  1.4490 -0.5638 -1.0855
 9439TIP3   OH252511   2.703   5.618  10.005 -0.5779 -0.1371  0.3608
 9439TIP3    H152512   2.756   5.668  10.067 -0.3656 -0.3238  0.3310
 9439TIP3    H252513   2.731   5.648   9.919 -1.8566  1.1466  0.3532
 9440TIP3   OH252514   1.835   1.988  10.126 -0.0540 -0.1572 -0.5791
 9440TIP3    H152515   1.807   2.020  10.211  1.1745 -0.6361  0.0335
 9440TIP3    H252516   1.900   1.921  10.146 -0.4535 -0.9716 -1.8817
 9441TIP3   OH252517   4.154   5.434  11.931  0.5279  0.6934  0.2781
 9441TIP3    H152518   4.168   5.436  11.837  1.0338 -0.2920  0.3169
 9441TIP3    H252519   4.241   5.421  11.968  0.3744  1.3598  0.9015
 9442TIP3   OH252520   4.377   4.508  11.970  0.3736 -0.1095 -0.1369
 9442TIP3    H152521   4.457   4.490  12.020  0.1573  2.5259  1.3049
 9442TIP3    H252522   4.306   4.482  12.029  0.1404  1.9481  0.5540
 9443TIP3   OH252523   0.530   2.243  12.299  0.7395  0.0843  0.2047
 9443TIP3    H152524   0.480   2.304  12.352  2.5533  1.6738  0.1985
 9443TIP3    H252525   0.503   2.156  12.330 -1.0500  0.8962  1.0123
 9444TIP3   OH252526   1.225   1.409  12.344 -1.0128 -0.2083  0.1455
 9444TIP3    H152527   1.196   1.473  12.279  0.6304  0.9947  0.5501
 9444TIP3    H252528   1.320   1.411  12.341 -0.9076 -1.5546  1.2389
 9445TIP3   OH252529   5.797   5.257  11.402  0.4108  0.0890  0.3444
 9445TIP3    H152530   5.740   5.301  11.340 -0.2914  0.2796  1.1065
 9445TIP3    H252531   5.740   5.234  11.476  1.4642  1.0638  1.5149
 9446TIP3   OH252532   5.178   2.617  10.007  0.1614 -0.2657  0.0983
 9446TIP3    H152533   5.219   2.641   9.924  0.5198 -0.0649  0.3353
 9446TIP3    H252534   5.209   2.681  10.070  2.0126 -1.9237  0.9892
 9447TIP3   OH252535   6.041   0.186   9.591 -0.2031  0.3299  0.0627
 9447TIP3    H152536   6.076   0.266   9.630 -0.2622  0.8172 -0.8530
 9447TIP3    H252537   5.947   0.199   9.589 -0.5315 -1.0559  2.6850
 9448TIP3   OH252538   2.089   4.693  10.482 -1.1060 -0.4204 -0.1488
 9448TIP3    H152539   2.093   4.785  10.459 -0.1941 -0.6716 -1.0368
 9448TIP3    H252540   2.013   4.659  10.433 -1.4358 -0.1576  0.1731
 9449TIP3   OH252541   4.756   1.426  10.769  0.2955  0.8870  0.0048
 9449TIP3    H152542   4.848   1.420  10.795  1.6420  1.8550 -3.8892
 9449TIP3    H252543   4.727   1.511  10.803  0.6818  0.4556  1.4994
 9450TIP3   OH252544   4.261   5.429  10.386  0.2365  0.4184  0.3106
 9450TIP3    H152545   4.194   5.489  10.355 -0.3797  0.3486  1.4825
 9450TIP3    H252546   4.317   5.483  10.442 -0.1740 -0.0401  1.1651
 9451TIP3   OH252547   2.798   2.045  11.438 -1.0285 -0.2348  0.0742
 9451TIP3    H152548   2.806   1.981  11.509  3.1771  1.7517  1.7712
 9451TIP3    H252549   2.860   2.014  11.371 -1.3756  0.3803 -0.5365
 9452TIP3   OH252550   1.154   4.477  10.782 -0.3776  0.8017 -0.2848
 9452TIP3    H152551   1.163   4.569  10.757  1.5402  1.0930  1.2556
 9452TIP3    H252552   1.171   4.475  10.876 -4.3847 -0.6576  0.5886
 9453TIP3   OH252553   1.287   1.165  10.125  0.0068 -0.5548 -0.0492
 9453TIP3    H152554   1.300   1.139  10.034 -0.8782  0.5351 -0.5171
 9453TIP3    H252555   1.193   1.154  10.139 -0.1855  1.0692  0.1228
 9454TIP3   OH252556   0.468   0.679  10.082 -0.1159 -0.0114 -0.1750
 9454TIP3    H152557   0.549   0.638  10.051  0.5945 -1.1904  2.8768
 9454TIP3    H252558   0.493   0.771  10.096  0.3227 -0.0740 -0.5086
 9455TIP3   OH252559   2.473   0.365   9.545 -0.5225 -0.2336  0.0063
 9455TIP3    H152560   2.553   0.398   9.504 -0.5637  0.8148  0.7547
 9455TIP3    H252561   2.402   0.416   9.504 -0.8768 -1.4086 -0.9276
 9456TIP3   OH252562   3.064   5.144  11.312  0.3533  0.5250  0.0083
 9456TIP3    H152563   3.153   5.112  11.327 -0.1126 -2.7162 -2.8696
 9456TIP3    H252564   3.008   5.082  11.360 -0.4019  0.5155 -0.8427
 9457TIP3   OH252565   4.767   0.074  11.628 -0.0028  0.3810  0.3587
 9457TIP3    H152566   4.722   0.089  11.545  0.2395  0.3245  0.2175
 9457TIP3    H252567   4.774  -0.022  11.634 -2.4405  0.1991  1.7247
 9458TIP3   OH252568   2.847   5.847  10.149  0.6794 -0.0165 -0.1486
 9458TIP3    H152569   2.905   5.786  10.194 -0.0049 -0.5084  0.0801
 9458TIP3    H252570   2.769   5.852  10.204  0.1199 -0.0853 -0.9139
 9459TIP3   OH252571   1.079   3.925   9.496  0.6824  0.3534 -0.3712
 9459TIP3    H152572   1.163   3.951   9.457  1.0695  2.9451  1.8896
 9459TIP3    H252573   1.088   3.946   9.589 -1.6605 -1.5825  0.3806
 9460TIP3   OH252574   0.967   0.316  11.252  0.0986  0.4051  0.0857
 9460TIP3    H152575   1.044   0.373  11.247 -0.0756  0.7250  0.8680
 9460TIP3    H252576   1.002   0.228  11.258  0.3915  0.5047 -0.1477
 9461TIP3   OH252577   3.091   1.341   8.969  0.1552 -0.0226  0.2755
 9461TIP3    H152578   3.051   1.340   9.056 -1.7870  1.4165 -0.5251
 9461TIP3    H252579   3.081   1.251   8.938 -0.7103 -0.1501  0.8794
 9462TIP3   OH252580   3.519   5.427  12.093 -0.4119 -0.0950  0.1078
 9462TIP3    H152581   3.548   5.482  12.020  1.4074  0.2879  1.0443
 9462TIP3    H252582   3.426   5.446  12.103 -0.1320  1.7338 -0.5052
 9463TIP3   OH252583   4.537   0.602  11.890 -0.0094  0.4873  0.9507
 9463TIP3    H152584   4.606   0.538  11.873  0.2522  0.3584  2.3495
 9463TIP3    H252585   4.457   0.561  11.857  0.5347  0.5930 -0.5966
 9464TIP3   OH252586   1.595   2.229  10.937 -0.4947 -0.2631  0.2868
 9464TIP3    H152587   1.606   2.322  10.916  0.6421 -0.3100  0.6598
 9464TIP3    H252588   1.604   2.224  11.032  0.6808 -0.9096  0.1554
 9465TIP3   OH252589   0.249   2.362  12.098 -0.2755  0.5406 -0.3555
 9465TIP3    H152590   0.165   2.319  12.110 -1.1304  1.6622 -1.8908
 9465TIP3    H252591   0.236   2.451  12.131  0.7794  0.3240  0.7284
 9466TIP3   OH252592   5.045   6.228  11.844 -0.2295  0.2190  0.4363
 9466TIP3    H152593   5.064   6.322  11.849 -1.9416  0.5508  1.8059
 9466TIP3    H252594   5.131   6.187  11.835  0.4518  1.9730 -2.4644
 9467TIP3   OH252595   4.707   1.465  10.014  0.0368  0.0809  0.0655
 9467TIP3    H152596   4.742   1.549   9.985 -0.8109  0.6524  0.6433
 9467TIP3    H252597   4.779   1.424  10.061  0.7014  0.1397 -0.8861
 9468TIP3   OH252598   1.743   1.923  11.909 -0.1907  0.4719  0.2096
 9468TIP3    H152599   1.718   1.838  11.945  0.7918  0.2305  0.3632
 9468TIP3    H252600   1.788   1.967  11.981  0.6499  0.5069 -0.3214
 9469TIP3   OH252601   3.525   5.548  11.846  0.0495 -0.2642 -0.0760
 9469TIP3    H152602   3.596   5.524  11.787 -0.4187 -0.3339 -0.6211
 9469TIP3    H252603   3.458   5.586  11.789 -0.6327 -0.8162  0.3290
 9470TIP3   OH252604   6.063   6.528  11.242 -0.0274  0.1864 -0.2713
 9470TIP3    H152605   6.084   6.523  11.149  1.3711 -1.1382  0.0716
 9470TIP3    H252606   6.076   6.620  11.266  0.7868  0.2973 -1.1258
 9471TIP3   OH252607   5.684   5.360  10.663  0.0966 -0.3094  0.0145
 9471TIP3    H152608   5.741   5.394  10.594  0.4259  1.8086  1.2437
 9471TIP3    H252609   5.713   5.270  10.676  1.2689 -0.1575 -1.3118
 9472TIP3   OH252610   5.548   0.141   9.645 -0.3314 -0.5228 -0.6982
 9472TIP3    H152611   5.603   0.074   9.685 -1.5996 -0.9740  0.3855
 9472TIP3    H252612   5.520   0.196   9.719  0.5213  1.0935 -1.5414
 9473TIP3   OH252613   0.914   0.296  11.560  0.0245  0.3867  0.5101
 9473TIP3    H152614   0.958   0.369  11.517  0.8173  0.1178  0.8445
 9473TIP3    H252615   0.962   0.219  11.530 -1.0292 -0.0385 -0.1230
 9474TIP3   OH252616   5.870   0.864  10.346  0.5105 -0.2232  0.3129
 9474TIP3    H152617   5.955   0.836  10.380  0.2469 -0.5487  0.7265
 9474TIP3    H252618   5.840   0.789  10.294  3.0532  1.8804 -4.9336
 9475TIP3   OH252619   6.469   0.054  10.131 -0.0217 -0.1229 -0.4136
 9475TIP3    H152620   6.548   0.090  10.091 -0.2687  0.9604  0.0482
 9475TIP3    H252621   6.411   0.037  10.057 -0.6784  2.3425 -0.5547
 9476TIP3   OH252622   4.121   0.714  10.318 -0.5271  0.0615  0.6187
 9476TIP3    H152623   4.183   0.781  10.289 -0.2792  0.1018  1.2307
 9476TIP3    H252624   4.044   0.728  10.264  0.3157 -0.5680 -0.8123
 9477TIP3   OH252625   6.673   4.821  10.449  0.4607  0.3377  0.1386
 9477TIP3    H152626   6.605   4.834  10.515 -0.2987 -0.3958 -0.4638
 9477TIP3    H252627   6.707   4.908  10.431 -0.8360  0.8201 -0.0618
 9478TIP3   OH252628   0.343   2.948   9.599 -0.4161  0.1951  0.1642
 9478TIP3    H152629   0.373   2.862   9.573 -0.1369  0.8666 -1.9071
 9478TIP3    H252630   0.345   2.947   9.695  0.5485 -1.7282  0.1549
 9479TIP3   OH252631   1.912   4.921   9.283 -0.1611 -0.1902 -0.2059
 9479TIP3    H152632   1.990   4.872   9.310 -1.1929 -1.3496  0.7774
 9479TIP3    H252633   1.913   4.999   9.337  0.4134 -0.0958 -0.3410
 9480TIP3   OH252634   3.115   4.372  11.726 -0.1209 -0.5413  0.1530
 9480TIP3    H152635   3.188   4.426  11.697 -1.6830  0.9634 -1.1874
 9480TIP3    H252636   3.151   4.284  11.734  1.5402 -0.0796 -1.7013
 9481TIP3   OH252637   2.858   2.343   9.271 -0.0720  0.1617 -0.1048
 9481TIP3    H152638   2.827   2.382   9.189  0.2235  0.3820 -0.1150
 9481TIP3    H252639   2.828   2.402   9.339  0.2587  0.3341 -0.1087
 9482TIP3   OH252640   5.895   2.502   9.600  0.1157  0.3788  0.1829
 9482TIP3    H152641   5.980   2.497   9.644 -0.8724  0.3591  2.2106
 9482TIP3    H252642   5.908   2.456   9.517  1.9248 -0.1106  0.6986
 9483TIP3   OH252643   4.231   1.748  10.415 -0.6019 -0.3970  0.5187
 9483TIP3    H152644   4.164   1.804  10.377  0.2279  0.2025 -0.0836
 9483TIP3    H252645   4.191   1.661  10.416 -0.8944 -0.3244 -1.1542
 9484TIP3   OH252646   0.992   1.814  10.320 -0.6975 -0.3128  0.2768
 9484TIP3    H152647   0.916   1.872  10.321 -2.3267 -2.2947 -1.0119
 9484TIP3    H252648   1.063   1.870  10.288 -1.9644  1.2145 -0.0108
 9485TIP3   OH252649   1.361   5.983  10.678 -0.0542  0.1347  0.1000
 9485TIP3    H152650   1.398   5.933  10.750  0.5664 -0.8310 -0.8619
 9485TIP3    H252651   1.267   5.987  10.696  0.3289  1.8104  2.0861
 9486TIP3   OH252652   3.063   2.125  11.882  0.4536  0.6774 -0.2705
 9486TIP3    H152653   3.072   2.041  11.838  2.5036  1.5370 -1.6586
 9486TIP3    H252654   3.085   2.107  11.973  0.8143 -0.3209 -0.5416
 9487TIP3   OH252655   1.874   5.102  11.568 -0.1280  0.5516 -0.2981
 9487TIP3    H152656   1.806   5.038  11.547 -0.7222  1.4873 -1.3600
 9487TIP3    H252657   1.828   5.186  11.573  0.8762  1.1437 -0.6025
 9488TIP3   OH252658   2.236   5.033  12.286 -1.1729 -0.4415 -0.1031
 9488TIP3    H152659   2.147   5.000  12.299 -0.8839 -0.6972  1.5184
 9488TIP3    H252660   2.291   4.974  12.338 -0.1506  0.1360 -0.5063
 9489TIP3   OH252661   3.705   5.630   9.863 -0.1422  0.2983 -0.4705
 9489TIP3    H152662   3.790   5.672   9.876 -0.3643  0.6656 -0.2061
 9489TIP3    H252663   3.714   5.546   9.908 -0.0156  0.4589 -0.1902
 9490TIP3   OH252664   3.574   1.776  10.198 -0.7244 -0.7537 -0.3935
 9490TIP3    H152665   3.485   1.768  10.165 -0.8143 -0.6478 -0.1746
 9490TIP3    H252666   3.628   1.736  10.130 -0.9982 -1.4710 -0.1944
 9491TIP3   OH252667   2.636   1.795  12.865  0.5335  0.2756  0.1108
 9491TIP3    H152668   2.724   1.821  12.893 -0.0342 -1.0073  3.5199
 9491TIP3    H252669   2.596   1.876  12.833  3.4255  0.5751 -3.2810
 9492TIP3   OH252670   3.498   6.627  10.817  0.9277 -0.4930  0.3824
 9492TIP3    H152671   3.592   6.631  10.833  0.8099 -0.2402  1.0328
 9492TIP3    H252672   3.459   6.679  10.887  0.3455  0.0042 -0.2950
 9493TIP3   OH252673   3.514   6.573   9.795 -0.1066 -0.3344  0.1604
 9493TIP3    H152674   3.487   6.495   9.746 -1.0846 -0.5104  0.9426
 9493TIP3    H252675   3.489   6.554   9.885  2.5197 -0.4054  0.9415
 9494TIP3   OH252676   3.273   1.770  11.164  0.3175 -0.3516  0.1934
 9494TIP3    H152677   3.335   1.760  11.236  2.9442 -1.2653 -2.0062
 9494TIP3    H252678   3.315   1.832  11.104 -0.6271 -1.3720 -1.6251
 9495TIP3   OH252679   2.137   1.678   9.481  0.0101  0.2400 -0.1842
 9495TIP3    H152680   2.168   1.649   9.395 -1.5406 -1.1224 -0.3377
 9495TIP3    H252681   2.140   1.773   9.477 -0.1597  0.2008 -1.7937
 9496TIP3   OH252682   5.901   5.249   9.917  0.1164 -0.9763 -0.2959
 9496TIP3    H152683   5.957   5.292   9.853 -1.2695 -0.6354 -1.3163
 9496TIP3    H252684   5.920   5.294  10.000  0.5807 -0.1625 -0.8318
 9497TIP3   OH252685   1.167   5.004  10.070 -0.2118 -0.0323  0.0803
 9497TIP3    H152686   1.115   4.932  10.106  0.7932 -0.3222  1.0315
 9497TIP3    H252687   1.190   5.057  10.146  0.3951  0.3915 -0.3900
 9498TIP3   OH252688   3.197   2.289  11.263 -0.2413 -0.0233 -0.3895
 9498TIP3    H152689   3.280   2.316  11.302  0.4292 -1.9402 -0.4026
 9498TIP3    H252690   3.131   2.342  11.308  0.7230 -0.5788  1.7828
 9499TIP3   OH252691   5.952   1.730  10.779  0.1122  0.3944 -0.1474
 9499TIP3    H152692   5.908   1.648  10.756  1.6636 -0.2155 -1.1312
 9499TIP3    H252693   6.004   1.708  10.857  1.0910  0.2183 -0.8348
 9500TIP3   OH252694   5.895   5.692  11.475  0.2046 -0.6672  0.1447
 9500TIP3    H152695   5.985   5.662  11.466  0.2811 -0.0222 -1.5916
 9500TIP3    H252696   5.889   5.767  11.416 -1.7691 -1.3920 -0.6682
 9501TIP3   OH252697   4.010   2.440  11.698 -0.3299 -0.5736 -0.0536
 9501TIP3    H152698   4.093   2.484  11.709 -0.5598 -0.1538  0.0217
 9501TIP3    H252699   3.997   2.436  11.603 -1.9092  2.6284 -0.1099
 9502TIP3   OH252700   0.840   0.086  10.513  0.0080 -0.0295  0.2175
 9502TIP3    H152701   0.916   0.142  10.497  0.8586 -1.1139  0.3499
 9502TIP3    H252702   0.800   0.075  10.427 -0.2785  0.9096  0.2174
 9503TIP3   OH252703   5.158   4.500   9.490  0.1567 -0.0376 -0.4458
 9503TIP3    H152704   5.188   4.437   9.425  0.1535  0.8292 -1.3077
 9503TIP3    H252705   5.212   4.481   9.568  0.8467 -0.4541 -1.0088
 9504TIP3   OH252706   4.145   2.716  10.943  0.1024  0.0430 -0.4470
 9504TIP3    H152707   4.096   2.745  10.866  0.0185  0.5136 -0.2192
 9504TIP3    H252708   4.124   2.623  10.952 -1.4533  0.4310  0.1820
 9505TIP3   OH252709   0.495   5.594  10.018 -0.6715  0.5489  0.0073
 9505TIP3    H152710   0.537   5.631  10.095  0.2036  0.6066 -0.4924
 9505TIP3    H252711   0.406   5.574  10.047  0.0228 -0.6683  1.4192
 9506TIP3   OH252712   3.083   3.319  11.167 -0.0641  0.8745 -0.1581
 9506TIP3    H152713   3.048   3.394  11.119 -0.1545  0.7837 -0.2330
 9506TIP3    H252714   3.164   3.353  11.206 -0.8981  1.4687  1.1250
 9507TIP3   OH252715   1.820   1.484  10.412 -0.5186  0.1935  0.6064
 9507TIP3    H152716   1.775   1.402  10.431  2.2428 -1.3752  0.7579
 9507TIP3    H252717   1.804   1.498  10.318  2.1330 -2.7175 -0.4482
 9508TIP3   OH252718   2.759   0.226  10.499  0.0969  0.2086  0.0288
 9508TIP3    H152719   2.705   0.222  10.420 -0.3810 -2.5941  0.3943
 9508TIP3    H252720   2.834   0.279  10.474 -1.0688  1.1932 -1.6165
 9509TIP3   OH252721   1.069   5.088  11.534 -0.6104  0.2339 -0.4889
 9509TIP3    H152722   1.083   5.044  11.450  0.5395 -1.1981  0.3912
 9509TIP3    H252723   1.157   5.107  11.565 -1.0711  2.3885 -0.4046
 9510TIP3   OH252724   3.186   0.576  10.698  0.2772  0.0515  0.5682
 9510TIP3    H152725   3.092   0.596  10.699  0.2464 -0.1038  1.0111
 9510TIP3    H252726   3.197   0.514  10.626 -0.0254 -0.2275  0.7580
 9511TIP3   OH252727   2.125   2.294  10.728 -0.1290 -0.3195  1.1536
 9511TIP3    H152728   2.207   2.340  10.751  0.6257 -1.2425  0.3818
 9511TIP3    H252729   2.114   2.229  10.798  1.2018 -1.9121 -0.0369
 9512TIP3   OH252730   4.822   4.119  10.608 -0.5057 -0.1194  0.0036
 9512TIP3    H152731   4.898   4.140  10.554  0.2934  0.3321  1.2582
 9512TIP3    H252732   4.784   4.205  10.629 -0.8504 -0.2939  0.0966
 9513TIP3   OH252733   6.420   3.295  12.013 -0.0341  0.0836  0.3249
 9513TIP3    H152734   6.405   3.389  12.010  2.3213  0.5140  0.1374
 9513TIP3    H252735   6.399   3.264  11.925 -1.0915  0.3530  0.4647
 9514TIP3   OH252736   0.630   3.805  11.926 -0.2229  0.4476  0.3359
 9514TIP3    H152737   0.635   3.737  11.993 -1.7372  0.6738  0.7185
 9514TIP3    H252738   0.720   3.815  11.895  0.4397  0.0522  2.0377
 9515TIP3   OH252739   5.483   2.769  10.660  0.2008 -0.2523  0.1601
 9515TIP3    H152740   5.568   2.742  10.695  0.1231 -1.0782 -0.2738
 9515TIP3    H252741   5.501   2.852  10.615  1.1401 -1.2107 -1.3327
 9516TIP3   OH252742   2.472   6.265  12.658  0.0040  0.2376 -0.0622
 9516TIP3    H152743   2.529   6.251  12.734 -0.0855  1.1117  0.1800
 9516TIP3    H252744   2.532   6.282  12.586  0.0963 -0.8138 -0.2453
 9517TIP3   OH252745   3.213   0.767  12.620 -0.0512 -0.0230 -0.2393
 9517TIP3    H152746   3.178   0.845  12.577 -0.2677  0.5546  0.9502
 9517TIP3    H252747   3.171   0.766  12.706 -1.1827 -2.2703 -0.7591
 9518TIP3   OH252748   1.793   0.071   9.995  0.3707 -0.4140 -0.1735
 9518TIP3    H152749   1.731   0.012  10.036  0.0119  0.4678  0.6069
 9518TIP3    H252750   1.771   0.070   9.902  1.5727 -2.9050 -0.4891
 9519TIP3   OH252751   1.435   4.398  11.856 -0.5570 -0.1887 -0.1263
 9519TIP3    H152752   1.394   4.421  11.939 -2.1830  0.7318 -1.1440
 9519TIP3    H252753   1.420   4.474  11.800  3.1318  0.5200 -0.4187
 9520TIP3   OH252754   5.570   2.522   9.826 -0.0842 -0.0577 -0.4131
 9520TIP3    H152755   5.660   2.543   9.850 -0.1040  0.0665 -0.4463
 9520TIP3    H252756   5.574   2.504   9.732 -0.3212  1.2619 -0.6922
 9521TIP3   OH252757   0.190   2.246  12.747 -0.4742  0.0572  0.2256
 9521TIP3    H152758   0.104   2.212  12.725 -0.6244  1.0732 -0.8392
 9521TIP3    H252759   0.245   2.223  12.672 -0.4552  1.6174 -0.2861
 9522TIP3   OH252760   2.126   2.736  11.740  0.1489  0.0127  0.1681
 9522TIP3    H152761   2.087   2.823  11.738 -0.5984 -0.3038  0.6660
 9522TIP3    H252762   2.061   2.681  11.784  0.7388 -0.7355  0.1297
 9523TIP3   OH252763   4.952   6.343   9.445  0.1432 -0.3025 -0.0302
 9523TIP3    H152764   4.906   6.427   9.449 -0.9254 -0.8949  0.7493
 9523TIP3    H252765   4.881   6.278   9.438  0.8253 -1.2821  1.6925
 9524TIP3   OH252766   2.198   1.212  10.668 -0.1644  0.1152  0.0599
 9524TIP3    H152767   2.117   1.264  10.663 -0.4278 -0.2769  0.1327
 9524TIP3    H252768   2.221   1.213  10.761  0.8448  1.6034 -0.1811
 9525TIP3   OH252769   1.209   3.743   9.775  0.0029 -0.3092  0.6274
 9525TIP3    H152770   1.132   3.718   9.827 -0.1163  0.2755  0.7448
 9525TIP3    H252771   1.280   3.688   9.808 -0.1928 -0.3094  1.0538
 9526TIP3   OH252772   0.953   2.821   9.295  0.6266  0.3800 -0.4234
 9526TIP3    H152773   0.993   2.900   9.260  0.8859  0.7776  0.7569
 9526TIP3    H252774   0.875   2.851   9.342  1.0062  0.0028  0.4732
 9527TIP3   OH252775   1.817   1.224  12.868 -0.9512 -0.1725 -0.0896
 9527TIP3    H152776   1.858   1.231  12.954  0.0791 -1.1589 -0.4761
 9527TIP3    H252777   1.760   1.301  12.862 -0.1788  0.5139  1.0122
 9528TIP3   OH252778   3.399   0.099  10.394 -0.2515 -0.5363  0.0794
 9528TIP3    H152779   3.481   0.116  10.439  0.3241 -0.2313 -1.0451
 9528TIP3    H252780   3.360   0.025  10.441  0.0310  0.1335  1.4123
 9529TIP3   OH252781   0.421   4.192  11.625 -0.2008  0.2060 -0.3752
 9529TIP3    H152782   0.463   4.230  11.702 -0.3679  0.8306 -0.5872
 9529TIP3    H252783   0.355   4.133  11.660 -0.0243  0.2051 -0.0396
 9530TIP3   OH252784   5.301   0.926   9.052 -0.3532  0.0944 -0.4718
 9530TIP3    H152785   5.274   0.972   8.973 -0.4269  0.9885  0.0600
 9530TIP3    H252786   5.339   0.994   9.108 -0.5207 -0.4779  0.3610
 9531TIP3   OH252787   4.072   3.620  12.107  0.0435 -0.0559  0.6306
 9531TIP3    H152788   4.021   3.553  12.152 -1.1352 -0.7825 -1.6144
 9531TIP3    H252789   4.142   3.572  12.063  0.1905  0.4064  0.3467
 9532TIP3   OH252790   0.308   6.126  10.877  0.0146  0.4977  0.3951
 9532TIP3    H152791   0.284   6.101  10.966 -0.2233 -0.5941  0.0433
 9532TIP3    H252792   0.318   6.221  10.880 -1.9600  0.7278  1.1294
 9533TIP3   OH252793   2.731   4.867  10.065  0.0166 -0.6698  0.1788
 9533TIP3    H152794   2.682   4.847   9.986  1.3035 -0.2809 -0.7551
 9533TIP3    H252795   2.779   4.947  10.044 -0.8991  0.4160  1.9523
 9534TIP3   OH252796   4.641   0.359   9.618  0.0885 -0.1490  0.4257
 9534TIP3    H152797   4.735   0.346   9.608  0.3404  2.1359 -0.7275
 9534TIP3    H252798   4.618   0.307   9.695  1.9983 -1.9029 -0.1156
 9535TIP3   OH252799   0.129   4.654   9.733 -0.6522  0.2281  0.1670
 9535TIP3    H152800   0.045   4.691   9.707 -0.8292 -0.0196  0.3745
 9535TIP3    H252801   0.171   4.628   9.651 -1.9595 -2.1771  0.1818
 9536TIP3   OH252802   5.120   0.079  12.532 -0.6969 -0.2815 -0.0731
 9536TIP3    H152803   5.048   0.067  12.470 -1.4979 -1.3447  1.0177
 9536TIP3    H252804   5.108   0.009  12.595  0.4020  0.4722  0.9956
 9537TIP3   OH252805   6.301   3.636  10.931 -0.1483  0.2389  0.1556
 9537TIP3    H152806   6.244   3.611  11.003  0.1083  1.1800  0.7070
 9537TIP3    H252807   6.243   3.640  10.855 -1.0160  1.9320  0.8516
 9538TIP3   OH252808   2.846   0.478  11.568  0.1542 -0.1730 -0.4284
 9538TIP3    H152809   2.855   0.452  11.660 -0.6036  0.9146 -0.0249
 9538TIP3    H252810   2.783   0.549  11.570  0.1376 -0.1340 -1.8075
 9539TIP3   OH252811   5.702   2.269   9.696 -0.1970 -0.3473  0.1728
 9539TIP3    H152812   5.777   2.304   9.743 -1.3191  0.9109  1.1040
 9539TIP3    H252813   5.643   2.237   9.764 -0.3312 -1.7342 -0.5616
 9540TIP3   OH252814   4.129   6.366  10.485  0.2349 -0.1333 -0.5012
 9540TIP3    H152815   4.153   6.432  10.550 -0.5523 -0.3191 -0.0111
 9540TIP3    H252816   4.039   6.389  10.460  0.2216 -0.5854 -0.8807
 9541TIP3   OH252817   6.340   5.120  10.881  0.1668 -0.1678  0.2750
 9541TIP3    H152818   6.419   5.099  10.832 -0.1017  0.5181 -0.4743
 9541TIP3    H252819   6.353   5.210  10.912  0.4310 -0.6683  1.6835
 9542TIP3   OH252820   0.902   6.126  10.480 -0.1439 -0.5077 -0.3902
 9542TIP3    H152821   0.980   6.101  10.431  1.5182  1.1025  1.2710
 9542TIP3    H252822   0.842   6.162  10.414  0.9135 -0.8472 -1.5640
 9543TIP3   OH252823   0.575   2.761  10.394 -0.0865  0.2993  0.4296
 9543TIP3    H152824   0.539   2.801  10.315  1.0717  0.2166 -0.1617
 9543TIP3    H252825   0.601   2.673  10.368 -1.5184 -0.4519  1.4252
 9544TIP3   OH252826   1.364   4.932  11.377  0.0749  0.1487  0.6408
 9544TIP3    H152827   1.345   4.948  11.285  3.4702  0.9040 -0.0803
 9544TIP3    H252828   1.357   4.837  11.387  0.8626 -0.0852 -0.7591
 9545TIP3   OH252829   2.653   1.156  11.823  0.3188  0.1171  0.2794
 9545TIP3    H152830   2.637   1.232  11.767  0.6575  0.4742  0.6537
 9545TIP3    H252831   2.610   1.083  11.779  2.3939 -0.0707 -1.6207
 9546TIP3   OH252832   3.674   0.785  11.990  0.4453  0.2261 -0.6378
 9546TIP3    H152833   3.656   0.825  11.905 -0.5756  1.4576  0.1219
 9546TIP3    H252834   3.762   0.816  12.013 -0.4375  2.3963  0.0676
 9547TIP3   OH252835   3.083   2.424  10.909  0.0566 -0.3773 -0.6211
 9547TIP3    H152836   3.178   2.423  10.896  0.2356  0.4454  0.4002
 9547TIP3    H252837   3.058   2.515  10.891 -0.2425 -0.1548  0.7508
 9548TIP3   OH252838   1.832   0.467   9.984  0.6372  0.6187  0.1936
 9548TIP3    H152839   1.812   0.447  10.075  2.3576 -2.4877  0.0299
 9548TIP3    H252840   1.894   0.539   9.988  0.0940  1.0484  1.3999
 9549TIP3   OH252841   2.434   3.851  11.395  0.4633  0.4866  0.4168
 9549TIP3    H152842   2.479   3.928  11.429  0.9637  0.7654 -0.8172
 9549TIP3    H252843   2.496   3.813  11.333 -0.0788 -0.4916  0.4515
 9550TIP3   OH252844   1.910   4.838  10.801  0.0423  0.1311  0.7531
 9550TIP3    H152845   1.962   4.917  10.811  1.2781 -0.6692  0.8114
 9550TIP3    H252846   1.894   4.808  10.891 -1.4376  0.9318  0.7861
 9551TIP3   OH252847   3.507   0.817  11.211  0.6533  0.5735  0.0371
 9551TIP3    H152848   3.507   0.856  11.298 -0.8604  1.1333 -0.1801
 9551TIP3    H252849   3.531   0.889  11.152  0.5256  0.4904 -0.1165
 9552TIP3   OH252850   1.077   0.250  10.739  0.3746  0.5256  0.4835
 9552TIP3    H152851   1.145   0.207  10.689  1.2924  0.9247  1.3550
 9552TIP3    H252852   1.116   0.332  10.768 -0.9477  1.4221 -0.1676
 9553TIP3   OH252853   4.548   6.180  10.968 -0.4229 -0.9700  0.2208
 9553TIP3    H152854   4.531   6.192  10.874 -2.7588  0.5846  0.7641
 9553TIP3    H252855   4.619   6.241  10.987 -0.7833 -0.3778 -0.3040
 9554TIP3   OH252856   3.178   5.527  10.817 -0.2594  0.4525 -0.6031
 9554TIP3    H152857   3.104   5.476  10.786  0.6399 -1.8139  0.7657
 9554TIP3    H252858   3.140   5.585  10.884 -1.0583  0.6463 -1.2023
 9555TIP3   OH252859   5.197   0.388  11.103  0.2057 -0.3188  0.0572
 9555TIP3    H152860   5.136   0.403  11.175 -0.1474 -0.1444 -0.2735
 9555TIP3    H252861   5.213   0.475  11.067  0.1751 -0.4359 -0.2385
 9556TIP3   OH252862   3.542   4.758  11.196  0.1617 -0.6364  0.0315
 9556TIP3    H152863   3.514   4.782  11.284 -2.9533 -0.0515 -1.0281
 9556TIP3    H252864   3.509   4.827  11.140  2.2421 -0.9013 -1.6670
 9557TIP3   OH252865   2.931   1.060  11.492 -0.1422 -0.1915 -0.4322
 9557TIP3    H152866   2.882   1.028  11.567 -0.7929 -0.8356 -1.1271
 9557TIP3    H252867   2.883   1.029  11.415  1.0256 -0.3629 -1.1302
 9558TIP3   OH252868   3.409   6.406  11.274 -0.1459 -0.3923 -0.2632
 9558TIP3    H152869   3.351   6.331  11.259  0.3678 -0.7309 -0.5963
 9558TIP3    H252870   3.377   6.473  11.215 -0.7054 -0.2936  0.1472
 9559TIP3   OH252871   3.131   4.758  10.752 -0.4461 -0.0927  0.5758
 9559TIP3    H152872   3.113   4.734  10.662  3.2808 -1.0486 -0.0808
 9559TIP3    H252873   3.182   4.839  10.746  1.2750 -1.0303  1.6257
 9560TIP3   OH252874   5.556   0.123  12.282  0.3899  0.4390  0.2790
 9560TIP3    H152875   5.489   0.139  12.348  1.9549 -0.7376  2.2494
 9560TIP3    H252876   5.578   0.031  12.292  1.7593  0.6102 -0.8698
 9561TIP3   OH252877   3.919   5.486  10.886 -0.1649  0.1937  0.1781
 9561TIP3    H152878   3.827   5.502  10.864 -0.4766 -2.3581 -0.7713
 9561TIP3    H252879   3.968   5.540  10.824 -1.0481  0.0378 -0.6777
 9562TIP3   OH252880   2.107   0.307  10.112 -0.1713  0.4123  0.2647
 9562TIP3    H152881   2.106   0.217  10.145 -0.6815  0.1530 -0.4288
 9562TIP3    H252882   2.024   0.316  10.065 -1.1001  1.9267  2.0859
 9563TIP3   OH252883   6.632   4.682  10.103 -0.0030 -0.4902 -0.3631
 9563TIP3    H152884   6.701   4.745  10.122 -0.6018 -0.2705  1.2900
 9563TIP3    H252885   6.672   4.619  10.043  1.4899 -0.1268  0.2215
 9564TIP3   OH252886   5.030   4.342  10.248  0.2764  0.1926 -0.2250
 9564TIP3    H152887   5.045   4.376  10.337  1.4230  0.6654 -0.5766
 9564TIP3    H252888   5.050   4.417  10.191 -0.4368 -0.1118 -0.8854
 9565TIP3   OH252889   4.776   4.223   9.359 -0.3582  0.4101 -0.1510
 9565TIP3    H152890   4.854   4.180   9.325 -1.6405 -1.0646 -1.3554
 9565TIP3    H252891   4.809   4.304   9.399  1.6946  0.1337 -1.1577
 9566TIP3   OH252892   1.334   4.477  11.524  0.0184  0.2447 -0.5632
 9566TIP3    H152893   1.377   4.525  11.595  0.4024 -1.4009  0.3879
 9566TIP3    H252894   1.390   4.400  11.510 -0.9532 -0.3237 -1.4994
 9567TIP3   OH252895   1.865   0.077  13.111  0.3667 -0.2604 -0.3769
 9567TIP3    H152896   1.803   0.136  13.067  2.5298  0.7585 -2.2300
 9567TIP3    H252897   1.925   0.135  13.157  0.1207 -1.2335  1.2435
 9568TIP3   OH252898   1.793   1.084   9.451 -0.1720 -0.0633 -0.3306
 9568TIP3    H152899   1.843   1.165   9.461 -0.6771  0.2486 -0.3200
 9568TIP3    H252900   1.811   1.055   9.362 -0.4075  0.3420 -0.5115
 9569TIP3   OH252901   0.971   0.720   9.432  0.5728  0.1211 -0.2381
 9569TIP3    H152902   0.970   0.626   9.453  1.7306 -0.2431 -1.6273
 9569TIP3    H252903   1.024   0.726   9.352  0.3780  1.9514 -0.2740
 9570TIP3   OH252904   1.047   2.398  10.908 -0.5362  0.1454  0.0524
 9570TIP3    H152905   1.024   2.305  10.904  0.4303 -0.0812 -0.6755
 9570TIP3    H252906   0.999   2.438  10.836 -0.9959  0.2324  0.3998
 9571TIP3   OH252907   6.401   4.435   9.946 -0.2370  0.2128  0.5132
 9571TIP3    H152908   6.495   4.423   9.961 -0.4487 -0.5252  1.3818
 9571TIP3    H252909   6.392   4.445   9.852  0.7949  1.0858  0.4947
 9572TIP3   OH252910   0.382   5.274  10.879 -0.2175  0.1513  0.4196
 9572TIP3    H152911   0.425   5.198  10.842 -0.4901  0.4585 -0.5910
 9572TIP3    H252912   0.300   5.240  10.916 -0.2259 -0.0817  0.1891
 9573TIP3   OH252913   5.798   6.148  12.259  0.6655  0.0984 -0.5965
 9573TIP3    H152914   5.838   6.227  12.222 -0.0308  0.8181  0.1472
 9573TIP3    H252915   5.867   6.083  12.255  0.7579  0.2369 -2.7786
 9574TIP3   OH252916   3.508   5.890  11.861 -0.2147 -0.1061 -0.5693
 9574TIP3    H152917   3.415   5.873  11.849 -0.1882 -0.7374  0.0520
 9574TIP3    H252918   3.550   5.805  11.849  0.1080 -0.1609  0.7745
 9575TIP3   OH252919   4.706   0.361  11.918  0.6250  0.5946 -0.3948
 9575TIP3    H152920   4.651   0.310  11.860 -0.1373  1.1466 -0.1731
 9575TIP3    H252921   4.794   0.355  11.880  0.9604 -2.3597  0.6022
 9576TIP3   OH252922   6.673   3.471  10.804 -0.7878  0.2700  0.0647
 9576TIP3    H152923   6.676   3.420  10.723 -0.8715 -0.2778  0.3999
 9576TIP3    H252924   6.681   3.406  10.874  0.6802  0.8544  0.4753
 9577TIP3   OH252925   1.731   4.174  10.616  0.3939 -0.3648  0.1578
 9577TIP3    H152926   1.807   4.120  10.636 -0.6748 -2.5025 -1.1560
 9577TIP3    H252927   1.750   4.211  10.530 -0.0557 -1.0065 -0.2321
 9578TIP3   OH252928   5.653   5.485   9.859  0.6979  0.0971 -1.1857
 9578TIP3    H152929   5.659   5.456   9.950  0.5172 -0.1504 -1.2511
 9578TIP3    H252930   5.743   5.484   9.828  0.7301 -0.0832 -1.0895
 9579TIP3   OH252931   0.333   4.573  11.017  0.0939 -0.5005  0.0748
 9579TIP3    H152932   0.279   4.540  11.089 -0.8954 -0.1205 -0.4715
 9579TIP3    H252933   0.282   4.552  10.938  0.8134 -0.2470 -0.4599
 9580TIP3   OH252934   5.714   3.409   9.354  0.5731 -0.5138  0.6132
 9580TIP3    H152935   5.656   3.334   9.369  0.3974 -0.3633  0.6852
 9580TIP3    H252936   5.701   3.466   9.430  1.2775 -0.7736  0.9428
 9581TIP3   OH252937   2.330   1.336  10.209  0.2425 -0.3257  0.1417
 9581TIP3    H152938   2.358   1.416  10.163  0.5202  0.4038  1.5213
 9581TIP3    H252939   2.389   1.268  10.176 -0.7349 -0.2685 -1.9160
 9582TIP3   OH252940   2.207   4.671   9.834 -0.0539 -0.4671  0.1415
 9582TIP3    H152941   2.231   4.663   9.926  0.5059  1.0561  0.1449
 9582TIP3    H252942   2.122   4.714   9.834 -0.5703 -1.4442 -0.0425
 9583TIP3   OH252943   3.485   0.319  11.896  0.1490 -0.3301  0.5027
 9583TIP3    H152944   3.558   0.262  11.917  1.9507  2.0028  1.0208
 9583TIP3    H252945   3.507   0.355  11.809 -1.3495 -0.9885 -0.1850
 9584TIP3   OH252946   6.660   1.892  10.337 -0.5668  0.1780  0.2216
 9584TIP3    H152947   6.634   1.807  10.303 -0.5191  0.3684 -0.2974
 9584TIP3    H252948   6.754   1.897  10.322 -0.0438 -0.7512  2.6213
 9585TIP3   OH252949   3.733   4.118   9.640  0.1926  0.2481  0.1311
 9585TIP3    H152950   3.664   4.181   9.660  0.0408  0.1302 -0.0223
 9585TIP3    H252951   3.705   4.077   9.558  1.1437  1.1964 -0.6934
 9586TIP3   OH252952   2.518   1.704  11.178  0.9267  0.1758 -0.0582
 9586TIP3    H152953   2.483   1.732  11.094 -1.7401 -2.4421 -0.0037
 9586TIP3    H252954   2.552   1.616  11.162 -0.6013 -0.8323  1.7019
 9587TIP3   OH252955   1.580   2.409  10.581 -0.1609  0.2863 -0.1147
 9587TIP3    H152956   1.650   2.434  10.642 -1.7774  2.2684  1.0473
 9587TIP3    H252957   1.561   2.318  10.602  0.4725  0.4248  1.1728
 9588TIP3   OH252958   1.510   1.955  11.065 -0.1560 -0.0303  0.6929
 9588TIP3    H152959   1.556   1.928  10.985  0.6827  1.7533  0.5202
 9588TIP3    H252960   1.422   1.976  11.036 -1.2380 -3.4884  1.0252
 9589TIP3   OH252961   0.370   0.533  10.990  0.8688 -0.2115  0.2472
 9589TIP3    H152962   0.420   0.570  11.062  0.3230  1.8303 -0.3490
 9589TIP3    H252963   0.279   0.538  11.018  0.6131  1.0549 -0.7419
 9590TIP3   OH252964   0.939   5.448  10.363  0.3929 -0.1123  0.0573
 9590TIP3    H152965   0.859   5.454  10.414 -0.6323  1.7431 -1.6126
 9590TIP3    H252966   0.996   5.515  10.399  0.7342 -0.6123  0.4614
 9591TIP3   OH252967   1.214   0.068   9.109 -0.7147  0.0105  0.0311
 9591TIP3    H152968   1.180  -0.015   9.143 -0.8381  0.0632  0.0369
 9591TIP3    H252969   1.137   0.111   9.071 -0.8203  0.5136  0.8093
 9592TIP3   OH252970   1.043   4.552  12.192  0.6551  0.6284 -0.0698
 9592TIP3    H152971   0.957   4.512  12.178  1.2650 -1.3104  1.2866
 9592TIP3    H252972   1.024   4.644  12.210 -1.0670  0.3878 -0.4653
 9593TIP3   OH252973   6.356   4.694  10.447  0.0910  0.0496  0.2253
 9593TIP3    H152974   6.419   4.622  10.446  0.8086  0.6686  0.0230
 9593TIP3    H252975   6.387   4.753  10.379  0.1855  1.1307  1.1917
 9594TIP3   OH252976   4.171   1.886  12.248  0.1229 -0.1953  0.2051
 9594TIP3    H152977   4.194   1.901  12.340  1.6243  2.1237 -0.4742
 9594TIP3    H252978   4.075   1.892  12.246  0.1196  0.4912  1.4972
 9595TIP3   OH252979   0.037   2.139   9.081 -0.0823 -0.1291 -0.4721
 9595TIP3    H152980   0.076   2.063   9.039 -0.4321 -2.0322  2.3730
 9595TIP3    H252981   0.053   2.126   9.175 -2.0982  2.1611  0.3079
 9596TIP3   OH252982   5.209   3.674  10.189  0.2624 -0.5852 -0.2423
 9596TIP3    H152983   5.222   3.600  10.130  0.8461  0.9870 -2.1746
 9596TIP3    H252984   5.115   3.690  10.187  0.1850 -1.0227 -0.1298
 9597TIP3   OH252985   4.308   3.322  10.881 -0.0158 -0.0480  0.1785
 9597TIP3    H152986   4.372   3.262  10.842  0.3210  0.6511 -0.3708
 9597TIP3    H252987   4.333   3.408  10.847 -0.6309  0.3695  0.7744
 9598TIP3   OH252988   1.972   0.435  12.828  0.2243  0.2124 -0.4310
 9598TIP3    H152989   1.954   0.520  12.788 -2.8255 -1.1139 -2.2831
 9598TIP3    H252990   1.889   0.411  12.870  1.4687 -1.2533  1.3578
 9599TIP3   OH252991   6.515   6.337  12.070  0.0032 -0.2491 -0.2458
 9599TIP3    H152992   6.443   6.339  12.133  0.5029  0.3339  0.3088
 9599TIP3    H252993   6.533   6.429  12.051  2.1419 -0.2581  1.4015
 9600TIP3   OH252994   2.149   4.065   9.746 -0.1008 -0.9319 -0.1219
 9600TIP3    H152995   2.127   4.152   9.780  0.3450 -0.9408  0.1978
 9600TIP3    H252996   2.074   4.041   9.691 -0.2404 -0.3584 -0.1906
 9601TIP3   OH252997   1.811   4.546  12.026 -0.2002  0.2069  0.2656
 9601TIP3    H152998   1.842   4.635  12.042 -0.3565  0.0356  1.6645
 9601TIP3    H252999   1.843   4.525  11.939 -0.7956  1.9085 -0.4122
 9602TIP3   OH253000   0.448   3.973  11.116  0.5845  0.2796 -0.1195
 9602TIP3    H153001   0.475   4.061  11.144  0.4145  0.0991  0.6268
 9602TIP3    H253002   0.380   3.989  11.051  0.1759  0.7017  0.4045
 9603TIP3   OH253003   3.052   1.789  10.975 -0.1712  0.3614  0.2840
 9603TIP3    H153004   3.132   1.803  11.025  0.5299 -1.9606 -0.0647
 9603TIP3    H253005   3.004   1.721  11.024 -1.5989  1.1795  0.0958
 9604TIP3   OH253006   0.739   1.381  12.861 -0.4189 -0.0740  0.0489
 9604TIP3    H153007   0.705   1.466  12.889  0.0091  0.4228 -0.8774
 9604TIP3    H253008   0.738   1.385  12.766 -2.3247 -1.9032 -0.0922
 9605TIP3   OH253009   1.999   3.945  11.030 -0.3365 -0.2808 -0.2457
 9605TIP3    H153010   1.986   3.884  10.957  1.5927 -0.3634 -0.5475
 9605TIP3    H253011   1.911   3.953  11.069 -1.0685 -1.5465 -1.5180
 9606TIP3   OH253012   4.272   1.694   9.216 -0.5298 -0.1959  0.0558
 9606TIP3    H153013   4.363   1.676   9.242 -0.8206  0.4296  1.6346
 9606TIP3    H253014   4.226   1.612   9.235 -0.3907 -0.3449 -0.2489
 9607TIP3   OH253015   5.868   2.788   9.670 -0.0709 -0.4280  0.2688
 9607TIP3    H153016   5.848   2.705   9.714 -0.1298  0.7985  2.7345
 9607TIP3    H253017   5.959   2.779   9.643 -0.3976 -1.6902 -0.5060
 9608TIP3   OH253018   5.815   0.255  10.734  0.0511  0.1205  0.0335
 9608TIP3    H153019   5.763   0.268  10.655  0.5982  0.4930 -0.2767
 9608TIP3    H253020   5.845   0.164  10.729  0.8379  0.4011 -0.6699
 9609TIP3   OH253021   2.169   1.670  11.097  0.1717  0.2438 -0.5414
 9609TIP3    H153022   2.083   1.690  11.133 -0.3504 -1.1513 -0.9412
 9609TIP3    H253023   2.165   1.700  11.007 -0.2815 -0.7278 -0.8638
 9610TIP3   OH253024   1.633   0.056   9.220  0.3867  0.4567 -0.5357
 9610TIP3    H153025   1.596   0.005   9.148 -1.9701 -0.4522  1.2208
 9610TIP3    H253026   1.656  -0.009   9.287 -1.5054  1.5211  1.2439
 9611TIP3   OH253027   6.099   6.601  10.687 -0.4195  0.1582  0.6151
 9611TIP3    H153028   6.155   6.671  10.718 -1.3736  1.2935 -0.1240
 9611TIP3    H253029   6.118   6.594  10.593 -0.2667 -0.6413  0.6975
 9612TIP3   OH253030   0.281   2.858  10.710 -0.1946  0.1805  0.3895
 9612TIP3    H153031   0.223   2.877  10.636  0.3620  0.5766  0.0460
 9612TIP3    H253032   0.291   2.942  10.754  0.3774  0.1850  0.2539
 9613TIP3   OH253033   2.652   3.972   9.578  0.1519 -0.2746 -1.0608
 9613TIP3    H153034   2.584   4.029   9.613 -0.1503  0.2475 -2.4609
 9613TIP3    H253035   2.712   3.958   9.652 -0.0548  1.4114 -0.5357
 9614TIP3   OH253036   1.843   3.691  11.587  0.4947 -0.5280  0.1023
 9614TIP3    H153037   1.811   3.765  11.535 -0.9674 -0.3270  1.2550
 9614TIP3    H253038   1.918   3.726  11.635 -0.5214  0.3832  1.0599
 9615TIP3   OH253039   4.363   5.237  11.522 -0.4115 -0.3342 -0.1598
 9615TIP3    H153040   4.314   5.271  11.448  0.0500 -0.0445 -0.3339
 9615TIP3    H253041   4.322   5.152  11.541 -3.0846  1.2186  1.7192
 9616TIP3   OH253042   2.593   2.827  11.243  0.2413 -0.0475 -0.0992
 9616TIP3    H153043   2.637   2.906  11.274 -0.5063  1.0552 -1.6527
 9616TIP3    H253044   2.508   2.827  11.287  0.5094 -0.3787  0.4248
 9617TIP3   OH253045   2.731   4.548  12.265  0.4689 -0.0251  0.1296
 9617TIP3    H153046   2.736   4.590  12.351 -0.6098 -2.1424  1.2992
 9617TIP3    H253047   2.805   4.488  12.264 -1.2186 -2.2258  0.9069
 9618TIP3   OH253048   5.596   3.244  11.472  0.0760 -0.1697  0.0451
 9618TIP3    H153049   5.549   3.174  11.517  0.8765  0.2053  1.5095
 9618TIP3    H253050   5.527   3.292  11.425 -1.4223  1.5734  3.6873
 9619TIP3   OH253051   3.740   0.811   9.359 -0.2441 -0.2008 -0.2991
 9619TIP3    H153052   3.799   0.737   9.373 -0.5619 -0.5108 -0.5866
 9619TIP3    H253053   3.739   0.858   9.442 -1.0211 -1.2270  0.2886
 9620TIP3   OH253054   2.325   3.730  11.042  0.8540 -0.0153  0.1008
 9620TIP3    H153055   2.301   3.822  11.035  0.2508 -0.1974 -0.3329
 9620TIP3    H253056   2.420   3.729  11.029  0.6240  0.3562 -2.0191
 9621TIP3   OH253057   5.543   1.987   9.622  0.1408 -0.3326  0.3557
 9621TIP3    H153058   5.541   2.031   9.707 -2.2675  0.5710 -0.1243
 9621TIP3    H253059   5.569   2.054   9.560  2.8666 -1.2138  0.4019
 9622TIP3   OH253060   0.126   5.200  11.004 -0.1288 -0.4147 -0.6401
 9622TIP3    H153061   0.113   5.193  11.098  0.3788  1.4046 -0.3945
 9622TIP3    H253062   0.051   5.154  10.966 -1.4689  0.5753  0.6745
 9623TIP3   OH253063   4.184   4.913   9.485 -0.3213  0.3388  0.5892
 9623TIP3    H153064   4.128   4.872   9.551 -0.1778  0.3025  0.6899
 9623TIP3    H253065   4.243   4.843   9.458 -0.9154  0.1243 -0.1794
 9624TIP3   OH253066   4.009   5.329   9.437 -0.3991 -0.3573 -0.3699
 9624TIP3    H153067   4.008   5.415   9.479 -1.9163 -0.9316  0.8587
 9624TIP3    H253068   4.083   5.333   9.375  0.7098  1.1726  0.9787
 9625TIP3   OH253069   3.285   1.195  11.824 -0.2970 -0.5767  0.0685
 9625TIP3    H153070   3.247   1.282  11.813  0.8180 -0.0052  0.6028
 9625TIP3    H253071   3.308   1.167  11.735  0.0365  0.0040 -0.0290
 9626TIP3   OH253072   1.526   2.683  10.745 -0.6132  0.2512 -0.2807
 9626TIP3    H153073   1.483   2.615  10.797  0.4887 -0.3421 -0.1044
 9626TIP3    H253074   1.614   2.648  10.729  0.3456  2.0559  0.6967
 9627TIP3   OH253075   3.946   6.246  12.112  0.1538  0.1864 -0.7151
 9627TIP3    H153076   4.032   6.252  12.155 -0.3634 -2.6735  0.9454
 9627TIP3    H253077   3.960   6.190  12.036 -0.1765 -0.0502 -0.6045
 9628TIP3   OH253078   5.655   0.307  10.525 -0.5534 -0.7065  0.0706
 9628TIP3    H153079   5.637   0.386  10.577 -0.7944 -2.0488  2.1214
 9628TIP3    H253080   5.576   0.296  10.471 -0.0472  1.0466 -1.1409
 9629TIP3   OH253081   5.444   5.079  11.584  0.0737  0.0671 -0.6014
 9629TIP3    H153082   5.467   5.026  11.508 -1.6417  0.3278 -1.3545
 9629TIP3    H253083   5.397   5.019  11.642  0.7691  0.0406 -0.0586
 9630TIP3   OH253084   2.755   1.934  10.887  0.2153  0.3197  0.6765
 9630TIP3    H153085   2.781   1.986  10.963 -1.6003  0.0455  1.5213
 9630TIP3    H253086   2.797   1.979  10.813  2.8817 -0.0082  1.8652
 9631TIP3   OH253087   1.866   2.234  10.696  0.1630  0.0722  0.2842
 9631TIP3    H153088   1.951   2.273  10.719 -0.0203 -0.4378  1.9877
 9631TIP3    H253089   1.865   2.233  10.601  0.4116  3.6972  0.0868
 9632TIP3   OH253090   1.067   4.642   9.779 -0.5162  0.3651  0.3264
 9632TIP3    H153091   1.136   4.707   9.791  0.6190 -0.8104  0.3834
 9632TIP3    H253092   0.999   4.688   9.731  1.2316  1.0078 -1.6881
 9633TIP3   OH253093   3.589   1.979   9.963 -0.2750  0.3353 -0.0826
 9633TIP3    H153094   3.606   1.960   9.871 -1.6563  0.5624 -0.4054
 9633TIP3    H253095   3.631   1.908  10.011  1.1258  0.6227 -0.8209
 9634TIP3   OH253096   2.738   4.058  10.448  0.4085  0.0976  0.3226
 9634TIP3    H153097   2.652   4.098  10.443 -0.5614 -1.5706  2.1556
 9634TIP3    H253098   2.746   4.007  10.368 -0.1372  0.5629 -0.0352
 9635TIP3   OH253099   3.694   3.253  11.611 -0.2599  0.1490  0.1132
 9635TIP3    H153100   3.646   3.179  11.649  1.1584 -1.1438 -0.5158
 9635TIP3    H253101   3.675   3.326  11.670 -3.2042 -0.1885 -0.2506
 9636TIP3   OH253102   0.542   5.636  11.237 -0.0749 -0.5756 -0.6227
 9636TIP3    H153103   0.543   5.566  11.171  0.0766 -0.1338 -1.0922
 9636TIP3    H253104   0.633   5.645  11.263  0.3090  1.0394 -2.2839
 9637TIP3   OH253105   5.645   6.276  10.844 -0.2434 -0.4540 -0.6690
 9637TIP3    H153106   5.712   6.229  10.794  0.0817 -0.3755 -0.3014
 9637TIP3    H253107   5.643   6.364  10.805  0.0832 -0.3606 -0.4697
 9638TIP3   OH253108   5.065   3.905   9.334  0.0683 -0.1159 -0.5148
 9638TIP3    H153109   5.059   3.998   9.314  0.4379  0.2292  0.9401
 9638TIP3    H253110   5.117   3.900   9.414  0.2517 -1.5916 -0.6967
 9639TIP3   OH253111   1.735   3.058  11.932  0.2325  0.1892 -0.3552
 9639TIP3    H153112   1.718   3.149  11.956  1.6413  0.6045 -0.8285
 9639TIP3    H253113   1.752   3.015  12.016 -0.4075  0.3590 -0.1313
 9640TIP3   OH253114   4.598   4.311  10.666 -0.4078  0.1250  0.0970
 9640TIP3    H153115   4.666   4.307  10.732  1.1756 -0.1875 -1.4808
 9640TIP3    H253116   4.605   4.399  10.629 -0.1863 -0.2400 -0.7494
 9641TIP3   OH253117   6.077   3.745   9.808 -0.2169 -0.0328 -0.0580
 9641TIP3    H153118   6.085   3.764   9.901  0.3751  0.0021 -0.1078
 9641TIP3    H253119   6.061   3.830   9.767 -0.7187 -0.0808  0.0331
 9642TIP3   OH253120   1.928   1.028   9.810  0.3476  0.4504  0.4831
 9642TIP3    H153121   2.013   1.056   9.845  1.1981  1.2815 -2.0091
 9642TIP3    H253122   1.949   0.955   9.752 -0.9057 -0.4627  1.1395
 9643TIP3   OH253123   2.105   4.899  11.242  0.5904 -0.0478  0.5085
 9643TIP3    H153124   2.024   4.876  11.288  0.4519 -0.5634  0.0166
 9643TIP3    H253125   2.084   4.980  11.197  1.2611  1.4632  2.7313
 9644TIP3   OH253126   0.949   0.454   9.181  0.0618 -0.1871  0.2540
 9644TIP3    H153127   0.995   0.530   9.146 -0.0143  0.1348  0.8488
 9644TIP3    H253128   0.967   0.456   9.275 -1.9188  0.4957  0.6737
 9645TIP3   OH253129   4.128   1.572  12.215 -0.6379  0.3185  0.2910
 9645TIP3    H153130   4.041   1.567  12.256 -0.9817 -1.2010 -0.5304
 9645TIP3    H253131   4.148   1.665  12.213 -1.9625  0.6572  1.0968
 9646TIP3   OH253132   3.668   1.743  11.132 -0.1600 -0.0839 -0.4297
 9646TIP3    H153133   3.597   1.751  11.068  0.2166 -1.2449 -1.0118
 9646TIP3    H253134   3.689   1.833  11.156 -1.6496  0.2911 -0.4425
 9647TIP3   OH253135   0.650   2.707  11.709  0.0288  0.0925  0.3597
 9647TIP3    H153136   0.598   2.686  11.632  0.3660  1.4895 -0.2869
 9647TIP3    H253137   0.688   2.624  11.737  0.6506 -0.3182 -1.5480
 9648TIP3   OH253138   6.393   2.283  11.461  0.1047 -0.2129 -0.3492
 9648TIP3    H153139   6.408   2.222  11.534 -2.3978  0.1001  0.5500
 9648TIP3    H253140   6.452   2.356  11.478 -0.9039  0.1716  1.8365
 9649TIP3   OH253141   6.513   0.261  10.733  0.4738 -0.1051  0.0834
 9649TIP3    H153142   6.592   0.311  10.710  1.1589 -0.9624  0.5198
 9649TIP3    H253143   6.546   0.186  10.783 -0.6073 -0.5832  0.0983
 9650TIP3   OH253144   2.934   1.285   9.215 -0.5287  0.7163  0.2660
 9650TIP3    H153145   2.892   1.315   9.295 -0.8765 -1.7759  1.0876
 9650TIP3    H253146   2.871   1.225   9.175 -0.4784  2.0615 -2.0818
 9651TIP3   OH253147   2.812   3.184  12.360  0.4941 -0.0819  0.0112
 9651TIP3    H153148   2.789   3.151  12.447  0.1673 -3.1460 -1.1072
 9651TIP3    H253149   2.906   3.166  12.352  0.0655 -2.0981 -1.0803
 9652TIP3   OH253150   4.655   1.751  10.920  0.2119  0.2986  0.0870
 9652TIP3    H153151   4.662   1.742  11.015  1.9572 -1.1964 -0.1428
 9652TIP3    H253152   4.718   1.820  10.897 -0.4639  0.9117  0.0198
 9653TIP3   OH253153   1.684   3.401   9.809 -0.0518 -0.0834 -0.2599
 9653TIP3    H153154   1.751   3.351   9.855  0.0050  1.1466  1.0510
 9653TIP3    H253155   1.609   3.342   9.804  0.4598 -0.7743  0.0190
 9654TIP3   OH253156   6.156   4.300  11.000 -0.0046  0.1400  0.3411
 9654TIP3    H153157   6.134   4.209  10.981  0.4097 -0.3132  1.9305
 9654TIP3    H253158   6.243   4.296  11.039  0.0093  1.2270  0.4501
 9655TIP3   OH253159   1.691   6.209  13.360 -0.2756 -0.2004 -0.0336
 9655TIP3    H153160   1.639   6.207  13.440 -0.9751  0.9900 -0.4399
 9655TIP3    H253161   1.669   6.293  13.319  0.2583 -0.6845 -1.3503
 9656TIP3   OH253162   6.647   1.746  10.922 -0.0064 -0.6302  0.3932
 9656TIP3    H153163   6.623   1.658  10.894 -0.8106 -0.0992 -0.7033
 9656TIP3    H253164   6.673   1.790  10.841 -0.0208  0.2620  0.8599
 9657TIP3   OH253165   5.218   1.887   9.571 -0.0244  0.2070 -0.3366
 9657TIP3    H153166   5.161   1.877   9.647 -0.3646  2.1151 -0.2776
 9657TIP3    H253167   5.300   1.844   9.595  0.3215  1.8233  1.6505
 9658TIP3   OH253168   2.308   3.286  11.093  0.3329 -0.4335  0.7101
 9658TIP3    H153169   2.277   3.325  11.175 -1.7723 -1.0298  0.2379
 9658TIP3    H253170   2.293   3.192  11.104  0.1176 -0.5251 -0.3332
 9659TIP3   OH253171   1.053   1.937  11.094  0.0610 -0.0433 -0.4258
 9659TIP3    H153172   1.134   1.989  11.097 -0.0396  0.0777  0.4081
 9659TIP3    H253173   1.081   1.852  11.061  0.0279  0.8719 -3.0544
 9660TIP3   OH253174   1.580   0.769  10.563  0.5278 -0.5230  0.2121
 9660TIP3    H153175   1.672   0.784  10.543  1.1362 -3.5913  0.1201
 9660TIP3    H253176   1.579   0.747  10.657 -0.2310  0.1985  0.3852
 9661TIP3   OH253177   2.930   1.989  10.039  0.4966 -0.2029  0.3529
 9661TIP3    H153178   2.845   2.010  10.078 -0.3957  0.5528 -1.8887
 9661TIP3    H253179   2.961   2.072  10.004  1.8785 -0.6159  0.5478
 9662TIP3   OH253180   6.436   6.181   9.943  0.3239 -0.3749 -0.3176
 9662TIP3    H153181   6.476   6.158  10.026 -0.8041  0.4731  0.5009
 9662TIP3    H253182   6.352   6.133   9.942 -0.0097  0.1985 -0.6204
 9663TIP3   OH253183   5.344   1.764  10.542  0.2261  0.6973  0.1871
 9663TIP3    H153184   5.275   1.767  10.608 -1.1852  0.1129 -1.1802
 9663TIP3    H253185   5.425   1.780  10.590 -0.8101  0.9260  1.9284
 9664TIP3   OH253186   1.446   5.247  10.235  0.1957 -0.6520 -0.3830
 9664TIP3    H153187   1.509   5.250  10.162  0.4312  0.6101 -0.1451
 9664TIP3    H253188   1.364   5.279  10.198  0.3909  0.2799 -0.0389
 9665TIP3   OH253189   0.760   0.550  11.692 -0.0117  0.2698  0.0101
 9665TIP3    H153190   0.828   0.483  11.701 -0.0281  0.1860 -0.4359
 9665TIP3    H253191   0.759   0.570  11.598 -0.0161  0.8881  0.1342
 9666TIP3   OH253192   1.076   2.682  10.233 -0.3047 -0.2238  0.6640
 9666TIP3    H153193   1.077   2.586  10.224 -0.7402 -0.1811  0.1558
 9666TIP3    H253194   1.003   2.699  10.293  0.0491 -0.2339  1.1058
 9667TIP3   OH253195   0.711   4.842   9.368  0.2839 -0.1501  0.2071
 9667TIP3    H153196   0.778   4.910   9.363 -0.2692  0.3992 -0.0263
 9667TIP3    H253197   0.629   4.889   9.350 -0.0891 -0.9187 -0.1348
 9668TIP3   OH253198   2.069   3.900  12.222 -0.8534  0.2675  0.1930
 9668TIP3    H153199   2.137   3.964  12.202  0.3158 -0.5793  1.2892
 9668TIP3    H253200   1.995   3.926  12.167  1.0052 -0.0093 -2.6853
 9669TIP3   OH253201   6.458   2.534  11.540 -0.0736  0.3623 -0.0896
 9669TIP3    H153202   6.427   2.550  11.629  0.0463  1.5528 -0.2459
 9669TIP3    H253203   6.541   2.581  11.534  0.9791 -1.3950 -0.2014
 9670TIP3   OH253204   0.699   4.044   9.609  0.1628  0.3193 -0.1649
 9670TIP3    H153205   0.639   4.074   9.677 -1.0330 -0.2505 -0.9398
 9670TIP3    H253206   0.762   3.988   9.655 -0.2184  0.4947  0.5781
 9671TIP3   OH253207   4.685   4.055  11.149  0.1809  0.0605 -0.0554
 9671TIP3    H153208   4.651   3.993  11.084 -1.3271 -0.0746  0.8165
 9671TIP3    H253209   4.748   4.107  11.101  1.2467 -1.9093 -0.9176
 9672TIP3   OH253210   1.905   0.907  11.334 -0.1182  0.5504 -0.3506
 9672TIP3    H153211   1.842   0.890  11.264  1.0558  0.3690 -1.3927
 9672TIP3    H253212   1.944   0.821  11.352  1.3283  0.9986 -1.2092
 9673TIP3   OH253213   4.989   4.714  11.728  0.5287  0.0208 -0.1620
 9673TIP3    H153214   4.942   4.730  11.811  0.8221  1.1478 -0.2003
 9673TIP3    H253215   4.945   4.770  11.665  0.2867 -0.8647 -0.7926
 9674TIP3   OH253216   6.698   5.813   9.676  0.2730  0.3761 -0.4421
 9674TIP3    H153217   6.773   5.862   9.643  1.9201 -2.4945 -1.4061
 9674TIP3    H253218   6.665   5.865   9.749  0.5506  3.8021 -2.5191
 9675TIP3   OH253219   3.013   0.190  12.463 -0.1145 -0.0406 -0.6310
 9675TIP3    H153220   2.929   0.232  12.442  0.4215  1.0560 -0.6528
 9675TIP3    H253221   3.068   0.208  12.387  0.8054  1.1030  0.2811
 9676TIP3   OH253222   1.700   3.105  10.914  0.3809 -0.3324  0.0929
 9676TIP3    H153223   1.787   3.143  10.900  0.4645 -0.4958  0.1596
 9676TIP3    H253224   1.708   3.055  10.995  0.6094 -1.4374 -0.5728
 9677TIP3   OH253225   3.205   5.189  10.986  0.1348 -0.1645 -0.0426
 9677TIP3    H153226   3.114   5.166  11.003  0.6200 -0.8857  1.7868
 9677TIP3    H253227   3.208   5.284  10.996 -0.4219 -0.1293 -0.1604
 9678TIP3   OH253228   4.335   1.853  12.036 -0.4277  0.0581 -0.3329
 9678TIP3    H153229   4.281   1.809  11.970 -0.2356 -0.3971 -0.1863
 9678TIP3    H253230   4.279   1.856  12.114 -0.2863 -0.3203 -0.2129
 9679TIP3   OH253231   3.188   2.976  11.624  0.0051 -0.6705 -0.3103
 9679TIP3    H153232   3.168   2.913  11.693  0.2097 -2.2478 -1.6342
 9679TIP3    H253233   3.185   3.061  11.668 -0.3689 -1.5734  1.5161
 9680TIP3   OH253234   2.502   0.867   9.715 -0.0367  0.0851  0.1417
 9680TIP3    H153235   2.584   0.891   9.759  1.0350 -1.3909 -0.9554
 9680TIP3    H253236   2.505   0.772   9.708 -1.1822  0.1055 -1.1961
 9681TIP3   OH253237   5.921   4.768  11.568 -0.5903 -0.4596 -0.2211
 9681TIP3    H153238   5.929   4.815  11.651  1.0924 -0.4008 -0.3865
 9681TIP3    H253239   5.848   4.811  11.523  0.7982  1.9505 -0.3108
 9682TIP3   OH253240   0.238   1.205  12.031 -0.2792 -0.2474 -0.2539
 9682TIP3    H153241   0.264   1.183  11.941 -0.5386  0.0384 -0.3974
 9682TIP3    H253242   0.148   1.236  12.023  0.3953  1.8208 -0.1943
 9683TIP3   OH253243   6.236   6.347   9.134 -0.1744 -1.0867 -0.5553
 9683TIP3    H153244   6.278   6.277   9.083 -2.5376 -2.7545 -0.3814
 9683TIP3    H253245   6.191   6.302   9.205 -1.7354  0.6200 -0.3836
 9684TIP3   OH253246   2.830   6.379  11.916 -0.0335 -0.1221 -0.1762
 9684TIP3    H153247   2.829   6.319  11.991 -1.5825 -0.4632 -0.4488
 9684TIP3    H253248   2.778   6.336  11.849 -2.8981  2.3230  0.2786
 9685TIP3   OH253249   3.412   0.343   9.843  0.2406  0.3491 -0.1119
 9685TIP3    H153250   3.359   0.267   9.866  0.8230  0.2555  1.0172
 9685TIP3    H253251   3.475   0.309   9.779 -0.3983  0.2201 -0.6785
 9686TIP3   OH253252   1.643   3.182  10.505 -0.0777  0.5982 -0.3746
 9686TIP3    H153253   1.713   3.203  10.567 -0.6423  0.3392  0.3730
 9686TIP3    H253254   1.563   3.182  10.559 -0.4279 -0.8550 -0.8518
 9687TIP3   OH253255   4.477   0.105  10.600  0.0770  0.2050  0.0115
 9687TIP3    H153256   4.465   0.128  10.692 -1.2312 -1.7762  0.3850
 9687TIP3    H253257   4.570   0.119  10.583  0.4086  0.2224  1.7377
 9688TIP3   OH253258   6.269   1.742  11.784  0.1452  0.2041  0.3789
 9688TIP3    H153259   6.264   1.794  11.703 -1.2932 -0.5546 -0.0549
 9688TIP3    H253260   6.253   1.652  11.755  0.8253 -0.2507  1.3661
 9689TIP3   OH253261   4.790   6.318  10.942  0.0327  0.0611 -0.6036
 9689TIP3    H153262   4.867   6.290  10.893 -0.8591 -0.2931 -1.8661
 9689TIP3    H253263   4.817   6.397  10.989  0.8146  0.6557 -2.0165
 9690TIP3   OH253264   6.190   2.702   9.901  0.1342 -0.3478  1.2412
 9690TIP3    H153265   6.273   2.732   9.862 -0.5679  0.9747  0.6732
 9690TIP3    H253266   6.210   2.689   9.994  1.1714 -0.8495  0.9599
 9691TIP3   OH253267   5.515   1.763   9.750 -0.6794 -0.3392 -0.4873
 9691TIP3    H153268   5.572   1.695   9.714 -0.6172 -0.9409  0.6842
 9691TIP3    H253269   5.529   1.839   9.694  0.7374 -0.6911 -0.6437
 9692TIP3   OH253270   0.388   3.401  11.250  0.8305  0.6366 -0.5920
 9692TIP3    H153271   0.448   3.409  11.324 -0.2561  0.6003  0.3165
 9692TIP3    H253272   0.331   3.328  11.273  1.5298 -0.4854 -2.2505
 9693TIP3   OH253273   5.112   4.054  11.253 -0.1768  0.7238 -0.4123
 9693TIP3    H153274   5.033   4.027  11.205 -0.6174  0.8197  0.2425
 9693TIP3    H253275   5.150   3.973  11.286 -0.5969  0.7594  0.1725
 9694TIP3   OH253276   1.688   2.784  10.480 -0.1126  1.0982  0.1473
 9694TIP3    H153277   1.733   2.827  10.407  1.6555 -0.9365 -0.0601
 9694TIP3    H253278   1.704   2.842  10.555 -0.6787  2.4472 -0.7234
 9695TIP3   OH253279   4.089   5.143  11.794 -0.0405 -0.4021  0.0210
 9695TIP3    H153280   4.077   5.139  11.889 -1.1547  0.3311 -0.0752
 9695TIP3    H253281   4.105   5.235  11.775 -0.6933 -0.3988 -0.5859
 9696TIP3   OH253282   4.274   1.660  10.103  0.2791  0.5407 -0.3017
 9696TIP3    H153283   4.251   1.622  10.018 -2.0757  1.3958 -0.1393
 9696TIP3    H253284   4.288   1.753  10.084  2.0868  0.3434 -0.0834
 9697TIP3   OH253285   2.859   0.679  10.404 -0.8113 -0.2704  0.0432
 9697TIP3    H153286   2.780   0.734  10.402 -0.1820  0.6536 -0.0234
 9697TIP3    H253287   2.855   0.629  10.322 -1.0024  0.2418 -0.2639
 9698TIP3   OH253288   2.490   1.012  10.582 -0.3707  0.6347  0.1088
 9698TIP3    H153289   2.571   1.046  10.543 -0.4385  0.3296 -0.2990
 9698TIP3    H253290   2.446   0.966  10.511 -1.7738  2.2856 -0.1631
 9699TIP3   OH253291   1.299   6.484  10.681 -0.5844  0.1349 -0.4933
 9699TIP3    H153292   1.344   6.400  10.692  1.8873  1.5716  1.2656
 9699TIP3    H253293   1.285   6.516  10.770 -0.8936  1.8709 -1.1215
 9700TIP3   OH253294   0.031   0.815   9.666 -0.2478 -0.0990  0.7063
 9700TIP3    H153295   0.041   0.734   9.616 -0.1040 -0.1586  0.8289
 9700TIP3    H253296  -0.050   0.803   9.716 -1.2708  0.6217 -0.7304
 9701TIP3   OH253297   5.870   1.886   9.851  0.3994 -0.0020 -0.1763
 9701TIP3    H153298   5.806   1.936   9.903  0.4301  0.0537 -0.1913
 9701TIP3    H253299   5.866   1.926   9.764  0.8188  0.3398 -0.0445
 9702TIP3   OH253300   5.403   3.408  11.725  0.1069 -0.2780 -0.7791
 9702TIP3    H153301   5.482   3.359  11.749  0.2842 -0.2229 -1.2338
 9702TIP3    H253302   5.436   3.483  11.676 -0.1773  0.2145 -0.2221
 9703TIP3   OH253303   2.383   6.494  10.894 -0.6832 -0.0054 -0.0571
 9703TIP3    H153304   2.338   6.541  10.823  0.2887  1.3840  0.1962
 9703TIP3    H253305   2.316   6.482  10.961 -0.9650  1.1284 -0.1035
 9704TIP3   OH253306   1.649   4.640  12.416  0.4322 -0.4907  0.2089
 9704TIP3    H153307   1.724   4.608  12.465 -0.4624 -2.1452  0.5862
 9704TIP3    H253308   1.649   4.590  12.335  0.0849 -0.0626 -0.0657
 9705TIP3   OH253309   5.601   3.643  10.963 -0.1704  0.3536 -0.4272
 9705TIP3    H153310   5.539   3.614  11.029  0.2685  0.4683  0.0468
 9705TIP3    H253311   5.647   3.717  11.004  0.4710  0.0954 -0.6612
 9706TIP3   OH253312   0.158   0.082  10.556 -0.7627 -0.7141 -0.3131
 9706TIP3    H153313   0.213   0.011  10.524 -0.3247 -0.4332 -0.1952
 9706TIP3    H253314   0.185   0.094  10.647 -0.3554  0.0552 -0.5286
 9707TIP3   OH253315   1.277   4.719  10.931 -0.0397 -0.7276 -0.4750
 9707TIP3    H153316   1.217   4.759  10.868 -0.2779  0.5819  0.5376
 9707TIP3    H253317   1.220   4.664  10.985 -0.7758  1.9638  1.6945
 9708TIP3   OH253318   3.466   1.810  12.127  0.1215  0.0855 -0.4319
 9708TIP3    H153319   3.559   1.824  12.108  0.2332  1.0590  0.7182
 9708TIP3    H253320   3.421   1.877  12.076  0.1945  0.7670  0.3882
 9709TIP3   OH253321   1.029   1.040  12.397  0.1720 -0.1247 -0.1034
 9709TIP3    H153322   1.039   1.103  12.326  0.1194 -1.3182 -1.2176
 9709TIP3    H253323   1.104   1.057  12.455 -0.3128  1.4999  0.0993
 9710TIP3   OH253324   4.246   0.156  11.524  0.0928  0.2063  0.4732
 9710TIP3    H153325   4.338   0.159  11.498  0.1828 -0.6319  0.6469
 9710TIP3    H253326   4.205   0.227  11.476  0.7591  0.3395  0.0864
 9711TIP3   OH253327   2.537   0.043  11.386  0.2429  0.2683  0.2174
 9711TIP3    H153328   2.616  -0.001  11.418 -0.5726 -0.0736  1.8300
 9711TIP3    H253329   2.475   0.038  11.459 -2.3666 -2.0480 -1.9287
 9712TIP3   OH253330   5.926   4.492  10.450  0.1351 -0.5861 -0.5019
 9712TIP3    H153331   5.908   4.571  10.500 -0.6325 -0.3366 -1.1329
 9712TIP3    H253332   5.953   4.427  10.515  2.2244  0.5762 -0.1265
 9713TIP3   OH253333   4.585   1.557   9.617  0.2285  0.4715  0.0144
 9713TIP3    H153334   4.662   1.546   9.672  0.7511  1.5134 -0.4883
 9713TIP3    H253335   4.542   1.635   9.652 -1.0107 -0.4861  0.7408
 9714TIP3   OH253336   0.457   3.200  12.361  0.1471 -0.0131 -0.2914
 9714TIP3    H153337   0.393   3.264  12.394 -0.4306  0.3963 -2.1006
 9714TIP3    H253338   0.535   3.253  12.341 -0.9057  0.5159 -3.4176
 9715TIP3   OH253339   5.174   4.354  10.867 -0.4274 -0.3716 -0.4458
 9715TIP3    H153340   5.153   4.266  10.835  0.6490 -0.9715  0.4123
 9715TIP3    H253341   5.117   4.367  10.942  1.0412 -1.3508  0.9044
 9716TIP3   OH253342   3.415   1.396   9.834 -0.6086  0.5624 -0.0825
 9716TIP3    H153343   3.355   1.331   9.798 -2.0368  0.7497  1.7984
 9716TIP3    H253344   3.358   1.470   9.857  0.4996  1.1602  0.8238
 9717TIP3   OH253345   1.588   4.672  10.398  0.5703 -0.2774 -0.2365
 9717TIP3    H153346   1.645   4.695  10.471  0.1077  0.1475 -0.0119
 9717TIP3    H253347   1.640   4.693  10.320  0.1611  1.5754 -0.0453
 9718TIP3   OH253348   5.367   0.692  11.354 -0.0431 -0.0253  0.3269
 9718TIP3    H153349   5.357   0.637  11.431 -1.1737  0.3244  0.4411
 9718TIP3    H253350   5.413   0.636  11.290  2.1378  0.1122  1.6718
 9719TIP3   OH253351   5.876   5.419   9.101 -0.2479 -0.5685  0.4110
 9719TIP3    H153352   5.885   5.380   9.014 -2.1537  0.6609 -0.3989
 9719TIP3    H253353   5.831   5.353   9.153 -1.2615 -0.4087 -0.2467
 9720TIP3   OH253354   1.521   0.257  11.753 -0.0883  0.1014 -0.2916
 9720TIP3    H153355   1.508   0.164  11.738  0.7765 -0.0769  0.0199
 9720TIP3    H253356   1.577   0.286  11.681  0.3000  0.2092  0.0493
 9721TIP3   OH253357   5.799   0.369  10.129  0.0660  0.3570  0.6129
 9721TIP3    H153358   5.794   0.311  10.053  2.0219  2.2478 -1.1505
 9721TIP3    H253359   5.799   0.311  10.205  1.9176 -1.9818 -1.0124
 9722TIP3   OH253360   1.006   1.823  11.344  0.2374  0.3234 -0.0579
 9722TIP3    H153361   1.038   1.834  11.254  1.2691  0.1184  0.2702
 9722TIP3    H253362   0.974   1.909  11.369  2.4695  1.0986  0.3150
 9723TIP3   OH253363   5.070   2.764  11.084 -0.7803 -0.2256  0.5085
 9723TIP3    H153364   4.980   2.778  11.057 -0.8733  0.3173  1.0728
 9723TIP3    H253365   5.113   2.728  11.007 -0.9506  1.6050 -0.5090
 9724TIP3   OH253366   5.515   0.324   9.880 -0.5199  0.6198 -0.2302
 9724TIP3    H153367   5.500   0.360   9.967 -1.2803  1.9395 -0.8803
 9724TIP3    H253368   5.440   0.266   9.864 -2.2219  2.9628 -1.2890
 9725TIP3   OH253369   4.062   4.015  10.278 -0.3995 -0.5659 -0.6025
 9725TIP3    H153370   4.150   3.994  10.309  0.0925  2.3459  0.2173
 9725TIP3    H253371   4.003   3.977  10.343  0.2022 -2.0606 -0.8742
 9726TIP3   OH253372   6.005   1.366  12.852 -0.0781 -0.4488  0.1055
 9726TIP3    H153373   6.066   1.429  12.814  2.0060 -1.5184  1.4356
 9726TIP3    H253374   5.995   1.298  12.785 -0.2855  0.0274 -0.3472
 9727TIP3   OH253375   1.344   6.481  11.618  0.4193 -0.5521  0.3730
 9727TIP3    H153376   1.251   6.500  11.626  0.2140 -0.8972 -0.9021
 9727TIP3    H253377   1.352   6.388  11.637  0.6440 -0.3356  1.3691
 9728TIP3   OH253378   3.955   3.452  11.526 -0.2989  0.4052 -0.2754
 9728TIP3    H153379   4.010   3.521  11.489  0.4124  1.0248  1.8094
 9728TIP3    H253380   3.867   3.473  11.496  0.1278  1.3643 -0.8949
 9729TIP3   OH253381   0.491   0.656   9.526  0.2070  0.3940 -0.6414
 9729TIP3    H153382   0.550   0.598   9.574 -0.1347  0.5500 -0.0235
 9729TIP3    H253383   0.544   0.688   9.452  0.9890  0.7262  0.0397
 9730TIP3   OH253384   3.404   6.647   9.468  0.2021 -0.5486 -0.1793
 9730TIP3    H153385   3.383   6.556   9.486 -1.5374 -0.0977  0.1951
 9730TIP3    H253386   3.359   6.697   9.536  0.5552  0.6472 -0.7853
 9731TIP3   OH253387   5.534   6.004   9.536 -0.3723  0.7761  0.4409
 9731TIP3    H153388   5.538   5.909   9.543 -1.3589  0.8600  2.8832
 9731TIP3    H253389   5.543   6.021   9.442  0.4838 -1.6593  0.0034
 9732TIP3   OH253390   5.352   0.908  10.989 -0.2150  0.1322  0.0370
 9732TIP3    H153391   5.361   1.002  10.970 -0.1272 -0.1465 -1.3849
 9732TIP3    H253392   5.432   0.869  10.956 -1.2854 -0.7562 -1.6009
 9733TIP3   OH253393   6.468   6.462  11.663  0.4101 -0.2388  0.6739
 9733TIP3    H153394   6.420   6.490  11.585  0.3208 -1.3336  0.3154
 9733TIP3    H253395   6.413   6.394  11.701  1.6214 -1.4851  0.2853
 9734TIP3   OH253396   3.587   1.535   9.649 -0.5540  0.7570  0.0979
 9734TIP3    H153397   3.628   1.480   9.582  0.6219  0.0690  1.3219
 9734TIP3    H253398   3.515   1.483   9.683 -1.1534  1.1086 -0.6180
 9735TIP3   OH253399   6.139   4.355  12.786 -0.6774  0.5026  0.5485
 9735TIP3    H153400   6.164   4.447  12.794 -1.3598  0.6240  1.4932
 9735TIP3    H253401   6.050   4.357  12.751  0.8685  0.0480 -4.0753
 9736TIP3   OH253402   2.688   1.080  10.400 -0.0560  0.0208  0.2151
 9736TIP3    H153403   2.676   1.165  10.357 -1.1943 -0.5774 -0.7219
 9736TIP3    H253404   2.768   1.090  10.453  0.0044  1.5560 -0.1343
 9737TIP3   OH253405   5.168   1.718  10.787 -0.1597 -0.1244  0.2560
 9737TIP3    H153406   5.091   1.685  10.833 -1.6368  1.1730 -1.1616
 9737TIP3    H253407   5.135   1.750  10.704  1.6058  2.2077  0.3330
 9738TIP3   OH253408   2.976   6.222   9.919  0.2566 -0.1900 -0.1173
 9738TIP3    H153409   3.068   6.249   9.911  0.1697 -0.1208 -1.0789
 9738TIP3    H253410   2.978   6.127   9.910  0.1220 -0.0810 -1.5149
 9739TIP3   OH253411   3.352   0.708  12.068  0.2108  0.1123  0.4490
 9739TIP3    H153412   3.325   0.781  12.011 -0.6842 -0.4218  0.1664
 9739TIP3    H253413   3.403   0.750  12.137  0.7836  0.8538 -0.3977
 9740TIP3   OH253414   4.095   4.571   9.320  0.6667  0.4253 -0.7631
 9740TIP3    H153415   4.099   4.475   9.327  0.4717  0.3376 -1.7980
 9740TIP3    H253416   4.179   4.601   9.354  0.6540 -0.1012 -0.2515
 9741TIP3   OH253417   3.593   3.480  11.095  0.1036 -0.3940 -0.7212
 9741TIP3    H153418   3.573   3.519  11.010 -0.6999  0.3989 -0.1981
 9741TIP3    H253419   3.516   3.501  11.149 -0.0969 -2.2478 -0.2393
 9742TIP3   OH253420   4.854   4.381  10.747 -0.0103  0.2395  0.1995
 9742TIP3    H153421   4.895   4.428  10.820 -1.1003 -0.8725  1.5803
 9742TIP3    H253422   4.853   4.444  10.675  2.7395  0.7977  0.5315
 9743TIP3   OH253423   1.305   5.848   9.334 -0.0887  0.4005  0.0508
 9743TIP3    H153424   1.392   5.838   9.296  0.7180  1.8918  1.3768
 9743TIP3    H253425   1.314   5.922   9.395 -1.9849 -0.1798  1.1051
 9744TIP3   OH253426   2.611   1.753  10.331 -0.0600  0.0102 -0.9371
 9744TIP3    H153427   2.529   1.718  10.365  1.0991 -3.7733 -1.5520
 9744TIP3    H253428   2.585   1.827  10.277 -2.6156  1.4390  1.9482
 9745TIP3   OH253429   1.395   2.825  11.370 -0.5481  0.0093 -0.3375
 9745TIP3    H153430   1.425   2.875  11.446 -2.1142  0.4089  0.0554
 9745TIP3    H253431   1.458   2.754  11.362 -0.1105  0.2015  1.0912
 9746TIP3   OH253432   5.138   3.340  11.696  0.2371 -0.1037 -0.3537
 9746TIP3    H153433   5.092   3.415  11.733 -1.1410 -0.8422 -0.5022
 9746TIP3    H253434   5.231   3.358  11.711  0.0419  2.2479 -1.5502
 9747TIP3   OH253435   4.222   4.127  11.973 -0.2164  0.7521  0.0304
 9747TIP3    H153436   4.179   4.054  12.017 -2.4655  1.1968 -1.2880
 9747TIP3    H253437   4.178   4.205  12.006  1.8573  1.5564  1.0902
 9748TIP3   OH253438   5.110   4.611  10.436 -0.9917  0.3662 -0.1445
 9748TIP3    H153439   5.079   4.611  10.345 -1.6073  0.7608  0.0577
 9748TIP3    H253440   5.050   4.670  10.481 -1.2146 -0.4697  0.6948
 9749TIP3   OH253441   6.426   6.660  10.367  0.2904  0.1700 -0.0265
 9749TIP3    H153442   6.428   6.699  10.280  0.6934 -0.5078 -0.3252
 9749TIP3    H253443   6.509   6.686  10.407  1.4820 -1.9511 -0.9446
 9750TIP3   OH253444   5.790   5.974   9.700  0.3332 -0.2881 -0.0468
 9750TIP3    H153445   5.808   6.067   9.690 -0.0874 -0.0813  1.0007
 9750TIP3    H253446   5.701   5.964   9.667 -0.0450 -0.1020  0.8964
 9751TIP3   OH253447   3.394   5.655  10.150  0.0352 -0.1808 -0.0005
 9751TIP3    H153448   3.478   5.625  10.184  0.1754 -0.4539 -0.5679
 9751TIP3    H253449   3.357   5.710  10.220  0.2510 -0.8298  0.6289
 9752TIP3   OH253450   1.433   5.328  10.961 -0.1227  0.0544  0.3844
 9752TIP3    H153451   1.426   5.344  11.055 -0.5348  0.6000  0.2599
 9752TIP3    H253452   1.342   5.326  10.930  0.0462  1.2434 -0.2314
 9753TIP3   OH253453   0.606   2.338   9.355  0.7990 -0.0544 -0.1189
 9753TIP3    H153454   0.626   2.427   9.325  0.0673  0.3673  0.5851
 9753TIP3    H253455   0.608   2.344   9.451 -1.0019 -0.3551 -0.0249
 9754TIP3   OH253456   3.941   3.487   9.766  0.3313 -0.2910  0.2121
 9754TIP3    H153457   3.964   3.477   9.858 -0.9151 -0.6096  0.5056
 9754TIP3    H253458   3.945   3.399   9.730  0.0839 -0.2768  0.1475
 9755TIP3   OH253459   4.838   1.969  10.402  0.0936  0.6702 -0.5430
 9755TIP3    H153460   4.771   1.902  10.406  0.6352 -0.0093 -1.9363
 9755TIP3    H253461   4.859   1.989  10.493  0.9254 -2.0993 -0.0370
 9756TIP3   OH253462   1.536   0.313   9.287  0.2336 -0.2136  0.1050
 9756TIP3    H153463   1.443   0.291   9.294  0.1977  0.1762  0.9444
 9756TIP3    H253464   1.581   0.229   9.298  0.0007 -0.3151  0.2985
 9757TIP3   OH253465   2.105   5.005  10.725 -0.0047  0.2334  0.9951
 9757TIP3    H153466   2.069   5.069  10.664  0.0012  0.1838  0.9396
 9757TIP3    H253467   2.174   4.960  10.675 -0.8616 -0.6946  0.6164
 9758TIP3   OH253468   6.002   6.703  10.101 -0.2716  0.1921 -0.6203
 9758TIP3    H153469   6.050   6.651  10.036 -0.6927 -1.6169  0.4472
 9758TIP3    H253470   6.070   6.735  10.160 -0.1834 -0.9375 -0.0845
 9759TIP3   OH253471   5.173   4.629  10.853 -0.1959 -0.2510 -0.2055
 9759TIP3    H153472   5.197   4.538  10.840  1.0744  0.0368 -0.0360
 9759TIP3    H253473   5.223   4.677  10.787 -0.5487  0.3596 -0.0405
 9760TIP3   OH253474   0.900   1.854   9.785 -0.0454 -0.0463 -0.0297
 9760TIP3    H153475   0.983   1.902   9.790 -0.7759  1.4840 -1.4346
 9760TIP3    H253476   0.894   1.826   9.694 -1.3086  0.3526 -0.0901
 9761TIP3   OH253477   0.810   4.840  10.883 -0.1509 -0.1275  0.0041
 9761TIP3    H153478   0.891   4.858  10.836 -0.6423 -0.6858 -1.1141
 9761TIP3    H253479   0.768   4.926  10.891 -0.7368 -0.1790 -1.9444
 9762TIP3   OH253480   4.049   0.010  11.946  0.2179 -0.2811 -0.1035
 9762TIP3    H153481   4.014   0.003  11.857 -0.1183 -1.2731  0.0989
 9762TIP3    H253482   4.095  -0.072  11.960  3.2196  1.1806 -0.5735
 9763TIP3   OH253483   2.672   6.022  12.255 -0.7270  0.9134 -0.3201
 9763TIP3    H153484   2.679   6.101  12.308 -3.2037  2.5229 -2.1517
 9763TIP3    H253485   2.715   6.045  12.173 -1.6539  0.4434 -0.9454
 9764TIP3   OH253486   2.249   3.413  11.332  0.0498  0.1950  0.7519
 9764TIP3    H153487   2.251   3.367  11.416  0.6689  0.7598  1.0569
 9764TIP3    H253488   2.171   3.469  11.338  0.1354  0.2915  0.9851
 9765TIP3   OH253489   2.325   2.467  12.697 -0.0644  0.5785  0.1170
 9765TIP3    H153490   2.334   2.557  12.666  0.8492  0.7023  0.6674
 9765TIP3    H253491   2.294   2.476  12.787 -0.2009  0.3358  0.0944
 9766TIP3   OH253492   2.474   0.155  10.654 -0.3781  0.2349  0.5552
 9766TIP3    H153493   2.407   0.217  10.624  0.1839  0.0482 -1.1893
 9766TIP3    H253494   2.496   0.105  10.575  0.7687 -0.6883  1.4456
 9767TIP3   OH253495   5.700   3.801  11.873 -0.2285 -0.1902  0.2167
 9767TIP3    H153496   5.779   3.854  11.882 -0.5946  0.3161  0.5148
 9767TIP3    H253497   5.716   3.725  11.928  0.2514 -0.3297 -0.1112
 9768TIP3   OH253498   6.511   4.069   9.912  0.2441  0.3137 -0.7114
 9768TIP3    H153499   6.494   4.043  10.003  1.1357  1.8829 -0.0403
 9768TIP3    H253500   6.600   4.105   9.914  0.4942 -0.1312 -2.3453
 9769TIP3   OH253501   6.333   0.833   9.195 -0.7406 -0.0512 -0.3297
 9769TIP3    H153502   6.284   0.895   9.142 -2.2581  0.6851  1.7784
 9769TIP3    H253503   6.316   0.747   9.155 -0.3714  0.6217 -2.0104
 9770TIP3   OH253504   3.361   4.223  11.633 -0.1768 -0.5416  0.5107
 9770TIP3    H153505   3.372   4.158  11.702  0.5282 -1.8950 -0.8211
 9770TIP3    H253506   3.449   4.244  11.604 -0.4813 -0.5433 -0.4625
 9771TIP3   OH253507   2.216   4.116  11.388  0.3977 -0.1010  0.2422
 9771TIP3    H153508   2.226   4.021  11.385  0.2475 -0.1948  1.8280
 9771TIP3    H253509   2.221   4.144  11.297 -2.1736 -1.8886 -0.5599
 9772TIP3   OH253510   2.466   4.910  11.902  0.5367  0.0160  0.4018
 9772TIP3    H153511   2.456   4.816  11.918 -3.2564  0.2254  0.0942
 9772TIP3    H253512   2.465   4.919  11.807  1.9350  0.3390  0.3983
 9773TIP3   OH253513   0.536   2.034  11.593 -0.5685  0.7862  0.3871
 9773TIP3    H153514   0.469   1.966  11.588 -0.5621  0.6112  2.0575
 9773TIP3    H253515   0.567   2.030  11.683  0.2239  2.2599  0.2117
 9774TIP3   OH253516   1.470   3.257  10.877  0.3407  0.1965  0.4515
 9774TIP3    H153517   1.453   3.206  10.797  1.5623  1.7595 -0.8804
 9774TIP3    H253518   1.540   3.209  10.921  1.4615  0.6717 -0.7706
 9775TIP3   OH253519   1.190   5.549  12.156 -0.0775 -0.2142 -0.3518
 9775TIP3    H153520   1.232   5.623  12.201  0.7649 -0.6444 -0.4201
 9775TIP3    H253521   1.105   5.583  12.128  0.3541  0.7631 -0.4901
 9776TIP3   OH253522   4.615   3.876  11.862  0.2433 -0.2064  0.4185
 9776TIP3    H153523   4.590   3.811  11.927  0.9361 -0.2673  0.6274
 9776TIP3    H253524   4.532   3.915  11.834 -0.1165 -0.6938  0.7941
 9777TIP3   OH253525   0.169   1.274  11.536 -0.4793  0.3542 -0.1888
 9777TIP3    H153526   0.162   1.369  11.523  0.7930  0.5265  0.2446
 9777TIP3    H253527   0.238   1.247  11.475 -0.2295 -0.1451  0.3078
 9778TIP3   OH253528   5.676   2.057   9.345  0.1616 -1.0751  0.5145
 9778TIP3    H153529   5.745   2.119   9.368 -0.4108 -0.4280  0.4955
 9778TIP3    H253530   5.628   2.099   9.274  0.4405 -2.0194 -0.2741
 9779TIP3   OH253531   6.471   1.601   9.294 -0.3220 -0.0260 -0.2036
 9779TIP3    H153532   6.377   1.620   9.299 -0.4529  0.1671 -2.4723
 9779TIP3    H253533   6.512   1.686   9.277  0.2119 -0.2093  0.1326
 9780TIP3   OH253534   0.591   1.102  12.676  0.0723 -0.6576  0.2232
 9780TIP3    H153535   0.659   1.118  12.740  1.1424 -1.0665 -0.7672
 9780TIP3    H253536   0.637   1.062  12.602 -1.2280 -0.8554 -0.5108
 9781TIP3   OH253537   1.666   1.090  11.343 -0.3041  0.0481  0.5623
 9781TIP3    H153538   1.687   1.123  11.256 -0.3261 -1.7642 -0.1583
 9781TIP3    H253539   1.751   1.078  11.385 -0.2794  0.5286  0.6631
 9782TIP3   OH253540   0.226   2.966   9.231  0.0246  0.3719 -0.2716
 9782TIP3    H153541   0.299   2.946   9.289 -0.5694  0.6328  0.5890
 9782TIP3    H253542   0.216   3.061   9.237 -0.9546  0.2487  0.3498
 9783TIP3   OH253543   3.749   5.897  11.279 -0.1475  0.2123 -0.0936
 9783TIP3    H153544   3.753   5.818  11.225 -0.4388  0.4276 -0.4320
 9783TIP3    H253545   3.787   5.966  11.225  0.3048  0.2630  0.2836
 9784TIP3   OH253546   6.103   6.589  12.193 -0.2218 -0.6782 -0.0200
 9784TIP3    H153547   6.095   6.564  12.101  0.5280  1.0064 -0.5901
 9784TIP3    H253548   6.191   6.627  12.200 -0.5844 -0.0155  1.1880
 9785TIP3   OH253549   4.758   0.257  10.240  0.4357 -0.0601 -0.3063
 9785TIP3    H153550   4.693   0.191  10.214  1.1572 -0.4577 -1.1149
 9785TIP3    H253551   4.736   0.277  10.331 -0.6414 -0.4017 -0.4812
 9786TIP3   OH253552   2.045   4.315  12.502 -0.8343 -0.1558  0.2236
 9786TIP3    H153553   2.003   4.332  12.417 -0.7626  0.0421  0.2295
 9786TIP3    H253554   2.035   4.396  12.551 -0.0035  0.0683  0.0393
 9787TIP3   OH253555   0.794   3.269  10.818 -0.6120  0.4660 -0.1297
 9787TIP3    H153556   0.842   3.340  10.776 -0.8494 -0.8759 -2.8622
 9787TIP3    H253557   0.726   3.314  10.869 -1.6718  2.2720 -2.8884
 9788TIP3   OH253558   5.165   4.930  11.535  0.5628  0.5098 -0.2744
 9788TIP3    H153559   5.221   4.925  11.612  0.5252  0.3016 -0.2616
 9788TIP3    H253560   5.078   4.905  11.566  0.7674 -0.6621 -0.6192
 9789TIP3   OH253561   5.984   1.627  12.061 -0.5524  0.4016  0.2513
 9789TIP3    H153562   5.978   1.616  12.156  0.4751  1.2655  0.4407
 9789TIP3    H253563   5.896   1.610  12.029 -0.8914  0.0133  1.3565
 9790TIP3   OH253564   5.618   6.109  12.824 -0.1500 -0.1661  0.2885
 9790TIP3    H153565   5.575   6.042  12.876 -1.7280  0.3679 -0.2790
 9790TIP3    H253566   5.616   6.075  12.734 -2.4801  1.3063 -0.2814
 9791TIP3   OH253567   3.451   5.043  10.087  0.0291  0.4345  0.0745
 9791TIP3    H153568   3.373   5.094  10.103  0.5230  1.2420 -0.0404
 9791TIP3    H253569   3.524   5.101  10.110  0.7069  0.8343 -2.7067
 9792TIP3   OH253570   6.157   5.601  11.418  0.6495 -0.0211  0.1702
 9792TIP3    H153571   6.218   5.659  11.374  1.5224  0.1990  1.6053
 9792TIP3    H253572   6.165   5.517  11.372  2.1766 -0.0437  0.4506
 9793TIP3   OH253573   6.299   1.084  10.468  0.1056 -0.2854  0.1509
 9793TIP3    H153574   6.319   1.003  10.422 -0.8740 -0.5467  0.1685
 9793TIP3    H253575   6.384   1.125  10.483  0.6094 -1.3075  0.1435
 9794TIP3   OH253576   1.545   3.257  11.571 -0.4082 -0.5609  0.3920
 9794TIP3    H153577   1.501   3.243  11.655  0.4701 -0.8120  0.8181
 9794TIP3    H253578   1.492   3.324  11.528 -0.3142  0.3141  1.5755
 9795TIP3   OH253579   6.154   3.709  11.479  0.3271 -0.0623 -0.0133
 9795TIP3    H153580   6.078   3.742  11.526  0.6285 -0.5855  0.8588
 9795TIP3    H253581   6.142   3.741  11.389 -1.0199 -0.2930  0.0505
 9796TIP3   OH253582   2.874   4.927  12.168 -0.4217  0.5412 -0.4798
 9796TIP3    H153583   2.843   4.840  12.145 -0.2578  0.1889  0.5711
 9796TIP3    H253584   2.825   4.950  12.248  0.7521  0.6871  0.2286
 9797TIP3   OH253585   4.349   3.767  11.917  0.0015 -0.2183 -0.0356
 9797TIP3    H153586   4.306   3.683  11.932  0.9345 -0.7930 -0.4538
 9797TIP3    H253587   4.425   3.766  11.975  1.4233 -0.7637 -1.8145
 9798TIP3   OH253588   5.568   0.787  11.861  0.1809 -0.1975  0.8950
 9798TIP3    H153589   5.576   0.879  11.889  0.3383 -0.1352  0.6507
 9798TIP3    H253590   5.639   0.742  11.907  0.6442 -0.0351  0.3528
 9799TIP3   OH253591   4.534   4.546  11.184  0.4710  0.3006 -0.1897
 9799TIP3    H153592   4.493   4.539  11.270  1.7997 -1.9593  0.3488
 9799TIP3    H253593   4.484   4.487  11.129  0.7736  0.3125 -0.4788
 9800TIP3   OH253594   2.996   3.277   9.765  0.4304 -0.3868  0.0455
 9800TIP3    H153595   3.057   3.346   9.793  0.7093 -0.7290  0.2863
 9800TIP3    H253596   2.936   3.267   9.838  2.6838 -3.0764  1.7165
 9801TIP3   OH253597   4.813   6.250  12.029  0.6535 -0.2694 -0.6143
 9801TIP3    H153598   4.877   6.250  12.100  0.3030  2.6552 -0.2018
 9801TIP3    H253599   4.867   6.245  11.949  1.1657 -1.1996 -0.2292
 9802TIP3   OH253600   0.938   3.570   9.037 -0.0869  0.1882 -0.4319
 9802TIP3    H153601   1.007   3.571   9.103 -0.5006  0.5174 -0.0011
 9802TIP3    H253602   0.910   3.661   9.030 -1.9913 -0.2389  1.0045
 9803TIP3   OH253603   5.553   4.638  11.118 -0.6169 -0.2199 -0.0958
 9803TIP3    H153604   5.602   4.615  11.039 -1.8040  2.8126 -1.8897
 9803TIP3    H253605   5.478   4.579  11.118 -0.1510 -0.8301 -0.7285
 9804TIP3   OH253606   2.910   3.415  12.159  0.0658 -0.5367 -0.3897
 9804TIP3    H153607   2.969   3.440  12.229 -0.5172  3.7853 -1.1750
 9804TIP3    H253608   2.968   3.394  12.085  0.6027 -2.1783  0.4411
 9805TIP3   OH253609   3.382   2.904   9.737 -0.0794  0.1589 -0.2946
 9805TIP3    H153610   3.295   2.873   9.762 -1.1803  2.0867 -1.4560
 9805TIP3    H253611   3.372   2.932   9.646  2.5870 -2.4225 -1.5489
 9806TIP3   OH253612   4.378   6.442  10.937  0.6028  0.1719  0.6916
 9806TIP3    H153613   4.377   6.393  10.855  0.9022  1.2767  0.0116
 9806TIP3    H253614   4.291   6.482  10.943  0.8746  0.7972  0.4769
 9807TIP3   OH253615   2.095   0.412  10.852  0.2642  0.8965 -0.7984
 9807TIP3    H153616   2.170   0.448  10.900  0.3999  2.4358 -2.0944
 9807TIP3    H253617   2.040   0.488  10.832 -0.9727 -0.0331 -1.0285
 9808TIP3   OH253618   3.860   3.880   9.920  0.1644 -0.3389  0.5659
 9808TIP3    H153619   3.825   3.808   9.868 -1.7666  0.5452  0.5549
 9808TIP3    H253620   3.896   3.942   9.856  0.7204 -0.7263  0.5011
 9809TIP3   OH253621   5.993   6.133  11.202 -0.0038  0.4605  0.0963
 9809TIP3    H153622   6.064   6.171  11.254 -1.1455  1.8722  0.7093
 9809TIP3    H253623   5.999   6.178  11.117 -0.0809  0.4946  0.1087
 9810TIP3   OH253624   1.785   3.726  12.741  0.3652 -0.1348 -0.2308
 9810TIP3    H153625   1.867   3.706  12.785  0.2471  1.1807  0.6588
 9810TIP3    H253626   1.810   3.787  12.671  0.0264  1.2631  0.8280
 9811TIP3   OH253627   5.040   0.067   9.359  0.2814 -0.0138  0.3338
 9811TIP3    H153628   5.076   0.149   9.325 -0.5373  0.3895  0.4159
 9811TIP3    H253629   5.059   0.002   9.291  0.1327  0.4341 -0.1372
 9812TIP3   OH253630   5.316   4.315  10.150  0.3441  0.0187 -0.0753
 9812TIP3    H153631   5.227   4.325  10.183  0.2468  1.0681 -0.5931
 9812TIP3    H253632   5.360   4.395  10.178  1.2544 -0.6869  0.5496
 9813TIP3   OH253633   2.933   1.014  12.293  0.4518  0.3315  0.3015
 9813TIP3    H153634   2.995   0.987  12.226 -0.2957 -1.0382  0.1108
 9813TIP3    H253635   2.932   1.109  12.289  2.1405  0.3608 -0.0278
 9814TIP3   OH253636   6.401   4.382  11.809 -0.2499 -0.2081  0.7031
 9814TIP3    H153637   6.474   4.338  11.767 -0.5504  1.9331 -2.4362
 9814TIP3    H253638   6.442   4.441  11.872  0.6115 -0.3688  0.3091
 9815TIP3   OH253639   2.208   5.880  10.884 -0.6583 -0.4955  0.3599
 9815TIP3    H153640   2.172   5.861  10.970  0.2003 -1.3442  0.5437
 9815TIP3    H253641   2.228   5.974  10.887  0.1401 -0.6812  1.3825
 9816TIP3   OH253642   5.840   3.551   9.794  0.1906 -0.6542 -0.2129
 9816TIP3    H153643   5.792   3.587   9.868  0.2822 -0.7818 -0.0929
 9816TIP3    H253644   5.925   3.596   9.795  0.3289 -0.9160 -0.0261
 9817TIP3   OH253645   5.824   4.463  11.265 -0.1615 -0.2165 -0.6315
 9817TIP3    H153646   5.876   4.524  11.213  0.5319 -0.3949 -0.1631
 9817TIP3    H253647   5.753   4.436  11.206 -1.1843  1.9353 -0.4518
 9818TIP3   OH253648   5.097   4.298  10.515  0.0789  0.2460  0.0509
 9818TIP3    H153649   5.131   4.380  10.551 -0.2132  0.0377  0.8026
 9818TIP3    H253650   5.172   4.239  10.515  0.1570  0.3440  0.0074
 9819TIP3   OH253651   4.967   1.696  12.241  0.0210  0.7969  0.0913
 9819TIP3    H153652   4.973   1.601  12.249 -0.0226  0.9278  2.2084
 9819TIP3    H253653   5.010   1.730  12.320 -1.8028  2.4504  0.4636
 9820TIP3   OH253654   5.793   5.799  10.144  0.2562  0.2181  0.0123
 9820TIP3    H153655   5.868   5.742  10.127  0.8317  0.6095  1.1343
 9820TIP3    H253656   5.731   5.778  10.074  0.5413 -1.6115  0.2398
 9821TIP3   OH253657   6.116   3.406  10.069 -0.3170  0.2363  0.6025
 9821TIP3    H153658   6.179   3.419   9.998 -0.6211  0.9439  0.4534
 9821TIP3    H253659   6.170   3.406  10.149  0.1987 -1.9478  0.3095
 9822TIP3   OH253660   6.436   0.070  11.569  0.1566  0.3077  0.0699
 9822TIP3    H153661   6.424   0.003  11.503  0.4933  0.0456  0.2708
 9822TIP3    H253662   6.352   0.116  11.573  1.1489  2.7014 -3.0859
 9823TIP3   OH253663   5.529   2.276  11.802 -0.2205 -0.1046  0.1214
 9823TIP3    H153664   5.532   2.328  11.882 -0.6399  1.4953 -0.8562
 9823TIP3    H253665   5.554   2.337  11.732  0.3179 -1.4933 -0.9597
 9824TIP3   OH253666   4.002   5.093  12.055 -0.5995  0.7746  0.0497
 9824TIP3    H153667   4.067   5.098  12.126  1.4300 -0.8787 -1.5516
 9824TIP3    H253668   3.922   5.063  12.098  0.7311 -0.7784  1.5920
 9825TIP3   OH253669   2.555   2.851  10.537 -0.1941 -0.5900 -0.3331
 9825TIP3    H153670   2.556   2.917  10.607  2.9744 -1.7781  0.9588
 9825TIP3    H253671   2.566   2.901  10.457  0.9565  0.5856  0.5124
 9826TIP3   OH253672   1.926   4.738   9.843  0.6640  0.3859  0.3550
 9826TIP3    H153673   1.876   4.805   9.797  1.0404  0.8946  0.6807
 9826TIP3    H253674   1.867   4.663   9.847  0.2697  0.6680 -0.0828
 9827TIP3   OH253675   2.118   1.113  11.210  0.4349  0.2410 -0.3086
 9827TIP3    H153676   2.181   1.041  11.204 -0.2633 -0.3986 -0.2186
 9827TIP3    H253677   2.041   1.081  11.163 -0.5087  0.2420  1.1715
 9828TIP3   OH253678   0.728   3.451  11.906  0.3244  0.6397 -0.1676
 9828TIP3    H153679   0.735   3.455  12.001  0.1433  0.9409 -0.1657
 9828TIP3    H253680   0.774   3.371  11.882 -1.5928 -0.6822  0.3751
 9829TIP3   OH253681   2.886   2.617   9.980 -0.1081  0.0790 -0.4621
 9829TIP3    H153682   2.883   2.525  10.007 -1.9274  0.2834  0.1584
 9829TIP3    H253683   2.846   2.618   9.893  0.3387  0.2220 -0.6677
 9830TIP3   OH253684   2.324   5.806  10.633 -0.9484 -0.2700 -0.1249
 9830TIP3    H153685   2.290   5.838  10.717 -0.0000  1.5030 -0.3688
 9830TIP3    H253686   2.402   5.756  10.657  0.5913  2.0309 -0.0002
 9831TIP3   OH253687   1.529   2.900  11.819 -0.1809 -0.2275 -0.2386
 9831TIP3    H153688   1.451   2.913  11.873  0.0775 -1.9522  0.6249
 9831TIP3    H253689   1.602   2.930  11.873  0.0412 -1.6311  0.3019
 9832TIP3   OH253690   1.501   6.598   9.063  0.6783  0.4731 -0.2707
 9832TIP3    H153691   1.415   6.640   9.060  0.2213 -0.2482  1.4116
 9832TIP3    H253692   1.503   6.542   8.986 -1.4707 -1.4462  0.9555
 9833TIP3   OH253693   3.549   1.128  10.453  0.3383 -0.0946  0.1164
 9833TIP3    H153694   3.468   1.109  10.406  1.0129 -1.7286 -0.4710
 9833TIP3    H253695   3.618   1.103  10.391  1.2706 -0.4221  1.2606
 9834TIP3   OH253696   2.739   6.261  10.667  0.2233  0.0899  0.0273
 9834TIP3    H153697   2.763   6.352  10.651  0.3180 -0.1935 -1.6027
 9834TIP3    H253698   2.808   6.210  10.625 -0.1522 -0.7430  0.3921
 9835TIP3   OH253699   2.834   1.645  10.237 -0.4152 -0.2077 -0.1340
 9835TIP3    H153700   2.762   1.685  10.287 -1.1203 -0.3207 -1.0407
 9835TIP3    H253701   2.888   1.603  10.304 -1.5844 -0.7361  0.5166
 9836TIP3   OH253702   3.212   5.870  11.918  0.1542  0.3717  0.3609
 9836TIP3    H153703   3.199   5.965  11.920 -0.5328  0.4486 -2.8413
 9836TIP3    H253704   3.132   5.834  11.956 -0.8829  1.1015 -1.0472
 9837TIP3   OH253705   3.693   5.949  10.515 -0.0813 -0.1215 -0.5835
 9837TIP3    H153706   3.776   5.917  10.481  0.0261 -0.0018 -0.4361
 9837TIP3    H253707   3.628   5.921  10.450 -0.6999 -4.5133  1.5986
 9838TIP3   OH253708   4.602   0.036   9.976 -0.6954  0.2422  0.0123
 9838TIP3    H153709   4.542  -0.033  10.003 -1.3153  0.5553 -0.5271
 9838TIP3    H253710   4.594   0.038   9.881 -0.2889  0.6974 -0.0145
 9839TIP3   OH253711   3.302   2.151   9.378 -0.1849 -0.2895  0.2633
 9839TIP3    H153712   3.252   2.071   9.362 -0.1056 -0.0991 -1.0080
 9839TIP3    H253713   3.259   2.217   9.324 -0.3091  0.5625  1.3702
 9840TIP3   OH253714   0.121   2.919  10.447 -0.4732  0.7277  0.2881
 9840TIP3    H153715   0.109   2.824  10.437 -0.7129  0.8296 -0.4443
 9840TIP3    H253716   0.060   2.943  10.517  0.3055  0.1925  1.1750
 9841TIP3   OH253717   0.254   2.456  10.513  0.2654 -0.3424  0.6877
 9841TIP3    H153718   0.334   2.432  10.465  0.7069  2.6329 -0.2663
 9841TIP3    H253719   0.282   2.460  10.604  1.3286  0.9033  0.3404
 9842TIP3   OH253720   6.699   1.394  10.362  0.1452  0.4178 -0.4589
 9842TIP3    H153721   6.673   1.331  10.429 -1.4422 -0.2619 -1.6556
 9842TIP3    H253722   6.734   1.468  10.411 -1.1549  0.0309  1.1309
 9843TIP3   OH253723   4.202   0.998   9.934  0.3312  0.5383 -0.1841
 9843TIP3    H153724   4.133   1.056   9.902 -0.5231  0.1784  0.9604
 9843TIP3    H253725   4.278   1.020   9.879 -0.2830  1.9363 -0.5299
 9844TIP3   OH253726   5.270   2.088  12.114 -0.3101  0.1193  0.4728
 9844TIP3    H153727   5.175   2.097  12.120 -0.3831  0.7368 -1.0291
 9844TIP3    H253728   5.302   2.178  12.117  0.1837 -0.0534  0.4246
 9845TIP3   OH253729   5.678   6.441  10.311  0.1976  0.5196 -0.6870
 9845TIP3    H153730   5.610   6.412  10.250 -1.4243 -0.0495  1.3091
 9845TIP3    H253731   5.630   6.475  10.386  2.1248  0.5926  0.5688
 9846TIP3   OH253732   2.922   5.142   9.669 -0.0565  0.4292 -0.6248
 9846TIP3    H153733   3.008   5.116   9.637  0.1841 -0.9110  0.9798
 9846TIP3    H253734   2.911   5.232   9.638  1.2493  0.1262 -2.1230
 9847TIP3   OH253735   0.796   2.618  11.411 -0.4842 -0.0664  0.2423
 9847TIP3    H153736   0.876   2.569  11.393 -0.9294 -1.4179  1.7412
 9847TIP3    H253737   0.738   2.596  11.338 -0.4376 -1.2789  0.5458
 9848TIP3   OH253738   4.003   0.989  11.691 -0.7564  0.0801 -0.5952
 9848TIP3    H153739   4.086   1.026  11.718 -1.3925 -0.4293  2.4606
 9848TIP3    H253740   3.951   1.064  11.661  0.0673  0.7157 -0.4591
 9849TIP3   OH253741   5.226   1.356   9.204  0.5038  0.0061  0.0221
 9849TIP3    H153742   5.242   1.407   9.124 -0.5545  0.0288 -0.1979
 9849TIP3    H253743   5.247   1.416   9.275  0.2437  0.4127 -0.2405
 9850TIP3   OH253744   1.818   4.467  10.791 -0.6501  0.6149  0.0336
 9850TIP3    H153745   1.851   4.378  10.805  0.5075  0.9431 -0.4459
 9850TIP3    H253746   1.895   4.522  10.800 -1.6375  1.7668  1.9860
 9851TIP3   OH253747   2.342   2.454   9.881  0.2873 -0.2420  0.2964
 9851TIP3    H153748   2.258   2.501   9.881  0.8372  0.7841  0.0159
 9851TIP3    H253749   2.354   2.427   9.791  0.3013 -0.3111  0.3191
 9852TIP3   OH253750   0.452   2.923  12.458 -0.2304 -0.5889 -0.3041
 9852TIP3    H153751   0.443   3.016  12.441 -1.4041 -0.8937 -1.5252
 9852TIP3    H253752   0.524   2.916  12.521 -0.0034  1.1093 -0.3532
 9853TIP3   OH253753   1.058   2.760  11.030  0.2677  0.4850 -0.1861
 9853TIP3    H153754   1.122   2.815  11.076  1.7281 -1.1162 -0.2348
 9853TIP3    H253755   1.039   2.809  10.950  2.9928  0.1097 -1.1491
 9854TIP3   OH253756   3.498   2.096  11.280 -0.0994  0.8050  0.3184
 9854TIP3    H153757   3.485   2.191  11.291 -0.0768  0.8288  0.1473
 9854TIP3    H253758   3.526   2.087  11.189 -0.3757  0.6072  0.2522
 9855TIP3   OH253759   5.027   2.344   9.657  0.8937 -0.1820  0.5292
 9855TIP3    H153760   4.967   2.383   9.721 -1.7677  0.0210 -1.9204
 9855TIP3    H253761   5.090   2.296   9.711 -1.0440  0.1568  3.3352
 9856TIP3   OH253762   5.096   0.441  10.644 -0.4197  0.3842  0.3504
 9856TIP3    H153763   5.147   0.376  10.595  1.3929  1.1881  1.0455
 9856TIP3    H253764   5.027   0.468  10.583 -0.5675 -1.3781 -0.3349
 9857TIP3   OH253765   1.775   2.418  12.215  0.8124 -0.0751 -0.1604
 9857TIP3    H153766   1.751   2.356  12.284 -0.4003  1.1941  0.6253
 9857TIP3    H253767   1.855   2.459  12.246  0.5697  0.0982  0.2460
 9858TIP3   OH253768   2.604   5.402   9.618 -0.0447  0.1723 -0.4437
 9858TIP3    H153769   2.593   5.309   9.599 -1.1876  0.0857  0.5165
 9858TIP3    H253770   2.608   5.407   9.714 -1.6674  1.2436 -0.3815
 9859TIP3   OH253771   1.456   2.038  12.525 -0.0560 -0.0017 -0.0312
 9859TIP3    H153772   1.415   2.124  12.532  0.4780  0.3095 -0.7183
 9859TIP3    H253773   1.510   2.031  12.604  0.8407  0.8000 -0.5508
 9860TIP3   OH253774   1.604   3.988  10.844  0.1320  0.6363  0.4227
 9860TIP3    H153775   1.584   4.066  10.793  0.0543  0.3502  0.0138
 9860TIP3    H253776   1.556   4.000  10.926  0.1413  1.0268  0.3734
 9861TIP3   OH253777   5.025   5.420  11.175 -0.5150  0.6260  0.3467
 9861TIP3    H153778   5.108   5.468  11.173 -0.6736  0.8948 -1.0767
 9861TIP3    H253779   4.990   5.429  11.086 -1.2043 -1.0166  0.4193
 9862TIP3   OH253780   3.321   2.952  11.951  0.4314  0.3413  0.0715
 9862TIP3    H153781   3.297   2.996  12.033 -0.1604 -0.0284  0.1064
 9862TIP3    H253782   3.290   2.862  11.963 -1.5508  0.7542 -1.3502
 9863TIP3   OH253783   2.336   3.360   9.505  0.6555 -0.0476  0.0781
 9863TIP3    H153784   2.255   3.400   9.473  0.0958 -1.5297 -0.4672
 9863TIP3    H253785   2.402   3.429   9.497 -0.0748  0.5118 -1.6190
 9864TIP3   OH253786   6.608   0.405  11.902  0.0415 -0.3967  0.1386
 9864TIP3    H153787   6.582   0.495  11.880 -0.8458 -1.0561 -1.7815
 9864TIP3    H253788   6.525   0.360  11.918  0.3581 -1.2294 -0.5001
 9865TIP3   OH253789   0.986   4.054  10.465 -0.2391  0.0382 -0.0903
 9865TIP3    H153790   1.070   4.100  10.456 -0.1774 -0.3345 -1.7274
 9865TIP3    H253791   0.932   4.113  10.517  0.2642  1.4077 -1.0528
 9866TIP3   OH253792   4.196   0.461  10.118  0.4546 -0.1115  0.2702
 9866TIP3    H153793   4.267   0.441  10.057  0.3007 -1.8704  0.6248
 9866TIP3    H253794   4.127   0.500  10.063  0.3070 -1.6799 -0.7052
 9867TIP3   OH253795   3.477   1.764   9.784  0.1698 -0.3015 -0.7091
 9867TIP3    H153796   3.422   1.822   9.731  0.5656 -0.4416 -1.2756
 9867TIP3    H253797   3.498   1.691   9.726 -0.8526 -1.3560  0.1917
 9868TIP3   OH253798   3.197   1.438  11.779  0.6542  0.0664 -0.0611
 9868TIP3    H153799   3.196   1.460  11.686 -1.6345 -1.6346 -0.5546
 9868TIP3    H253800   3.188   1.522  11.824  0.9636  0.8430 -1.3980
 9869TIP3   OH253801   3.556   1.461  11.060 -0.4517 -0.9155 -0.4360
 9869TIP3    H153802   3.606   1.468  10.978 -1.8626  1.4683 -1.1867
 9869TIP3    H253803   3.622   1.472  11.129  0.3539  0.0812 -1.3382
 9870TIP3   OH253804   1.519   2.304   9.772 -0.0051 -0.5836  0.3933
 9870TIP3    H153805   1.578   2.379   9.770 -1.9565  1.0309 -1.2443
 9870TIP3    H253806   1.483   2.305   9.861  1.3492 -0.7645  0.9739
 9871TIP3   OH253807   1.424   3.151   9.456 -0.4013 -0.2070  0.2614
 9871TIP3    H153808   1.424   3.207   9.534 -2.0958  1.2595 -0.7269
 9871TIP3    H253809   1.403   3.064   9.489 -0.4695  0.2624  1.5200
 9872TIP3   OH253810   4.273   3.955  11.165 -0.7327 -0.3423  0.3402
 9872TIP3    H153811   4.317   3.993  11.241 -0.0097 -0.1094 -0.1808
 9872TIP3    H253812   4.259   3.863  11.189 -3.3141  0.3466  1.9830
 9873TIP3   OH253813   5.078   6.437   9.997  0.1226 -0.2070  0.4344
 9873TIP3    H153814   5.038   6.519   9.970 -0.1052 -0.1222  1.0101
 9873TIP3    H253815   5.030   6.412  10.076 -0.3433 -1.2978 -0.1682
 9874TIP3   OH253816   3.545   3.558  10.835 -0.3170  0.8589  0.2432
 9874TIP3    H153817   3.454   3.556  10.806 -0.2416  1.1733 -0.0300
 9874TIP3    H253818   3.595   3.549  10.754 -0.1038 -0.0972  0.4666
 9875TIP3   OH253819   4.594   6.632  10.953  0.0242 -0.3420  0.9523
 9875TIP3    H153820   4.668   6.584  10.915 -0.6200  1.0343 -2.4380
 9875TIP3    H253821   4.520   6.570  10.949 -0.0418 -0.2073 -0.1949
 9876TIP3   OH253822   4.486   4.649  11.768  0.1949 -0.1847  0.4083
 9876TIP3    H153823   4.497   4.712  11.840 -0.6246  0.6885 -0.2076
 9876TIP3    H253824   4.427   4.583  11.803 -2.1573  1.4939 -0.1775
 9877TIP3   OH253825   5.521   1.105  10.395 -0.9283 -0.5183  0.1322
 9877TIP3    H153826   5.578   1.134  10.323 -1.2128 -1.0961 -0.3371
 9877TIP3    H253827   5.488   1.186  10.433  0.6137 -0.1366  0.7576
 9878TIP3   OH253828   6.200   0.658  12.554 -0.0325 -0.0187  0.0793
 9878TIP3    H153829   6.139   0.623  12.618  1.8008 -0.5630  1.6314
 9878TIP3    H253830   6.205   0.752  12.573  1.0524 -0.2942  1.2769
 9879TIP3   OH253831   0.789   0.980   9.520  0.0976  0.5603  0.1319
 9879TIP3    H153832   0.713   0.939   9.478  0.6217 -0.1382 -0.1463
 9879TIP3    H253833   0.860   0.970   9.456  0.5220  0.8642  0.5508
 9880TIP3   OH253834   4.865   4.990  10.781 -0.0815 -0.3853 -0.1509
 9880TIP3    H153835   4.855   4.999  10.687 -0.2655 -1.5012 -0.2412
 9880TIP3    H253836   4.820   4.909  10.803 -0.0539 -0.1324  0.9003
 9881TIP3   OH253837   2.406   5.818  13.585 -0.4117  0.3282  0.0010
 9881TIP3    H153838   2.316   5.847  13.573 -0.1962  0.2699 -2.2193
 9881TIP3    H253839   2.414   5.739  13.532  0.8512  0.1146  0.4554
 9882TIP3   OH253840   2.313   6.093   9.904 -0.7783  0.3526 -0.1533
 9882TIP3    H153841   2.340   6.180   9.874 -0.0289 -0.2056 -1.1729
 9882TIP3    H253842   2.388   6.061   9.955 -1.2654  0.5037  0.6758
 9883TIP3   OH253843   3.141   1.563  10.376 -0.0984 -0.4226  0.1176
 9883TIP3    H153844   3.167   1.652  10.401  0.2018 -1.0972  2.4931
 9883TIP3    H253845   3.211   1.533  10.319 -0.2899  0.9009 -0.8648
 9884TIP3   OH253846   3.352   6.059   9.504 -0.0488 -0.1669  0.3680
 9884TIP3    H153847   3.362   6.000   9.579 -0.2611 -1.4035 -0.5337
 9884TIP3    H253848   3.437   6.100   9.494  0.4602 -1.1895  0.3362
 9885TIP3   OH253849   3.863   1.446  11.896 -0.1643 -0.2233  0.4691
 9885TIP3    H153850   3.954   1.438  11.869 -0.3814  1.3713 -0.8854
 9885TIP3    H253851   3.862   1.523  11.953 -0.8153  0.4305 -0.4010
 9886TIP3   OH253852   4.016   6.671  11.375  0.0301 -0.0430  0.1091
 9886TIP3    H153853   4.041   6.669  11.467  0.8294 -2.0076 -0.0939
 9886TIP3    H253854   4.009   6.579  11.350 -0.8454  0.4487 -1.6294
 9887TIP3   OH253855   1.497   3.214  11.851 -0.0803 -0.0908  0.5015
 9887TIP3    H153856   1.457   3.279  11.910  0.5387  0.0295  0.7943
 9887TIP3    H253857   1.574   3.183  11.898  0.2760 -0.1878 -0.1372
 9888TIP3   OH253858   4.557   0.177  11.756 -0.4135  0.3705 -0.1325
 9888TIP3    H153859   4.636   0.140  11.718 -2.0482 -1.8069 -1.7328
 9888TIP3    H253860   4.534   0.250  11.698  0.8806  1.6687  0.9185
 9889TIP3   OH253861   6.166   5.991  10.603 -0.5483  0.4147  0.2823
 9889TIP3    H153862   6.100   5.962  10.540 -0.8649 -1.9048  1.5885
 9889TIP3    H253863   6.197   6.075  10.568 -3.3932  1.0765 -0.9408
 9890TIP3   OH253864   4.033   6.395   9.594 -0.2511  0.1763 -0.0058
 9890TIP3    H153865   3.951   6.431   9.628 -1.0342  0.9198 -2.4804
 9890TIP3    H253866   4.007   6.318   9.544  0.4836  0.6266 -1.1174
 9891TIP3   OH253867   5.748   2.105  11.797 -0.6720 -0.1758 -0.5559
 9891TIP3    H153868   5.679   2.170  11.805 -0.4389  0.1096 -0.8589
 9891TIP3    H253869   5.751   2.062  11.883 -1.0346 -0.0010 -0.4559
 9892TIP3   OH253870   3.954   6.106  10.354  0.5443  0.2722  0.3675
 9892TIP3    H153871   3.946   6.012  10.338 -0.2147  0.5195 -0.8558
 9892TIP3    H253872   3.877   6.144  10.311  0.5607  1.4074  1.2992
 9893TIP3   OH253873   5.996   2.979  11.575 -1.0523  0.1930 -0.2534
 9893TIP3    H153874   6.073   3.025  11.609 -0.7474 -0.7938  0.4132
 9893TIP3    H253875   6.029   2.927  11.502 -0.9461 -0.7582  0.4610
 9894TIP3   OH253876   1.996   4.186  11.765 -0.2787  0.0575 -0.3499
 9894TIP3    H153877   1.994   4.128  11.689  0.4075  0.7907 -0.9500
 9894TIP3    H253878   2.090   4.197  11.783 -0.4043  0.8217 -0.1322
 9895TIP3   OH253879   2.952   5.065  10.978  0.5240  0.2320  0.1904
 9895TIP3    H153880   2.906   4.993  11.021  0.7731  0.5991  1.1130
 9895TIP3    H253881   2.922   5.063  10.887  0.0346 -0.6210  0.3642
 9896TIP3   OH253882   5.702   0.782  12.533 -0.0357 -0.8543  0.2622
 9896TIP3    H153883   5.726   0.702  12.580 -1.5152 -0.6177  1.5035
 9896TIP3    H253884   5.616   0.806  12.569  1.3021  2.5544  1.6501
 9897TIP3   OH253885   1.514   6.586  12.104 -0.1720  0.8508 -0.1516
 9897TIP3    H153886   1.473   6.608  12.188 -0.3667  0.8399 -0.2430
 9897TIP3    H253887   1.519   6.490  12.105 -0.6498  0.8216 -0.3739
 9898TIP3   OH253888   5.111   0.893  10.060 -1.0200 -0.3976  0.2051
 9898TIP3    H153889   5.063   0.833  10.117  0.9251  0.7589  3.3148
 9898TIP3    H253890   5.124   0.971  10.114  3.1193 -0.1234 -0.9081
 9899TIP3   OH253891   0.177   2.129  10.134 -0.0673 -0.5357 -0.0989
 9899TIP3    H153892   0.104   2.136  10.072 -1.2110  0.9379  1.3304
 9899TIP3    H253893   0.147   2.177  10.212  3.0240  1.4643  0.0011
 9900TIP3   OH253894   1.950   5.548  11.553  0.0424 -0.2643 -0.5977
 9900TIP3    H153895   1.932   5.606  11.479 -0.8062  0.1024 -0.1054
 9900TIP3    H253896   1.942   5.603  11.630 -1.5489 -1.1825 -0.0605
 9901TIP3   OH253897   0.810   4.599   9.251  0.0314  0.1797 -0.2848
 9901TIP3    H153898   0.772   4.598   9.163  0.1777  0.3252 -0.3501
 9901TIP3    H253899   0.797   4.688   9.282  1.1073  0.4852 -0.6546
 9902TIP3   OH253900   0.458   0.239  11.254  0.7519 -0.1089  0.3268
 9902TIP3    H153901   0.430   0.330  11.257  0.8410 -0.0840  0.3756
 9902TIP3    H253902   0.383   0.190  11.290  0.0367 -0.2067 -1.2224
 9903TIP3   OH253903   0.830   3.101  10.603 -0.1275  0.0971 -0.2043
 9903TIP3    H153904   0.783   3.163  10.659 -0.7413  0.2376 -0.8689
 9903TIP3    H253905   0.922   3.117  10.623 -0.3477 -0.6843  1.6505
 9904TIP3   OH253906   0.811   3.352   8.908 -0.2123 -0.4638  0.0705
 9904TIP3    H153907   0.865   3.419   8.950 -0.4393 -0.3723  0.2204
 9904TIP3    H253908   0.735   3.401   8.875  0.7915 -0.2070 -2.0442
 9905TIP3   OH253909   6.498   3.468  11.134  0.4028  0.0620  0.2576
 9905TIP3    H153910   6.453   3.546  11.101  0.9876  0.1569 -0.3306
 9905TIP3    H253911   6.576   3.502  11.178  1.2599 -0.2291 -0.9774
 9906TIP3   OH253912   6.250   5.923   9.524  0.5912 -0.5288  0.0132
 9906TIP3    H153913   6.217   5.925   9.434  2.8364  0.4988 -0.8605
 9906TIP3    H253914   6.245   6.014   9.553 -0.8797 -0.9627  1.2987
 9907TIP3   OH253915   4.771   2.919  10.295  0.2998 -0.1190 -0.1898
 9907TIP3    H153916   4.741   2.867  10.220  1.6041  0.4652 -1.1497
 9907TIP3    H253917   4.726   3.003  10.285 -0.9227 -0.6405  0.7216
 9908TIP3   OH253918   6.058   2.923  10.710  0.1860 -0.2057 -0.2927
 9908TIP3    H153919   6.040   2.978  10.634  1.2264  0.2937 -0.1960
 9908TIP3    H253920   6.062   2.834  10.675  0.2077 -0.0287 -0.7430
 9909TIP3   OH253921   0.318   3.453  12.399  0.4099 -0.1374 -0.0074
 9909TIP3    H153922   0.263   3.466  12.477  0.7052  2.3048 -0.1413
 9909TIP3    H253923   0.332   3.541  12.364  2.8687 -0.8634 -1.0612
 9910TIP3   OH253924   4.802   4.395   9.743 -0.1390  0.9933  0.0025
 9910TIP3    H153925   4.785   4.320   9.800 -3.0770  3.2146  2.4518
 9910TIP3    H253926   4.896   4.409   9.748  0.0747 -0.6604  2.0363
 9911TIP3   OH253927   0.726   1.371  12.076 -0.1850  0.2296  0.4666
 9911TIP3    H153928   0.798   1.372  12.139 -0.4783 -3.3593  1.0944
 9911TIP3    H253929   0.656   1.421  12.119 -0.3703 -2.0473  3.1488
 9912TIP3   OH253930   3.214   4.786  11.328 -0.3010  0.3705  0.2026
 9912TIP3    H153931   3.193   4.780  11.235  1.9919 -2.5462 -0.2776
 9912TIP3    H253932   3.270   4.863  11.335 -0.0345  0.2997 -0.9497
 9913TIP3   OH253933   4.108   1.404  11.709 -0.1737  0.1725  0.1990
 9913TIP3    H153934   4.116   1.379  11.617 -3.7150 -1.8500  0.2677
 9913TIP3    H253935   4.175   1.352  11.754  2.0778  1.7169 -1.2204
 9914TIP3   OH253936   2.638   3.102  11.074  0.3520  0.3108  0.6088
 9914TIP3    H153937   2.544   3.103  11.087  0.0157 -1.2345 -1.2003
 9914TIP3    H253938   2.675   3.099  11.162 -1.3009  0.2369  1.3327
 9915TIP3   OH253939   3.642   3.094  12.043 -0.1310 -0.5404  0.3258
 9915TIP3    H153940   3.642   3.060  12.133 -0.3633 -0.3313  0.4068
 9915TIP3    H253941   3.573   3.161  12.043  0.0331 -0.3706  0.0557
 9916TIP3   OH253942   3.854   4.127   9.332 -0.3961 -0.1985 -0.7372
 9916TIP3    H153943   3.772   4.176   9.329  0.1222  0.6695 -1.3027
 9916TIP3    H253944   3.831   4.043   9.373 -1.2667  0.5768  0.4192
 9917TIP3   OH253945   0.415   1.940   9.402 -0.1293  0.4193 -0.3819
 9917TIP3    H153946   0.366   1.858   9.411 -0.0982  0.4800  0.3883
 9917TIP3    H253947   0.480   1.937   9.472 -0.4800  1.3553 -0.0048
 9918TIP3   OH253948   1.916   3.939  12.587  0.2055 -0.3466  0.1258
 9918TIP3    H153949   1.890   4.018  12.634  0.5293  0.4234 -0.9614
 9918TIP3    H253950   2.009   3.951  12.568  0.3011 -1.0734  0.1031
 9919TIP3   OH253951   2.542   1.179  10.104 -0.0873 -0.3438  0.1390
 9919TIP3    H153952   2.490   1.110  10.062 -0.1198  0.1804 -0.6891
 9919TIP3    H253953   2.601   1.210  10.036 -0.8958  1.2745  0.1477
 9920TIP3   OH253954   1.053   1.558   9.604 -0.0091 -0.0942 -0.4910
 9920TIP3    H153955   1.139   1.571   9.564  0.6846 -0.9296  0.6766
 9920TIP3    H253956   1.004   1.636   9.579  1.5256  1.0569 -0.0863
 9921TIP3   OH253957   2.346   4.646  11.182  0.7873  0.0947  0.4624
 9921TIP3    H153958   2.395   4.566  11.202  2.3052  0.3769 -1.7889
 9921TIP3    H253959   2.264   4.636  11.230  1.2120 -2.4805  0.8131
 9922TIP3   OH253960   6.151   2.813  11.116 -0.6344 -0.4817  0.2466
 9922TIP3    H153961   6.180   2.738  11.169 -1.2031 -1.1080 -0.3129
 9922TIP3    H253962   6.157   2.888  11.176  0.0745 -0.9435  0.7734
 9923TIP3   OH253963   4.610   1.085  11.886  0.2441  0.3774  0.2910
 9923TIP3    H153964   4.600   1.177  11.863  0.9629  0.0104 -1.7052
 9923TIP3    H253965   4.639   1.043  11.805 -0.8562 -1.7505  0.9238
 9924TIP3   OH253966   0.257   5.496  12.086  0.2049  0.4708  0.1030
 9924TIP3    H153967   0.192   5.495  12.156  0.1797 -1.3390  0.0887
 9924TIP3    H253968   0.338   5.467  12.128  0.1855 -0.6670 -0.6012
 9925TIP3   OH253969   0.669   0.098   9.107 -0.3669 -0.0834  0.5859
 9925TIP3    H153970   0.604   0.076   9.040 -0.1461  0.6547  0.1173
 9925TIP3    H253971   0.664   0.027   9.170  0.4193 -1.5422 -0.9265
 9926TIP3   OH253972   2.629   0.804  10.363  0.0780 -0.4192  0.4789
 9926TIP3    H153973   2.615   0.778  10.272  1.4640 -0.7018  0.3245
 9926TIP3    H253974   2.655   0.896  10.357  1.5200 -0.8067  0.4442
 9927TIP3   OH253975   2.041   0.616  12.041 -0.0157  0.0722 -0.2955
 9927TIP3    H153976   2.048   0.571  12.125  1.1574 -1.5979 -1.2220
 9927TIP3    H253977   2.086   0.699  12.054  0.3140 -0.2452  0.6631
 9928TIP3   OH253978   5.231   5.599   8.848 -0.1430 -0.2067 -0.0316
 9928TIP3    H153979   5.142   5.570   8.866 -0.6046 -0.0536 -1.9218
 9928TIP3    H253980   5.286   5.523   8.869 -0.8832 -0.8665 -0.4345
 9929TIP3   OH253981   5.105   2.194  11.777 -0.1001  0.5441 -0.2378
 9929TIP3    H153982   5.110   2.262  11.844  1.5910  0.1270  0.1112
 9929TIP3    H253983   5.194   2.159  11.772 -0.9180 -1.7135 -0.3165
 9930TIP3   OH253984   4.579   1.363  11.890 -0.6654 -0.7412 -0.3576
 9930TIP3    H153985   4.567   1.335  11.981  3.3173 -0.2342  0.5267
 9930TIP3    H253986   4.613   1.453  11.897  0.0210 -0.8017 -2.3061
 9931TIP3   OH253987   4.256   6.629  11.240 -0.6540 -0.3689  0.1261
 9931TIP3    H153988   4.181   6.672  11.281  0.2319  0.3855  1.0081
 9931TIP3    H253989   4.275   6.554  11.298  0.0209  0.1579  0.6046
 9932TIP3   OH253990   6.563   0.352  11.497  0.0282  0.0634  0.0476
 9932TIP3    H153991   6.486   0.389  11.541  0.2260  1.3461 -0.6305
 9932TIP3    H253992   6.532   0.268  11.463 -1.0093  0.4332  0.0153
 9933TIP3   OH253993   5.781   0.607  11.925  0.5528  0.6703 -0.3138
 9933TIP3    H153994   5.820   0.645  12.003  0.6220  0.3805 -0.2055
 9933TIP3    H253995   5.838   0.635  11.853 -0.3343  2.1888 -0.4772
 9934TIP3   OH253996   5.077   0.359   9.495  0.5387  0.1563  0.6839
 9934TIP3    H153997   5.093   0.453   9.507 -0.9223  0.7381 -1.3331
 9934TIP3    H253998   5.132   0.335   9.421  0.4397 -0.4415  0.8031
 9935TIP3   OH253999   0.920   5.794  10.743  0.5635 -0.1629  0.2256
 9935TIP3    H154000   0.982   5.733  10.783  0.3235  0.9127  2.3885
 9935TIP3    H254001   0.842   5.788  10.798  0.1716  1.3333 -0.1173
 9936TIP3   OH254002   2.594   0.494  11.978 -0.5537 -0.1413  0.1604
 9936TIP3    H154003   2.560   0.568  12.030 -0.7687  0.5971 -0.9984
 9936TIP3    H254004   2.556   0.417  12.020  0.1207  0.3433  1.7389
 9937TIP3   OH254005   1.629   0.391  10.547  0.2197  0.5454 -0.1380
 9937TIP3    H154006   1.642   0.469  10.600 -0.2183 -0.8078  2.0863
 9937TIP3    H254007   1.715   0.348  10.546  0.0893  0.2832 -0.0757
 9938TIP3   OH254008   4.762   0.650   9.874  0.0816 -0.0184 -0.6051
 9938TIP3    H154009   4.851   0.619   9.857  0.2204 -0.6878  1.0718
 9938TIP3    H254010   4.709   0.611   9.805  0.9430 -0.3989 -1.0714
 9939TIP3   OH254011   2.186   3.070  11.256 -0.0854 -0.1713  0.0054
 9939TIP3    H154012   2.208   3.126  11.330 -1.6671 -0.3495  0.6542
 9939TIP3    H254013   2.094   3.088  11.238 -0.1757 -1.3269 -0.8714
 9940TIP3   OH254014   0.003   3.300  10.606 -0.3922  0.2064 -0.3298
 9940TIP3    H154015   0.084   3.351  10.596 -0.1239 -0.2897 -0.7264
 9940TIP3    H254016   0.033   3.213  10.635 -0.8154  0.1474 -0.0599
 9941TIP3   OH254017   4.408   6.351  12.965 -0.0601  0.6613 -0.4007
 9941TIP3    H154018   4.333   6.292  12.959  0.3866 -0.0845  0.7466
 9941TIP3    H254019   4.371   6.439  12.961 -0.8562  0.3086 -1.0695
 9942TIP3   OH254020   0.542   4.038  11.417 -0.1973 -0.1830 -0.0547
 9942TIP3    H154021   0.483   3.978  11.372 -1.1261  0.4521  0.2748
 9942TIP3    H254022   0.488   4.077  11.486 -0.1588  2.3902 -1.3864
 9943TIP3   OH254023   6.435   2.604  10.055  0.1377  0.2598  0.5809
 9943TIP3    H154024   6.514   2.559  10.084  2.2039  2.2251 -1.5344
 9943TIP3    H254025   6.389   2.541   9.999  0.8589 -0.4982  0.8271
 9944TIP3   OH254026   5.926   5.178  10.215 -0.3880 -0.6656 -0.2107
 9944TIP3    H154027   5.838   5.184  10.178 -0.1232  0.1635 -0.7460
 9944TIP3    H254028   5.912   5.182  10.310 -0.8921  0.1916 -0.3050
 9945TIP3   OH254029   5.439   2.991  11.588  0.3615 -0.5001 -0.4479
 9945TIP3    H154030   5.423   2.908  11.543 -0.9711 -0.7424  0.4143
 9945TIP3    H254031   5.361   3.044  11.570  0.8030  0.2404 -0.2555
 9946TIP3   OH254032   2.104   0.091  12.198  0.6739 -0.1233 -0.1399
 9946TIP3    H154033   2.063   0.103  12.284 -0.8956  1.5655 -1.0515
 9946TIP3    H254034   2.133  -0.000  12.198 -0.3902 -0.5101  1.7218
 9947TIP3   OH254035   4.266   2.591  12.015 -0.0602  0.5889 -1.0268
 9947TIP3    H154036   4.287   2.507  11.975  1.0040  0.9297 -1.1950
 9947TIP3    H254037   4.350   2.626  12.045 -0.3671  1.9411 -1.6463
 9948TIP3   OH254038   2.457   0.692   9.122 -0.3349  0.0311 -0.5435
 9948TIP3    H154039   2.536   0.643   9.146 -0.0701  1.6317  2.3301
 9948TIP3    H254040   2.386   0.628   9.130  0.2887 -0.5639  0.4027
 9949TIP3   OH254041   1.846   6.447  10.166  0.3623  0.1740  0.3379
 9949TIP3    H154042   1.754   6.429  10.184  0.2113 -1.0244 -1.3750
 9949TIP3    H254043   1.885   6.361  10.150  1.3368  0.7952 -0.7945
 9950TIP3   OH254044   4.924   4.479  11.545 -0.2182 -0.7714  0.0980
 9950TIP3    H154045   4.999   4.515  11.593 -0.4844  0.8986 -0.6785
 9950TIP3    H254046   4.950   4.486  11.453 -1.9640  1.5044 -0.3083
 9951TIP3   OH254047   1.247   1.922  10.263 -0.4716 -0.3174 -0.6532
 9951TIP3    H154048   1.309   1.968  10.206 -0.1258  0.4990  0.3599
 9951TIP3    H254049   1.254   1.830  10.237  0.5499 -0.1238 -1.1091
 9952TIP3   OH254050   4.037   3.513  10.670 -0.0933  0.0450  0.2152
 9952TIP3    H154051   4.014   3.601  10.701 -2.0131  0.5180 -2.1718
 9952TIP3    H254052   4.000   3.509  10.581  0.8911 -2.8099 -0.1723
 9953TIP3   OH254053   5.290   3.461  10.720  0.3417 -0.7437  0.0313
 9953TIP3    H154054   5.248   3.477  10.636 -0.7427 -0.8958  0.5297
 9953TIP3    H254055   5.219   3.434  10.778  1.2133 -1.5651  0.7534
 9954TIP3   OH254056   0.131   3.865  12.678 -0.1248 -0.2185  0.1507
 9954TIP3    H154057   0.047   3.842  12.639 -0.2867  1.4533 -0.5671
 9954TIP3    H254058   0.123   3.835  12.769 -1.7415  0.4306  0.2667
 9955TIP3   OH254059   1.390   1.314  11.992  0.3271  0.1629  0.1051
 9955TIP3    H154060   1.340   1.378  11.941 -0.1708 -0.1326  0.2224
 9955TIP3    H254061   1.433   1.366  12.060 -2.0570  0.1211  1.7889
 9956TIP3   OH254062   1.659   0.092  12.670  0.4647  0.3080  0.1619
 9956TIP3    H154063   1.660   0.045  12.587 -0.7662 -0.5309  0.5798
 9956TIP3    H254064   1.668   0.184  12.646 -1.6369  0.2694 -1.0965
 9957TIP3   OH254065   2.968   2.463  11.715 -0.0011  0.2672  0.4767
 9957TIP3    H154066   2.930   2.464  11.803 -2.8743  1.3759 -0.6656
 9957TIP3    H254067   2.978   2.370  11.694 -0.3023 -0.0203  1.5562
 9958TIP3   OH254068   1.123   0.515  11.458  0.3119 -0.5019  0.1257
 9958TIP3    H154069   1.202   0.462  11.470  0.7244  0.0395 -0.1293
 9958TIP3    H254070   1.155   0.598  11.422 -0.4248 -0.4846 -0.5380
 9959TIP3   OH254071   3.168   0.206  10.254 -0.4750 -0.2094  0.3530
 9959TIP3    H154072   3.248   0.170  10.292 -1.4073 -0.1946  2.4879
 9959TIP3    H254073   3.113   0.129  10.236  0.7046 -0.4223 -3.1086
 9960TIP3   OH254074   2.579   1.486  12.856 -0.0838  0.3984 -0.2864
 9960TIP3    H154075   2.570   1.580  12.842 -0.5258  0.3352 -0.4593
 9960TIP3    H254076   2.672   1.468  12.842  0.2685  1.0193  1.1310
 9961TIP3   OH254077   3.010   1.532   9.868  0.3529  0.3883  0.2692
 9961TIP3    H154078   3.038   1.473   9.938 -0.6379 -0.0688  0.2847
 9961TIP3    H254079   3.040   1.618   9.897  0.4023  0.1314  1.0052
 9962TIP3   OH254080   4.122   2.531  10.631 -0.0019 -0.0309 -0.1806
 9962TIP3    H154081   4.073   2.609  10.606 -1.3632 -0.0251  2.2354
 9962TIP3    H254082   4.206   2.564  10.663 -0.6782  0.5284  1.0996
 9963TIP3   OH254083   0.489   0.108  10.624 -0.1319 -0.5113  0.0298
 9963TIP3    H154084   0.443   0.175  10.674 -0.4973 -0.4925 -0.3226
 9963TIP3    H254085   0.578   0.140  10.617 -0.2584 -0.1548  0.0297
 9964TIP3   OH254086   6.420   2.212   9.600 -0.1487  0.5229  0.2984
 9964TIP3    H154087   6.398   2.231   9.508  1.1265 -0.3202 -0.1961
 9964TIP3    H254088   6.370   2.133   9.621  1.3715 -0.6796 -0.4439
 9965TIP3   OH254089   1.244   1.163  12.489 -0.2730 -0.0556 -0.3669
 9965TIP3    H154090   1.209   1.220  12.421  1.0730 -0.9419 -1.8806
 9965TIP3    H254091   1.314   1.214  12.530  1.1229 -0.6228 -1.9099
 9966TIP3   OH254092   3.496   2.199   9.646  0.1326  0.1935  0.2364
 9966TIP3    H154093   3.405   2.196   9.616 -0.3518  0.3453  1.6455
 9966TIP3    H254094   3.492   2.170   9.737  1.6268 -0.7164  0.0445
 9967TIP3   OH254095   1.573   4.839   9.469 -0.0370  0.3030  0.2110
 9967TIP3    H154096   1.593   4.841   9.376 -1.3815  0.5022 -0.0886
 9967TIP3    H254097   1.574   4.746   9.491 -1.8085  0.0762 -0.5050
 9968TIP3   OH254098   0.748   1.499  10.896 -0.1422  0.0693 -0.0405
 9968TIP3    H154099   0.761   1.404  10.906  2.0262  0.3815  0.6126
 9968TIP3    H254100   0.828   1.530  10.854 -1.0083  1.5814 -0.6608
 9969TIP3   OH254101   0.704   5.076  11.076 -0.1042  0.4581  0.6304
 9969TIP3    H154102   0.648   5.092  11.000  0.6513 -0.6117 -0.1843
 9969TIP3    H254103   0.665   5.000  11.120  1.4165 -1.2011 -0.7366
 9970TIP3   OH254104   5.979   5.297   9.552  0.3008  0.2561  0.5334
 9970TIP3    H154105   6.041   5.362   9.521  0.6155 -1.0794 -1.8948
 9970TIP3    H254106   6.033   5.222   9.577 -0.2373 -0.6754 -0.9635
 9971TIP3   OH254107   5.558   3.945  12.304  0.2452 -0.7531  0.5380
 9971TIP3    H154108   5.652   3.946  12.320  0.0776  3.7255  2.8923
 9971TIP3    H254109   5.549   3.978  12.215  0.9817  0.9730  1.0542
 9972TIP3   OH254110   2.202   6.317  12.686  0.0358  0.3230 -0.1652
 9972TIP3    H154111   2.294   6.294  12.699 -0.0317  0.9310  1.6896
 9972TIP3    H254112   2.160   6.298  12.771 -0.9885  2.5412 -0.1082
 9973TIP3   OH254113   1.486   3.544  11.838  0.3359 -0.3780  0.7895
 9973TIP3    H154114   1.486   3.637  11.861 -2.5079 -0.5703  1.9760
 9973TIP3    H254115   1.495   3.543  11.742  1.2766  1.0315  0.8380
 9974TIP3   OH254116   5.999   4.928  11.174 -0.1620 -0.3588  0.2893
 9974TIP3    H154117   5.966   4.957  11.259 -0.1869 -0.9789  0.4924
 9974TIP3    H254118   6.093   4.948  11.177 -0.2723  0.2105  0.2064
 9975TIP3   OH254119   1.135   1.475   9.937  0.3173 -0.6243  0.5484
 9975TIP3    H154120   1.068   1.410   9.956  1.0062 -0.4539  4.4896
 9975TIP3    H254121   1.103   1.556   9.977  1.0875  0.5770 -1.1187
 9976TIP3   OH254122   0.643   3.283  10.345 -0.6171 -0.0924  0.5479
 9976TIP3    H154123   0.617   3.309  10.257 -0.3957  0.9537  0.7851
 9976TIP3    H254124   0.567   3.234  10.378 -0.8774 -0.1052 -0.0520
 9977TIP3   OH254125   2.417   3.055   9.741 -0.6839 -0.5489 -0.0845
 9977TIP3    H154126   2.472   3.023   9.813 -0.6686 -1.0751 -0.3205
 9977TIP3    H254127   2.414   3.150   9.753  0.4143 -0.4914 -0.1671
 9978TIP3   OH254128   2.355   4.373   9.351 -0.0867  0.1860 -0.4211
 9978TIP3    H154129   2.292   4.391   9.421  0.8211  0.2406  0.4076
 9978TIP3    H254130   2.314   4.409   9.272 -1.1745  0.0381  0.0548
 9979TIP3   OH254131   3.555   5.482  12.802  0.1835  0.7163  0.4260
 9979TIP3    H154132   3.609   5.430  12.862 -0.9809  0.0966  0.9629
 9979TIP3    H254133   3.617   5.544  12.763  1.1423  0.5436  1.5919
 9980TIP3   OH254134   0.635   3.391  12.419 -0.3217  0.1982  0.2349
 9980TIP3    H154135   0.571   3.401  12.489  0.0074 -0.7300  0.6733
 9980TIP3    H254136   0.714   3.357  12.462 -0.2948 -0.9197 -0.6645
 9981TIP3   OH254137   6.680   0.859  12.320 -0.1292 -0.5140  0.6280
 9981TIP3    H154138   6.704   0.840  12.229  0.0343 -0.0164  0.5607
 9981TIP3    H254139   6.593   0.820  12.330 -0.7575  0.6139 -0.1754
 9982TIP3   OH254140   0.122   4.907   9.830 -0.1169  0.1521  0.4646
 9982TIP3    H154141   0.135   4.822   9.788  1.9473  1.1484 -1.0829
 9982TIP3    H254142   0.058   4.890   9.899  0.3314 -2.6723  0.2977
 9983TIP3   OH254143   2.660   1.738  11.800  0.3998  0.3115  0.1656
 9983TIP3    H154144   2.713   1.665  11.770  0.2782  0.4067 -0.3024
 9983TIP3    H254145   2.682   1.749  11.892  0.4599 -0.2755  0.2206
 9984TIP3   OH254146   1.771   1.937   9.283  0.1237 -0.2959  0.1415
 9984TIP3    H154147   1.801   1.966   9.369  0.6632 -1.1036  0.2320
 9984TIP3    H254148   1.731   2.015   9.244 -0.2650  0.0377  1.1838
 9985TIP3   OH254149   4.715   0.634  12.110  0.5701 -0.0860 -0.1069
 9985TIP3    H154150   4.649   0.693  12.074  0.9163  1.0922  1.1036
 9985TIP3    H254151   4.705   0.553  12.060 -1.0757  0.4210 -0.6600
 9986TIP3   OH254152   1.203   3.135  10.892  0.3469 -0.0892  0.0854
 9986TIP3    H154153   1.257   3.173  10.961  0.8495  1.1048 -0.9355
 9986TIP3    H254154   1.248   3.053  10.870  1.6556  0.7600 -0.5697
 9987TIP3   OH254155   6.081   4.589  11.348 -0.0807 -0.0260 -0.0067
 9987TIP3    H154156   6.104   4.656  11.284 -0.4928  0.0038 -0.1254
 9987TIP3    H254157   6.160   4.581  11.402  0.0700  0.3586 -0.1584
 9988TIP3   OH254158   2.988   5.578  11.281 -0.0516  0.0320  0.0172
 9988TIP3    H154159   2.905   5.598  11.325 -0.6544  0.0598 -1.0998
 9988TIP3    H254160   3.038   5.528  11.346 -1.1845 -0.5238  0.4962
 9989TIP3   OH254161   4.068   0.764  12.185 -0.2269 -0.3414  0.5846
 9989TIP3    H154162   4.020   0.684  12.204 -1.3714  0.4253  1.0631
 9989TIP3    H254163   4.150   0.755  12.233 -0.4370 -1.1343  0.8008
 9990TIP3   OH254164   3.759   2.302  10.197 -0.1089 -0.0720 -0.1862
 9990TIP3    H154165   3.771   2.337  10.108  0.4182  0.3965  0.0658
 9990TIP3    H254166   3.679   2.344  10.228  1.1480  1.9139  0.5675
 9991TIP3   OH254167   5.026   6.204   9.123 -0.2825 -0.3470 -0.1470
 9991TIP3    H154168   5.106   6.248   9.153 -0.3496  1.7169 -2.6511
 9991TIP3    H254169   5.052   6.113   9.109  0.9079 -0.2994  1.5085
 9992TIP3   OH254170   1.948   4.736  10.259  0.4587  0.4207  0.0942
 9992TIP3    H154171   1.865   4.758  10.217  0.4515  0.2855  0.0350
 9992TIP3    H254172   1.981   4.662  10.208  1.7889  1.9620 -1.3847
 9993TIP3   OH254173   4.972   3.949  12.637  0.6996 -0.2526 -0.2093
 9993TIP3    H154174   4.947   3.898  12.560  0.0190  0.6275 -0.5906
 9993TIP3    H254175   4.987   4.037  12.604  1.1398 -0.0287  0.5565
 9994TIP3   OH254176   6.620   5.766  10.097  0.0245 -0.8574 -0.4399
 9994TIP3    H154177   6.600   5.675  10.119  0.0495 -0.5906  0.7585
 9994TIP3    H254178   6.538   5.801  10.061 -1.2836 -0.2811  2.7472
 9995TIP3   OH254179   1.902   3.088  11.565 -0.2800 -0.0490 -0.4426
 9995TIP3    H154180   1.939   3.091  11.653 -0.5527 -0.8653 -0.2929
 9995TIP3    H254181   1.897   3.180  11.539  3.0718  0.0937 -1.0234
 9996TIP3   OH254182   0.295   3.156  11.286 -0.5946  0.4557  0.2352
 9996TIP3    H154183   0.360   3.132  11.352  0.1684  0.1612 -0.6024
 9996TIP3    H254184   0.228   3.089  11.293 -0.4829  0.3824  0.6536
 9997TIP3   OH254185   4.278   2.911  10.224  0.6254 -0.1929 -0.2039
 9997TIP3    H154186   4.185   2.888  10.216  0.4681  0.3022  0.1275
 9997TIP3    H254187   4.303   2.943  10.138  0.5070 -0.4006 -0.3153
 9998TIP3   OH254188   5.574   0.634  10.288  0.6771 -0.4697  0.0062
 9998TIP3    H154189   5.515   0.702  10.255  1.0117 -0.0601  0.2459
 9998TIP3    H254190   5.624   0.677  10.358  1.0785 -0.8860 -0.0187
 9999TIP3   OH254191   2.354   1.023  12.017  0.0740 -0.0166  0.3203
 9999TIP3    H154192   2.395   1.000  12.100 -0.3503  2.0452  1.1605
 9999TIP3    H254193   2.272   0.974  12.016  0.8423 -1.3560  0.2941
10000TIP3   OH254194   0.849   1.596   9.945  0.2306  0.0948 -0.2580
10000TIP3    H154195   0.783   1.658   9.975 -0.4197  0.5115 -2.3785
10000TIP3    H254196   0.922   1.650   9.917 -0.7011  0.0542 -2.9940
10001TIP3   OH254197   3.894   1.668  12.070  0.0944 -0.0267  0.1759
10001TIP3    H154198   3.916   1.694  12.160  1.9241  0.3009 -0.3302
10001TIP3    H254199   3.831   1.734  12.042 -0.3041  0.0171  1.1253
10002TIP3   OH254200   2.030   2.874  10.113 -0.2130  0.3779 -0.1533
10002TIP3    H154201   2.079   2.898  10.034 -0.0543  0.3481 -0.0654
10002TIP3    H254202   2.097   2.839  10.172 -0.2510  0.8670  0.1853
10003TIP3   OH254203   3.084   2.978  10.861  0.4785 -0.0603  0.1277
10003TIP3    H154204   3.066   3.066  10.894 -0.6049  0.2068 -1.0918
10003TIP3    H254205   3.000   2.933  10.867  0.1950  0.0330 -2.2498
10004TIP3   OH254206   1.555   5.340  12.633 -0.1055  0.2324 -0.7006
10004TIP3    H154207   1.498   5.285  12.688  1.0837 -0.6632 -0.3077
10004TIP3    H254208   1.641   5.332  12.674  0.9594 -0.9482 -3.0099
10005TIP3   OH254209   1.095   2.847  12.699  0.5598 -0.0775  0.5166
10005TIP3    H154210   1.188   2.824  12.702  0.1840 -1.9742 -0.6523
10005TIP3    H254211   1.055   2.792  12.766  0.2744  0.7197  1.0019
10006TIP3   OH254212   0.850   4.595  11.915  0.0927  0.2161  0.3066
10006TIP3    H154213   0.915   4.546  11.865 -0.8785 -0.9447  0.1350
10006TIP3    H254214   0.834   4.542  11.993  1.2671  1.7906  1.7154
10007TIP3   OH254215   0.701   3.894  10.570 -0.1404  0.5818 -0.3053
10007TIP3    H154216   0.781   3.874  10.520  0.9977  2.4466  0.6761
10007TIP3    H254217   0.697   3.989  10.572 -1.5095  0.5330  1.0660
10008TIP3   OH254218   1.593   5.854   9.349  0.1032  0.8192  0.0861
10008TIP3    H154219   1.631   5.768   9.329  1.2687  1.3753 -0.1371
10008TIP3    H254220   1.668   5.912   9.358 -0.6684  1.7802  0.4668
10009TIP3   OH254221   0.060   2.873  12.082 -0.1819  0.3670 -0.0014
10009TIP3    H154222   0.115   2.883  12.005 -1.1684 -0.0305 -0.7765
10009TIP3    H254223   0.095   2.936  12.145 -0.2144  1.6934 -1.2558
10010TIP3   OH254224   4.616   6.533   9.288 -0.1743 -0.3001  0.3359
10010TIP3    H154225   4.532   6.550   9.245  0.7598  3.2155 -0.4718
10010TIP3    H254226   4.662   6.475   9.228 -1.4868 -1.1506  0.1096
10011TIP3   OH254227   3.367   6.364   9.456 -0.6008  0.1293  0.2362
10011TIP3    H154228   3.430   6.321   9.514 -0.9687 -1.2948 -0.3701
10011TIP3    H254229   3.284   6.318   9.472 -1.2310  1.1930  0.1638
10012TIP3   OH254230   2.341   5.317  10.512 -0.0172  0.3072  0.2208
10012TIP3    H154231   2.431   5.291  10.534 -0.0676  0.6852  0.8901
10012TIP3    H254232   2.291   5.301  10.592 -0.7163 -0.6326 -0.3890
10013TIP3   OH254233   4.029   0.816  11.148  0.4635 -0.0876 -0.1529
10013TIP3    H154234   3.968   0.758  11.102  0.5148  1.1509 -1.8699
10013TIP3    H254235   4.113   0.799  11.106  0.6033  0.7138 -0.2079
10014TIP3   OH254236   1.792   0.404  10.253  0.3653 -0.0125  0.2450
10014TIP3    H154237   1.734   0.459  10.306 -0.1720  0.4172 -0.7534
10014TIP3    H254238   1.737   0.331  10.225  0.6195 -0.1910  0.2073
10015TIP3   OH254239   2.234   0.474   9.485 -0.9067  0.0181 -0.2246
10015TIP3    H154240   2.143   0.492   9.509 -0.5843  0.0148  1.1109
10015TIP3    H254241   2.241   0.502   9.394 -1.6415  2.2813  0.3372
10016TIP3   OH254242   6.181   6.507  11.921  0.6238  0.6099  0.2803
10016TIP3    H154243   6.139   6.427  11.953 -1.5677  1.4184 -0.3691
10016TIP3    H254244   6.183   6.497  11.826  2.9188  0.1759  0.3256
10017TIP3   OH254245   2.608   6.180  10.343 -0.1185 -0.3321  0.0628
10017TIP3    H154246   2.684   6.130  10.373  0.3093  1.1217  1.5976
10017TIP3    H254247   2.533   6.136  10.384  0.0608 -0.7796 -0.0843
10018TIP3   OH254248   4.270   6.207   9.604  0.0151  0.1024  0.4017
10018TIP3    H154249   4.221   6.252   9.673  1.2452  0.8592  0.7978
10018TIP3    H254250   4.291   6.122   9.641  0.0247  0.2208  0.6689
10019TIP3   OH254251   1.449   6.274  11.377  0.6608  0.1668  0.4458
10019TIP3    H154252   1.493   6.206  11.428 -0.3786 -0.0944  1.0375
10019TIP3    H254253   1.518   6.334  11.351  1.5121 -0.7955  0.4330
10020TIP3   OH254254   6.617   1.312  10.009  0.3558 -0.1931 -0.1132
10020TIP3    H154255   6.529   1.272  10.011  0.0686  0.3931 -0.5326
10020TIP3    H254256   6.614   1.380  10.076 -0.1014  0.9789 -1.2775
10021TIP3   OH254257   1.131   3.014  10.548 -0.5108 -0.0748  0.0124
10021TIP3    H154258   1.139   3.016  10.453 -3.3509  1.5966 -0.2990
10021TIP3    H254259   1.165   2.928  10.573 -0.0060 -0.6922 -2.5075
10022TIP3   OH254260   5.217   5.576   9.987 -0.0215 -0.2451 -0.1456
10022TIP3    H154261   5.199   5.544  10.075 -1.7249  1.9501  0.3945
10022TIP3    H254262   5.172   5.514   9.929  0.4181 -1.2324  0.5524
10023TIP3   OH254263   4.081   1.678  11.543  0.0238 -0.4041  0.0261
10023TIP3    H154264   4.065   1.701  11.452 -0.6680 -0.7202  0.0566
10023TIP3    H254265   4.119   1.590  11.539  2.7048  0.6711 -0.0932
10024TIP3   OH254266   3.442   5.424  11.539 -0.2511  0.0005  0.1164
10024TIP3    H154267   3.531   5.406  11.569  0.1431 -1.8812 -1.8952
10024TIP3    H254268   3.387   5.366  11.592  0.1528 -1.4042 -0.9380
10025TIP3   OH254269   3.204   5.423  11.339 -0.5512  0.1570 -0.0208
10025TIP3    H154270   3.282   5.383  11.378 -0.2946  2.3845  1.9757
10025TIP3    H254271   3.175   5.360  11.273  2.1363 -1.3560  0.1113
10026TIP3   OH254272   5.162   3.736  10.603 -0.8854 -0.1549 -0.1817
10026TIP3    H154273   5.256   3.738  10.583 -0.9428 -0.3251 -0.4769
10026TIP3    H254274   5.156   3.765  10.694 -0.3372 -2.3069  0.6057
10027TIP3   OH254275   2.461   3.835  10.182 -0.0733 -0.4531  0.2657
10027TIP3    H154276   2.467   3.877  10.096  0.5886 -0.1668  0.4426
10027TIP3    H254277   2.552   3.822  10.208 -0.2606  0.3418  1.3449
10028TIP3   OH254278   2.779   5.373  12.813  0.3954 -0.1753  0.0494
10028TIP3    H154279   2.871   5.399  12.805  0.6224 -0.8382  0.4252
10028TIP3    H254280   2.750   5.412  12.895  0.6252 -0.7790  0.4207
10029TIP3   OH254281   1.763   4.290  11.245  0.7695  0.3341 -0.0298
10029TIP3    H154282   1.709   4.249  11.178 -0.4775  0.9370  0.5689
10029TIP3    H254283   1.853   4.269  11.220  0.2785 -0.4674 -1.2036
10030TIP3   OH254284   6.341   0.026  10.973  0.2422  0.1765  0.6575
10030TIP3    H154285   6.346   0.097  11.036 -2.1416 -0.3514  1.5271
10030TIP3    H254286   6.294  -0.044  11.018 -0.7496 -0.5660 -1.3711
10031TIP3   OH254287   4.492   6.571   9.522  0.1411 -0.6827 -0.1049
10031TIP3    H154288   4.495   6.654   9.568 -2.7318  1.0172 -2.5840
10031TIP3    H254289   4.562   6.577   9.457  1.3168 -1.1808  1.0825
10032TIP3   OH254290   4.367   4.626  11.531  0.2011  0.8715  0.1708
10032TIP3    H154291   4.405   4.538  11.530 -0.9941  0.2540 -2.7130
10032TIP3    H254292   4.393   4.663  11.615  1.8059 -1.7640  0.9502
10033TIP3   OH254293   5.009   3.280   9.954 -0.6639 -0.0288 -0.1452
10033TIP3    H154294   4.998   3.254   9.862 -0.2236 -1.8733  0.2936
10033TIP3    H254295   4.981   3.371   9.956  0.8717  0.5687 -2.4348
10034TIP3   OH254296   4.394   4.849   9.783 -0.5112  0.3630 -0.5468
10034TIP3    H154297   4.325   4.813   9.729 -0.9469  2.3466 -1.4217
10034TIP3    H254298   4.357   4.929   9.820  0.2256 -0.2457  1.6738
10035TIP3   OH254299   0.827   3.833   9.062  0.0120 -0.0740  0.0090
10035TIP3    H154300   0.753   3.848   9.003  0.8340  1.9977 -0.5809
10035TIP3    H254301   0.787   3.826   9.149 -1.0011 -0.6834 -0.4839
10036TIP3   OH254302   3.667   6.085  10.054  0.2289 -0.1669 -0.3529
10036TIP3    H154303   3.602   6.081   9.984 -1.6890 -0.3989  1.3385
10036TIP3    H254304   3.677   5.994  10.083 -0.0152  0.0842  0.5456
10037TIP3   OH254305   5.725   5.583  11.827  0.1485  0.1475  0.1534
10037TIP3    H154306   5.714   5.589  11.732  0.4391 -0.6845  0.0581
10037TIP3    H254307   5.636   5.588  11.862  0.1575  3.1959  0.0577
10038TIP3   OH254308   3.218   1.594   9.691 -0.0072 -0.0045  0.0466
10038TIP3    H154309   3.215   1.689   9.697 -1.6188  0.2415 -2.7523
10038TIP3    H254310   3.129   1.566   9.714  0.2230 -0.7795  0.0197
10039TIP3   OH254311   5.808   2.980  10.034  0.0252 -0.3377 -0.2571
10039TIP3    H154312   5.733   2.953   9.981 -0.6093  0.2989  0.2968
10039TIP3    H254313   5.825   3.070  10.007  0.5017 -0.4305 -0.2729
10040TIP3   OH254314   2.843   1.899  11.677  0.4988 -0.5008 -0.0241
10040TIP3    H154315   2.924   1.848  11.686 -0.2393 -1.8362 -0.6403
10040TIP3    H254316   2.778   1.849  11.726 -0.1668  0.0778 -0.3007
10041TIP3   OH254317   4.317   2.010  11.537 -0.0460 -0.0271 -0.1701
10041TIP3    H154318   4.355   2.073  11.475 -0.7163 -0.4929 -1.0703
10041TIP3    H254319   4.225   2.004  11.512 -0.0998 -0.9903  0.2230
10042TIP3   OH254320   0.184   2.910  11.383  0.5245 -0.1795 -0.1358
10042TIP3    H154321   0.135   2.840  11.340  1.2207 -0.6110 -0.2487
10042TIP3    H254322   0.258   2.866  11.424  1.8616  0.6319 -1.5208
10043TIP3   OH254323   1.700   4.506  11.577  0.0425  0.0937  0.0078
10043TIP3    H154324   1.737   4.466  11.499  0.2531  1.5985 -0.6954
10043TIP3    H254325   1.609   4.475  11.579 -0.1938  0.6469 -1.2799
10044TIP3   OH254326   0.526   5.908   9.475 -0.2159 -0.4491 -0.1693
10044TIP3    H154327   0.564   5.994   9.458 -1.5894  0.1204 -0.4722
10044TIP3    H254328   0.601   5.850   9.487  0.7313  0.8367  0.2792
10045TIP3   OH254329   3.787   6.647  11.085  0.0153 -0.6191  0.5438
10045TIP3    H154330   3.732   6.673  11.159  1.3153  0.4931  1.1711
10045TIP3    H254331   3.832   6.568  11.116 -0.9180 -1.2957  0.1827
10046TIP3   OH254332   1.050   3.932  10.742  0.2571  0.3724  0.3936
10046TIP3    H154333   0.983   3.998  10.756  0.1729  0.4212 -0.2291
10046TIP3    H254334   1.123   3.979  10.701  0.6119  0.2892  0.9171
10047TIP3   OH254335   5.830   4.051  11.286 -0.1110 -0.3511 -0.1012
10047TIP3    H154336   5.805   3.978  11.344  0.0907  0.0976  0.5607
10047TIP3    H254337   5.782   4.126  11.320  0.2375 -0.0181 -0.3416
10048TIP3   OH254338   5.238   6.241   9.888  0.0953  0.3348 -0.3035
10048TIP3    H154339   5.188   6.318   9.917 -0.3417 -0.0074 -0.1348
10048TIP3    H254340   5.201   6.219   9.803 -0.2177 -0.0698 -0.0669
10049TIP3   OH254341   1.372   5.811  10.473 -0.0989 -0.0318  0.0232
10049TIP3    H154342   1.318   5.740  10.509  0.7760 -0.4918  0.4442
10049TIP3    H254343   1.359   5.884  10.534 -2.7610  0.9934 -1.5722
10050TIP3   OH254344   6.157   4.964   9.939 -0.0198 -0.3373  0.7381
10050TIP3    H154345   6.064   4.950   9.954  0.2736 -1.2881  1.8393
10050TIP3    H254346   6.198   4.882   9.966  1.2295  0.4458  1.3008
10051TIP3   OH254347   0.400   4.877  10.129 -0.3083  0.1648 -0.5838
10051TIP3    H154348   0.392   4.969  10.104  1.2919  1.0978  1.9282
10051TIP3    H254349   0.458   4.839  10.063 -0.2950  1.1832 -1.1780
10052TIP3   OH254350   3.116   6.145  11.824  0.1098 -0.0720 -0.2439
10052TIP3    H154351   3.065   6.207  11.772  2.9174 -0.1140 -3.3544
10052TIP3    H254352   3.192   6.195  11.854  0.5269 -1.0969  0.4874
10053TIP3   OH254353   2.721   0.444   9.425 -0.1393 -0.7241  0.6646
10053TIP3    H154354   2.681   0.459   9.340 -1.5365  0.1946  1.4659
10053TIP3    H254355   2.792   0.382   9.406 -0.2436 -0.3443 -1.1948
10054TIP3   OH254356   5.094   5.450   9.757 -1.0423  0.1649  0.1455
10054TIP3    H154357   5.099   5.401   9.674 -0.8359 -0.7132  0.6616
10054TIP3    H254358   5.023   5.513   9.743  0.3926  1.5254 -1.4483
10055TIP3   OH254359   2.505   4.818  11.045  0.0515 -0.1042 -0.2576
10055TIP3    H154360   2.575   4.865  11.092 -0.0595  0.4789 -0.6601
10055TIP3    H254361   2.453   4.777  11.114 -0.4183  1.1736  0.1911
10056TIP3   OH254362   3.743   4.646  10.134  0.3384 -0.1365 -0.4230
10056TIP3    H154363   3.742   4.709  10.063  2.2494  1.2981  0.7161
10056TIP3    H254364   3.826   4.662  10.179 -0.2955 -1.7381  1.4677
10057TIP3   OH254365   6.086   2.945   9.902 -0.1458 -0.2090  0.0772
10057TIP3    H154366   6.111   2.853   9.900 -1.1253 -0.5119 -2.8127
10057TIP3    H254367   5.991   2.945   9.910 -0.1488  0.5352  0.1533
10058TIP3   OH254368   4.971   3.604  10.721 -0.0723 -0.2994 -0.2151
10058TIP3    H154369   5.051   3.639  10.682 -0.5676  0.8482 -0.2506
10058TIP3    H254370   4.919   3.574  10.647  1.0462 -2.7283 -0.0880
10059TIP3   OH254371   1.853   0.850  10.545  0.2659 -0.1786 -0.8083
10059TIP3    H154372   1.918   0.900  10.594  0.2322 -0.1464 -0.7968
10059TIP3    H254373   1.903   0.806  10.476  0.2504  0.1111 -1.0046
10060TIP3   OH254374   0.386   5.225  11.505  0.3011  0.3463 -0.1489
10060TIP3    H154375   0.445   5.152  11.488 -1.3006 -0.8137 -0.9752
10060TIP3    H254376   0.438   5.303  11.484  1.0759 -0.6771 -2.3774
10061TIP3   OH254377   0.840   1.648  12.397 -0.0549  0.3480  0.0551
10061TIP3    H154378   0.900   1.711  12.356 -1.5804  0.5743 -2.0097
10061TIP3    H254379   0.761   1.651  12.342 -2.2464  0.5138  3.0085
10062TIP3   OH254380   5.587   3.949  10.333  0.3763 -0.4070  0.0643
10062TIP3    H154381   5.535   4.008  10.278 -0.0083 -0.2676  0.5675
10062TIP3    H254382   5.674   3.950  10.293  0.8132  1.6902  0.9077
10063TIP3   OH254383   4.593   0.088  12.175 -0.4828 -0.2031  0.4350
10063TIP3    H154384   4.542   0.103  12.096  0.5389 -1.4604 -0.5193
10063TIP3    H254385   4.558   0.149  12.239 -0.3514  1.9318 -1.4209
10064TIP3   OH254386   2.753   1.901  12.395 -0.4462  0.4117 -0.1872
10064TIP3    H154387   2.697   1.975  12.371 -0.3743  0.6771  0.4606
10064TIP3    H254388   2.842   1.933  12.381 -0.3836  0.7267  0.8461
10065TIP3   OH254389   2.206   1.715  10.830 -0.5012  0.0288 -0.2810
10065TIP3    H154390   2.184   1.742  10.741 -0.2802  1.2615  0.0143
10065TIP3    H254391   2.253   1.632  10.820  1.6713  1.3139 -1.5312
10066TIP3   OH254392   6.045   5.118  10.909  0.3962 -0.6300 -0.5278
10066TIP3    H154393   6.020   5.056  10.841  1.5199 -0.9778 -0.6475
10066TIP3    H254394   6.137   5.097  10.928 -0.0950 -1.0530  1.6303
10067TIP3   OH254395   4.476   0.896  10.425  0.1566  0.0076  0.1790
10067TIP3    H154396   4.511   0.954  10.357  0.6335  0.0496  0.4577
10067TIP3    H254397   4.418   0.836  10.378  1.0475 -0.4402 -0.3832
10068TIP3   OH254398   0.583   0.571  11.909  0.0301 -0.2350 -0.2771
10068TIP3    H154399   0.518   0.501  11.911 -0.6650  0.4065 -0.0649
10068TIP3    H254400   0.643   0.546  11.838 -0.1501 -1.0897 -0.1352
10069TIP3   OH254401   2.856   3.700  11.519  0.5500 -0.2114  0.1426
10069TIP3    H154402   2.925   3.697  11.453  1.4992 -0.7642  1.1485
10069TIP3    H254403   2.892   3.654  11.595 -1.6343 -2.3638  0.0230
10070TIP3   OH254404   2.863   6.509  10.623 -0.3075 -0.3307 -0.0668
10070TIP3    H154405   2.845   6.518  10.530 -0.9983 -0.1454  0.0777
10070TIP3    H254406   2.843   6.596  10.660  2.6822  0.5053 -0.1521
10071TIP3   OH254407   0.783   6.111  12.011  0.1315 -0.3868  0.1036
10071TIP3    H154408   0.810   6.157  12.090  1.0742 -0.7218 -0.0072
10071TIP3    H254409   0.861   6.061  11.985 -0.8663 -2.0876  0.2421
10072TIP3   OH254410   3.611   0.545  12.115 -0.2984  0.7925  0.3118
10072TIP3    H154411   3.561   0.482  12.064 -0.4057  0.7267  0.5004
10072TIP3    H254412   3.594   0.629  12.072 -0.3190  0.7244  0.1864
10073TIP3   OH254413   6.247   5.218  12.063 -0.6061 -0.9341  0.2909
10073TIP3    H154414   6.205   5.230  11.978  0.2318 -1.0664 -0.1523
10073TIP3    H254415   6.313   5.150  12.048 -1.2466 -1.8107  1.3391
10074TIP3   OH254416   6.085   3.818  11.236  0.1014 -0.4004 -0.6059
10074TIP3    H154417   6.153   3.861  11.184  0.0611  0.9324  0.3989
10074TIP3    H254418   6.016   3.797  11.174  0.1615  0.9373 -1.1345
10075TIP3   OH254419   2.234   4.918  11.571 -0.0535  0.2093 -0.0437
10075TIP3    H154420   2.316   4.950  11.534  0.6038 -0.9794  0.3540
10075TIP3    H254421   2.174   4.914  11.496  0.0285  1.7381 -0.2105
10076TIP3   OH254422   3.648   5.802  10.079 -0.3868 -0.2614  0.1133
10076TIP3    H154423   3.606   5.802   9.993  1.3360  2.0442 -0.8115
10076TIP3    H254424   3.698   5.720  10.081 -1.5622 -1.0221 -0.4480
10077TIP3   OH254425   0.589   1.572  11.087 -0.2177 -0.0991 -0.1481
10077TIP3    H154426   0.639   1.652  11.097  1.2437 -0.9672 -0.2938
10077TIP3    H254427   0.615   1.537  11.001 -0.2734 -1.1068  0.2261
10078TIP3   OH254428   6.491   2.946  10.499  0.3170  0.5608  0.3982
10078TIP3    H154429   6.489   2.988  10.585 -0.0113  0.7665  0.2909
10078TIP3    H254430   6.541   3.007  10.444  1.1933  0.0699  0.6277
10079TIP3   OH254431   3.476   6.467  10.586 -0.5900  0.0058 -0.2530
10079TIP3    H154432   3.431   6.383  10.592 -0.4520 -0.1301 -0.9675
10079TIP3    H254433   3.458   6.511  10.669 -0.0364 -1.0341  0.4282
10080TIP3   OH254434   4.956   4.493  10.974 -0.6983  0.1096 -0.8877
10080TIP3    H154435   4.966   4.481  11.069 -1.6986  1.4024 -0.5913
10080TIP3    H254436   5.018   4.561  10.952 -1.4748  0.8446 -0.8752
10081TIP3   OH254437   1.056   6.161  11.576  0.1841  0.4648  0.4274
10081TIP3    H154438   1.048   6.201  11.662 -0.9407 -0.0841  0.5918
10081TIP3    H254439   1.102   6.078  11.593 -0.7720 -0.0331  0.6325
10082TIP3   OH254440   0.967   0.513  11.001  0.2160  0.2907  0.3004
10082TIP3    H154441   0.928   0.469  11.076 -0.5287 -0.4499 -0.4853
10082TIP3    H254442   0.891   0.543  10.950  0.7037  0.6803 -0.2004
10083TIP3   OH254443   3.630   3.444  11.794 -0.9585 -0.1178 -0.2123
10083TIP3    H154444   3.635   3.539  11.780 -0.0710 -0.2203 -0.5847
10083TIP3    H254445   3.576   3.436  11.873 -0.9657  0.6992 -0.1166
10084TIP3   OH254446   3.148   1.267  12.393 -0.4722 -0.4084  0.0094
10084TIP3    H154447   3.082   1.287  12.327 -0.7492 -0.1222  0.3680
10084TIP3    H254448   3.231   1.290  12.352 -0.7759  1.5542  0.4066
10085TIP3   OH254449   0.711   0.269  10.708 -0.2024  0.4955  0.3887
10085TIP3    H154450   0.631   0.304  10.747 -0.2158  2.2046 -1.0524
10085TIP3    H254451   0.734   0.331  10.639 -0.5244 -2.6226 -2.8428
10086TIP3   OH254452   0.966   4.831  11.971 -0.1832  0.1492  0.1152
10086TIP3    H154453   0.935   4.749  11.932 -0.3469 -0.2752  1.1077
10086TIP3    H254454   0.991   4.808  12.060  0.4006  1.0535  0.2043
10087TIP3   OH254455   3.703   3.367  12.190 -0.2459  0.2402 -0.4347
10087TIP3    H154456   3.669   3.383  12.278  1.0649 -0.2582  0.1908
10087TIP3    H254457   3.635   3.314  12.148 -0.1665 -0.9647  0.8637
10088TIP3   OH254458   6.039   3.799  10.077 -0.2159  0.2529 -0.2355
10088TIP3    H154459   6.054   3.886  10.114 -1.6495  0.3165  0.2739
10088TIP3    H254460   6.062   3.739  10.148 -0.3923  0.2712 -0.1618
10089TIP3   OH254461   0.404   1.217  11.396 -0.1292  0.2523  0.2588
10089TIP3    H154462   0.491   1.180  11.410  0.1127  0.9259  0.5913
10089TIP3    H254463   0.418   1.311  11.396 -1.0543  0.4401  1.8219
10090TIP3   OH254464   3.710   0.921  10.703  0.3697  0.5637 -0.3953
10090TIP3    H154465   3.641   0.916  10.637  0.8630 -0.3955 -0.8560
10090TIP3    H254466   3.733   0.830  10.721  0.5533  0.8222  0.7899
10091TIP3   OH254467   1.680   2.633  11.794 -0.5811 -0.4504 -0.1917
10091TIP3    H154468   1.637   2.715  11.769 -0.2841  0.1148  1.1122
10091TIP3    H254469   1.668   2.627  11.888  0.1960 -1.4617 -0.1456
10092TIP3   OH254470   3.627   0.864  11.733 -0.2886 -0.2648 -0.0807
10092TIP3    H154471   3.566   0.809  11.684 -1.4531  0.6075  0.3203
10092TIP3    H254472   3.709   0.861  11.683 -0.7881 -1.1395 -0.8687
10093TIP3   OH254473   3.130   1.037   9.004 -0.1797 -0.3210  0.0549
10093TIP3    H154474   3.140   1.069   9.094  0.5480 -0.0644 -0.1105
10093TIP3    H254475   3.133   0.942   9.012 -2.3385 -0.3875  0.5533
10094TIP3   OH254476   0.424   6.617  10.272  0.0559  0.1478 -0.4522
10094TIP3    H154477   0.434   6.604  10.178 -0.4400  0.2011 -0.5199
10094TIP3    H254478   0.388   6.706  10.280 -1.2055 -0.3424 -0.3156
10095TIP3   OH254479   2.222   2.735  10.254  0.3709 -0.0514  0.2244
10095TIP3    H154480   2.170   2.725  10.333  1.6340 -1.3595  0.9301
10095TIP3    H254481   2.306   2.694  10.275  0.9286  0.0664 -1.6135
10096TIP3   OH254482   1.557   0.728  10.826 -0.1237 -0.9511 -0.4051
10096TIP3    H154483   1.646   0.761  10.841 -0.7630  1.1184 -0.8952
10096TIP3    H254484   1.543   0.666  10.898  1.5691 -1.0327 -0.1008
10097TIP3   OH254485   2.094   3.887  10.135  0.2340  0.1430  0.5414
10097TIP3    H154486   2.028   3.954  10.114  1.0916  0.4140 -1.5818
10097TIP3    H254487   2.149   3.927  10.202  0.5019  1.4433 -0.4207
10098TIP3   OH254488   5.010   4.048  12.194 -0.5483 -0.2152  0.0037
10098TIP3    H154489   4.977   4.049  12.104  0.8849  1.9538 -0.5785
10098TIP3    H254490   5.080   3.983  12.193  0.2614  0.6309 -0.8191
10099TIP3   OH254491   5.967   0.706  11.751 -0.0768 -0.2753  0.5596
10099TIP3    H154492   6.056   0.741  11.749  0.0400 -0.5634  0.6481
10099TIP3    H254493   5.955   0.666  11.665 -0.1257 -0.2246  0.5430
10100TIP3   OH254494   1.478   5.636   9.568  0.1558 -0.3510  0.5198
10100TIP3    H154495   1.434   5.719   9.586  2.6016  1.1361  0.0931
10100TIP3    H254496   1.436   5.603   9.489 -0.0277  1.1314 -0.0230
10101TIP3   OH254497   6.004   1.657  10.437  0.0367  0.2200 -0.0759
10101TIP3    H154498   6.022   1.578  10.488  0.4348 -0.9820 -1.9736
10101TIP3    H254499   6.074   1.718  10.460 -0.9592  0.5676  2.3550
10102TIP3   OH254500   1.197   2.987  11.547  0.4568 -0.3149  0.2008
10102TIP3    H154501   1.288   2.961  11.555  0.6128 -0.3557 -1.2831
10102TIP3    H254502   1.199   3.082  11.544  0.2867 -0.2497  1.6226
10103TIP3   OH254503   3.325   2.465  10.753  0.3167  0.3614  0.4055
10103TIP3    H154504   3.352   2.551  10.720  2.4888 -0.4583 -0.1422
10103TIP3    H254505   3.377   2.453  10.833  2.0835 -1.4717 -0.9208
10104TIP3   OH254506   4.072   1.964  11.747  1.1175 -0.0187 -0.0438
10104TIP3    H154507   4.074   1.991  11.838  0.3509  0.8719 -0.2775
10104TIP3    H254508   4.075   1.868  11.750 -1.9750 -0.1897  1.0805
10105TIP3   OH254509   6.531   5.707  10.449 -0.3046  0.9383 -0.0693
10105TIP3    H154510   6.506   5.662  10.530  0.1038  1.2895  0.2601
10105TIP3    H254511   6.623   5.732  10.464 -0.5486  1.9445 -0.2123
10106TIP3   OH254512   4.720   1.718  10.134 -0.1902 -0.8507 -0.2256
10106TIP3    H154513   4.644   1.763  10.096  0.5282  0.5343 -0.0718
10106TIP3    H254514   4.683   1.667  10.206 -0.9011  0.3175  0.2652
10107TIP3   OH254515   1.993   1.982  12.762 -0.3394  0.4003 -0.1800
10107TIP3    H154516   1.963   1.903  12.806 -2.3825  1.3271  0.2323
10107TIP3    H254517   2.033   1.952  12.681  0.3777 -1.1194  0.6973
10108TIP3   OH254518   5.187   5.112  12.243 -0.1221 -0.0222  0.3490
10108TIP3    H154519   5.182   5.094  12.149 -1.5013  3.9732 -0.5238
10108TIP3    H254520   5.253   5.050  12.275  1.9838 -0.1931 -3.6329
10109TIP3   OH254521   0.455   4.689  12.018 -0.0228  0.1454  0.0720
10109TIP3    H154522   0.481   4.617  12.074 -1.7249 -0.3421  0.2812
10109TIP3    H254523   0.506   4.677  11.938  0.5967 -0.5849  0.5648
10110TIP3   OH254524   4.042   0.116   9.711 -0.1259  0.4857  0.0868
10110TIP3    H154525   4.103   0.048   9.681 -2.2030 -1.7397  0.6156
10110TIP3    H254526   4.087   0.158   9.784  0.8599 -0.9965  0.3891
10111TIP3   OH254527   1.980   4.048  11.509 -0.4058 -0.1750 -0.3843
10111TIP3    H154528   2.040   3.978  11.482 -1.0946  0.0558 -2.7307
10111TIP3    H254529   2.015   4.127  11.467 -0.0401  0.8309  1.6468
10112TIP3   OH254530   6.440   2.885  10.140 -0.0498  0.4131 -0.5820
10112TIP3    H154531   6.523   2.874  10.095 -0.3190 -0.3874 -0.8966
10112TIP3    H254532   6.404   2.797  10.146  0.6030  0.2189  2.4170
10113TIP3   OH254533   6.428   0.833  11.912 -0.3309 -0.0093 -0.8190
10113TIP3    H154534   6.481   0.910  11.930  0.0470 -0.9877  3.4927
10113TIP3    H254535   6.491   0.763  11.896 -0.3115 -0.4725  0.9758
10114TIP3   OH254536   5.156   5.547  11.888 -0.3707 -0.3786 -0.1412
10114TIP3    H154537   5.150   5.622  11.829 -1.4920  1.7006  2.4197
10114TIP3    H254538   5.074   5.499  11.874 -0.8023  0.3110  0.0188
10115TIP3   OH254539   4.671   5.784  11.534  0.7966 -0.7131 -0.5480
10115TIP3    H154540   4.577   5.773  11.519  1.0926 -2.3798 -1.3874
10115TIP3    H254541   4.691   5.723  11.604  1.2250 -0.1453 -0.1659
10116TIP3   OH254542   4.803   3.458   9.332  0.8131 -0.4533 -0.5606
10116TIP3    H154543   4.875   3.490   9.386 -0.1836 -0.6926  0.9716
10116TIP3    H254544   4.757   3.538   9.304 -1.7086 -0.3058  3.3105
10117TIP3   OH254545   5.462   0.151  12.025  0.2834  0.0669 -0.0181
10117TIP3    H154546   5.491   0.154  12.116  0.6762 -0.7361 -0.1105
10117TIP3    H254547   5.542   0.158  11.973 -0.0445  1.8782 -0.3363
10118TIP3   OH254548   0.825   6.043   9.706  0.8036 -0.3082 -0.4297
10118TIP3    H154549   0.846   6.093   9.785  0.3213 -0.6641 -0.0724
10118TIP3    H254550   0.830   6.107   9.635  0.6270  0.1473 -0.0341
10119TIP3   OH254551   4.464   0.341  12.931  0.2137  0.3153  0.1691
10119TIP3    H154552   4.428   0.384  13.008 -1.5798  0.4225 -0.6757
10119TIP3    H254553   4.460   0.247  12.952  2.4234  0.4225  1.2917
10120TIP3   OH254554   2.579   3.975  12.999 -0.1266 -0.1979 -0.2818
10120TIP3    H154555   2.668   4.010  13.001 -0.2611  0.0911  1.1657
10120TIP3    H254556   2.529   4.039  12.949  0.1238  0.5203  0.3786
10121TIP3   OH254557   1.462   3.696  11.047 -0.6066  0.6961 -0.5595
10121TIP3    H154558   1.434   3.607  11.026  1.7311  0.0001 -0.9059
10121TIP3    H254559   1.413   3.751  10.986 -1.5058 -0.3904 -0.8675
10122TIP3   OH254560   3.076   6.611  10.347  0.4946  0.1469  0.1067
10122TIP3    H154561   3.124   6.629  10.428  0.5107 -1.1375  0.4169
10122TIP3    H254562   2.985   6.630  10.368  0.4581 -0.4566  0.5328
10123TIP3   OH254563   0.101   4.184   9.953 -0.4249  0.0961 -0.0490
10123TIP3    H154564   0.174   4.139   9.995 -0.4296 -0.5651 -0.7442
10123TIP3    H254565   0.131   4.202   9.864 -1.0865 -0.1450 -0.3294
10124TIP3   OH254566   1.246   4.030   9.892  0.2668 -0.6996  0.1934
10124TIP3    H154567   1.155   4.027   9.922  0.6035  0.7169  1.5012
10124TIP3    H254568   1.265   3.940   9.865 -0.5984 -1.7896  2.8150
10125TIP3   OH254569   0.846   3.180  11.952  0.2744  0.1296 -0.5469
10125TIP3    H154570   0.938   3.156  11.967 -0.0884 -0.2060  1.3620
10125TIP3    H254571   0.796   3.107  11.988 -0.7606  0.5112 -1.1735
10126TIP3   OH254572   5.072   1.472  11.048 -0.5172 -0.5379  0.6883
10126TIP3    H154573   5.032   1.505  11.128 -1.7574 -0.6627  0.1357
10126TIP3    H254574   5.002   1.424  11.004  0.0447 -0.1738 -0.6480
10127TIP3   OH254575   5.787   0.187   9.506 -0.1268  0.2268  0.1383
10127TIP3    H154576   5.697   0.186   9.537 -0.8410  1.6550 -1.7339
10127TIP3    H254577   5.802   0.100   9.470 -0.7140 -0.0352  0.5093
10128TIP3   OH254578   0.280   4.462  10.773 -0.3721 -0.0656 -0.4919
10128TIP3    H154579   0.259   4.454  10.680  0.2544 -1.7279 -0.5200
10128TIP3    H254580   0.305   4.374  10.800 -0.4503  0.4075  1.2421
10129TIP3   OH254581   2.146   2.133  12.192  0.3106  0.5879 -0.0310
10129TIP3    H154582   2.241   2.130  12.187  0.2892  0.3716 -0.3375
10129TIP3    H254583   2.125   2.073  12.264  0.3659 -0.0380 -0.5224
10130TIP3   OH254584   5.671   2.822   9.296 -0.0827  0.1594 -0.0495
10130TIP3    H154585   5.674   2.859   9.385  1.0850  0.3779 -0.1588
10130TIP3    H254586   5.734   2.875   9.247  1.8648 -2.1010 -0.1604
10131TIP3   OH254587   4.107   4.281   9.346  0.0182  0.7506 -0.5523
10131TIP3    H154588   4.017   4.249   9.352  0.3510 -0.1560 -0.1619
10131TIP3    H254589   4.160   4.201   9.338  0.9670  1.1347  1.4310
10132TIP3   OH254590   1.802   4.758  11.368 -0.2043  0.4653  0.8746
10132TIP3    H154591   1.754   4.684  11.329 -1.0453  1.3893  0.1012
10132TIP3    H254592   1.857   4.718  11.435  0.1013 -0.9867 -0.1892
10133TIP3   OH254593   1.516   5.911  12.482  0.5361 -0.3741 -0.7360
10133TIP3    H154594   1.487   5.822  12.465 -0.8294  0.0750 -0.8057
10133TIP3    H254595   1.515   5.918  12.578  0.6726 -0.4353 -0.7295
10134TIP3   OH254596   1.775   4.860   9.661  0.3414  0.1571 -0.0131
10134TIP3    H154597   1.693   4.839   9.615  0.9174 -1.8029 -0.2373
10134TIP3    H254598   1.772   4.955   9.671 -1.2805  0.3091 -1.3106
10135TIP3   OH254599   1.909   0.700  12.283 -0.7082 -0.2724 -0.7039
10135TIP3    H154600   1.869   0.642  12.348  0.1319 -1.8271 -1.5297
10135TIP3    H254601   1.997   0.717  12.317 -0.8996  0.4405 -0.5377
10136TIP3   OH254602   4.530   1.074  10.214 -0.0548 -0.1477  0.0656
10136TIP3    H154603   4.522   1.162  10.252  0.6789 -0.2288  0.4212
10136TIP3    H254604   4.549   1.090  10.121  5.2559  0.2814  0.9309
10137TIP3   OH254605   3.603   0.852  10.039 -0.0677 -0.0787  0.5318
10137TIP3    H154606   3.594   0.756  10.038 -3.4812  0.1003 -0.8824
10137TIP3    H254607   3.683   0.869   9.989 -0.9534 -2.1702 -1.8203
10138TIP3   OH254608   0.777   6.171  10.717  0.2169 -0.0652 -0.3673
10138TIP3    H154609   0.824   6.250  10.746  1.9247 -1.3938  0.6709
10138TIP3    H254610   0.794   6.166  10.623 -0.9526  1.4446 -0.6929
10139TIP3   OH254611   1.665   1.545  10.619 -0.4023 -0.0072  0.1506
10139TIP3    H154612   1.742   1.557  10.563 -0.0996 -0.2962  0.5034
10139TIP3    H254613   1.595   1.520  10.558 -0.5045  1.3514 -0.3162
10140TIP3   OH254614   1.388   0.439  11.565 -0.6937 -0.1163 -0.2556
10140TIP3    H154615   1.469   0.463  11.519 -1.2434  2.1670 -0.1607
10140TIP3    H254616   1.414   0.370  11.626  1.7161  1.9860  1.3139
10141TIP3   OH254617   5.333   6.088  11.766 -0.1865 -0.0873 -1.1775
10141TIP3    H154618   5.412   6.134  11.794  0.3390  0.4566 -3.3871
10141TIP3    H254619   5.362   5.998  11.749 -0.8965 -0.9412  1.6541
10142TIP3   OH254620   4.248   5.973   9.765  0.0550  0.4422  0.2524
10142TIP3    H154621   4.185   5.907   9.737  0.2421  0.6500 -0.7126
10142TIP3    H254622   4.229   5.988   9.857 -0.8999  0.0587  0.1233
10143TIP3   OH254623   3.824   0.709  10.969 -0.5007 -0.1043 -0.5829
10143TIP3    H154624   3.870   0.631  10.999  0.6905  0.0937 -1.8597
10143TIP3    H254625   3.746   0.675  10.924 -0.7507 -0.4847  0.1097
10144TIP3   OH254626   0.695   6.434   9.831  0.4842 -0.2661  0.5198
10144TIP3    H154627   0.742   6.476   9.904  0.4383  3.0897 -1.1834
10144TIP3    H254628   0.763   6.388   9.782  1.0000 -0.1592  1.1214
10145TIP3   OH254629   1.753   3.924   9.718  0.2457  0.6694 -0.3324
10145TIP3    H154630   1.672   3.943   9.766  0.6022  0.2923  0.4358
10145TIP3    H254631   1.818   3.909   9.786  1.2562  2.0882 -0.9484
10146TIP3   OH254632   5.668   6.710  11.830  0.2993  0.8538  0.3043
10146TIP3    H154633   5.720   6.638  11.866  0.6848  0.5403 -0.8225
10146TIP3    H254634   5.732   6.777  11.806  0.1697  0.6533 -0.6678
10147TIP3   OH254635   0.529   5.659  12.098  0.7164  0.6633 -0.3966
10147TIP3    H154636   0.532   5.589  12.033  0.7297 -0.0808  0.3901
10147TIP3    H254637   0.587   5.629  12.169 -0.2728  0.8653  0.5265
10148TIP3   OH254638   4.019   5.685  11.399 -0.2416  0.2462 -0.1084
10148TIP3    H154639   4.105   5.691  11.440 -0.4135  0.5931  0.2072
10148TIP3    H254640   4.027   5.737  11.319  0.4429 -1.3780 -1.1441
10149TIP3   OH254641   1.929   4.811  12.187  0.5550 -0.0562 -0.1442
10149TIP3    H154642   1.982   4.865  12.128 -1.2014  0.4503 -1.3099
10149TIP3    H254643   1.893   4.873  12.250  0.7513 -0.2916  0.2022
10150TIP3   OH254644   5.827   1.966  10.713 -0.3412  0.1922  0.1167
10150TIP3    H154645   5.828   1.982  10.808 -0.0957 -0.3293  0.2045
10150TIP3    H254646   5.884   1.890  10.701 -0.6574  0.0341 -0.4065
10151TIP3   OH254647   5.361   4.679   9.276  0.4010  0.9721 -0.0290
10151TIP3    H154648   5.382   4.761   9.321  0.7577  0.7139  0.2704
10151TIP3    H254649   5.430   4.618   9.302  1.8221  1.3675 -2.4527
10152TIP3   OH254650   5.515   5.216  10.058 -0.5598  0.1502 -0.1151
10152TIP3    H154651   5.565   5.171  10.126 -0.7748  0.3475  0.1773
10152TIP3    H254652   5.490   5.299  10.098  1.8879  1.6296 -1.4279
10153TIP3   OH254653   4.986   1.805  11.151 -0.4337  0.1815 -0.1459
10153TIP3    H154654   5.006   1.719  11.188 -0.9816  1.1366  2.6083
10153TIP3    H254655   4.894   1.820  11.174 -0.5682  1.1948 -1.2591
10154TIP3   OH254656   0.313   0.473  10.554  0.0433 -0.1246  0.2506
10154TIP3    H154657   0.378   0.502  10.491 -0.1085  0.7345  0.4713
10154TIP3    H254658   0.361   0.464  10.636  0.3971 -1.9683 -0.1254
10155TIP3   OH254659   0.976   2.691  10.520 -0.4068  0.6297  0.1493
10155TIP3    H154660   0.929   2.774  10.518 -0.9712  0.3693  1.3783
10155TIP3    H254661   1.068   2.716  10.531 -0.4059  1.1116 -0.8923
10156TIP3   OH254662   4.705   5.002   9.860 -0.6871 -0.4452 -0.0142
10156TIP3    H154663   4.629   4.970   9.909 -0.6323  0.1587  0.4894
10156TIP3    H254664   4.677   5.005   9.769 -1.0877 -0.7454  0.0999
10157TIP3   OH254665   5.035   5.327   9.098  0.0559  0.4696 -0.6855
10157TIP3    H154666   5.051   5.300   9.188 -0.3321 -2.5587 -1.4243
10157TIP3    H254667   4.957   5.278   9.071 -0.2701  1.8537 -2.4702
10158TIP3   OH254668   3.784   0.976   9.573 -0.4102 -0.5823 -0.2180
10158TIP3    H154669   3.833   1.052   9.543  0.6487 -1.4168 -0.6973
10158TIP3    H254670   3.710   1.012   9.622 -1.0736  0.7916 -2.1198
10159TIP3   OH254671   4.894   5.486   9.985  0.3165 -0.0631 -0.6901
10159TIP3    H154672   4.851   5.443   9.911 -1.4904 -0.3508  0.4656
10159TIP3    H254673   4.883   5.425  10.057  1.5188  0.4860 -0.0093
10160TIP3   OH254674   0.429   0.483  12.369 -0.1754  0.0012  0.2432
10160TIP3    H154675   0.479   0.512  12.445 -1.6804  0.9420  0.9422
10160TIP3    H254676   0.492   0.439  12.313  0.9808 -0.7307  2.0400
10161TIP3   OH254677   1.231   2.747  10.591 -0.2414 -0.2542  0.8520
10161TIP3    H154678   1.306   2.713  10.541 -1.6733 -1.1420 -0.7883
10161TIP3    H254679   1.233   2.698  10.673  0.6394 -0.7045  0.5748
10162TIP3   OH254680   0.854   1.350  12.307 -0.1477 -0.2479 -0.2895
10162TIP3    H154681   0.945   1.347  12.337 -0.4653 -1.7970  0.6132
10162TIP3    H254682   0.814   1.417  12.362  0.4976  0.6756 -0.9083
10163TIP3   OH254683   6.217   2.871  12.136  0.4309 -0.0672 -0.9653
10163TIP3    H154684   6.254   2.794  12.178  2.6425 -0.4859 -3.4268
10163TIP3    H254685   6.289   2.910  12.087 -1.7448  0.5801 -4.0055
10164TIP3   OH254686   4.820   6.268  11.659  0.2696 -0.7061 -0.1791
10164TIP3    H154687   4.805   6.174  11.656  0.7488 -0.8145  0.5586
10164TIP3    H254688   4.911   6.278  11.687 -0.3275 -0.0342  1.6704
10165TIP3   OH254689   5.872   5.807  11.923 -0.1107 -0.2759 -0.5296
10165TIP3    H154690   5.801   5.826  11.862  1.7857  0.2772 -2.7314
10165TIP3    H254691   5.875   5.711  11.926  0.0967 -0.3250 -1.7750
10166TIP3   OH254692   1.081   5.666  11.470 -0.2360  0.1708  0.6500
10166TIP3    H154693   1.114   5.587  11.513  0.7294  1.1990  1.8702
10166TIP3    H254694   1.060   5.638  11.381 -1.1919 -1.7512  1.4278
10167TIP3   OH254695   1.882   4.046   9.537 -0.0925  0.2297 -0.0850
10167TIP3    H154696   1.896   4.001   9.453  1.2772 -0.6457  0.5662
10167TIP3    H254697   1.858   3.976   9.598  1.7172  0.3562  0.8638
10168TIP3   OH254698   0.907   3.244  11.098 -0.4550  0.2903 -0.2032
10168TIP3    H154699   0.893   3.190  11.176 -0.6801  0.2958 -0.2366
10168TIP3    H254700   0.858   3.199  11.029 -0.0618  0.1570 -0.3987
10169TIP3   OH254701   6.011   2.425  11.258  0.3293 -0.2617  0.0467
10169TIP3    H154702   5.944   2.492  11.250  0.3245 -0.1912  0.6233
10169TIP3    H254703   6.062   2.451  11.335  2.4017  0.8938 -1.6324
10170TIP3   OH254704   4.198   3.846   9.883  0.1277 -0.7972  0.0292
10170TIP3    H154705   4.170   3.811   9.967  0.2092 -1.1204 -0.0762
10170TIP3    H254706   4.118   3.851   9.831  0.4994 -3.7749 -1.0238
10171TIP3   OH254707   1.918   5.136  12.096  0.0630 -0.2528 -0.1325
10171TIP3    H154708   1.894   5.222  12.131 -0.8245 -0.5552  0.0113
10171TIP3    H254709   1.837   5.100  12.060  0.1082 -1.5939  0.9975
10172TIP3   OH254710   3.720   3.575  11.477  0.2857  0.4206  0.1317
10172TIP3    H154711   3.636   3.580  11.523  0.1326 -0.7559  0.0183
10172TIP3    H254712   3.718   3.648  11.416 -0.1193  1.1427  0.9907
10173TIP3   OH254713   0.691   3.440  10.588  0.0585 -0.7326  0.0581
10173TIP3    H154714   0.783   3.437  10.617  0.3146 -1.2685 -0.7727
10173TIP3    H254715   0.694   3.409  10.498 -1.1203 -2.0044  0.4351
10174TIP3   OH254716   6.062   1.239  10.928  0.2594  0.1590 -0.2466
10174TIP3    H154717   6.089   1.221  10.838 -2.5146 -1.1799 -0.9310
10174TIP3    H254718   6.122   1.188  10.982  0.9725 -0.3137 -1.4432
10175TIP3   OH254719   1.114   1.042  11.775 -0.1940 -0.6663  0.3621
10175TIP3    H154720   1.186   1.088  11.732 -0.7796 -0.0344  0.0326
10175TIP3    H254721   1.065   1.110  11.821 -1.3565 -0.8421 -0.5374
10176TIP3   OH254722   5.719   4.235  11.686  0.7129  0.2394 -0.4518
10176TIP3    H154723   5.663   4.187  11.746 -0.4040  1.3671 -0.5484
10176TIP3    H254724   5.803   4.244  11.732 -0.6267  2.6116  1.7961
10177TIP3   OH254725   2.852   3.220  10.295 -0.2355  0.6346 -0.0831
10177TIP3    H154726   2.831   3.224  10.202 -0.5227 -0.3979 -0.0787
10177TIP3    H254727   2.876   3.310  10.319 -0.9575  1.0676 -0.9580
10178TIP3   OH254728   5.780   1.892  11.620 -0.6140  0.3846 -0.1897
10178TIP3    H154729   5.835   1.836  11.675  0.2063  0.5300 -0.8334
10178TIP3    H254730   5.763   1.969  11.675  1.1693  1.0644 -0.4898
10179TIP3   OH254731   1.054   4.393   9.457  0.3357 -0.5742  0.4533
10179TIP3    H154732   1.020   4.341   9.384  0.7692 -2.9758  1.8196
10179TIP3    H254733   1.145   4.411   9.434  0.6010 -1.6957  0.5262
10180TIP3   OH254734   2.382   5.846   9.548  0.2222 -0.0907  0.8596
10180TIP3    H154735   2.314   5.885   9.604  0.8161 -0.2422  1.7099
10180TIP3    H254736   2.464   5.878   9.584  0.5998  1.2704 -1.0546
10181TIP3   OH254737   5.979   0.502   9.202 -0.2969  0.5442 -0.6229
10181TIP3    H154738   5.933   0.479   9.283  1.5475 -0.8420  0.0948
10181TIP3    H254739   5.929   0.576   9.167 -2.3589 -0.1350  0.6760
10182TIP3   OH254740   4.389   3.972  11.459 -0.3817  0.6475  0.2085
10182TIP3    H154741   4.345   4.010  11.535 -0.1155  1.2850  0.0469
10182TIP3    H254742   4.457   4.036  11.436  1.0752 -0.6049  0.8454
10183TIP3   OH254743   0.123   4.480  12.169 -0.1978  0.1037 -0.1597
10183TIP3    H154744   0.147   4.538  12.097  0.2429  0.2876  0.1310
10183TIP3    H254745   0.193   4.491  12.233 -0.8523  0.3518  0.5385
10184TIP3   OH254746   1.218   5.402  11.570 -0.1519  0.3992 -0.2668
10184TIP3    H154747   1.251   5.455  11.642 -2.5311 -1.0702  2.1037
10184TIP3    H254748   1.275   5.325  11.569 -0.5617  0.0768  0.5775
10185TIP3   OH254749   6.524   0.140   9.332 -0.0794  0.3720  0.1908
10185TIP3    H154750   6.432   0.148   9.308 -0.0629  0.9811  0.3248
10185TIP3    H254751   6.541   0.215   9.389  0.3508 -0.0651  0.6431
10186TIP3   OH254752   3.060   6.635  12.198  0.0234 -0.1228  0.5823
10186TIP3    H154753   3.010   6.716  12.184 -2.6881 -1.3996  2.1119
10186TIP3    H254754   3.056   6.589  12.115 -2.6834 -0.8123  1.0128
10187TIP3   OH254755   4.926   2.347  12.050  0.5247 -0.2518  0.0545
10187TIP3    H154756   4.947   2.425  12.101  0.3881  0.0158 -0.2932
10187TIP3    H254757   4.962   2.274  12.101 -2.1628 -0.3332  2.0936
10188TIP3   OH254758   4.633   4.482  12.064 -0.6904  0.5393  0.0217
10188TIP3    H154759   4.706   4.508  12.120 -0.2792 -0.2098 -0.1511
10188TIP3    H254760   4.672   4.476  11.976 -1.0260  0.4079 -0.1203
10189TIP3   OH254761   1.167   5.691   9.815  0.0117 -0.4399  0.2153
10189TIP3    H154762   1.238   5.749   9.788  0.0130 -0.0277  1.0655
10189TIP3    H254763   1.203   5.603   9.806 -0.0748 -0.3319 -1.3365
10190TIP3   OH254764   6.619   0.849  10.890 -0.5057  0.7368 -0.2244
10190TIP3    H154765   6.629   0.866  10.984 -0.5327 -3.9952  0.8694
10190TIP3    H254766   6.707   0.826  10.860 -0.8235  0.3705 -0.8930
10191TIP3   OH254767   4.795   2.630  11.192 -0.3384  0.0849  0.1211
10191TIP3    H154768   4.861   2.561  11.200  1.7317  1.8139 -1.1129
10191TIP3    H254769   4.828   2.702  11.246 -0.8418  1.2353 -1.0509
10192TIP3   OH254770   3.393   5.453  11.020 -0.2367  0.1292 -0.5769
10192TIP3    H154771   3.343   5.493  10.949 -0.8955 -1.3423 -0.9885
10192TIP3    H254772   3.478   5.433  10.981  0.9552  3.0633  0.2535
10193TIP3   OH254773   0.086   3.062  10.693 -0.1879  0.5650  0.0740
10193TIP3    H154774   0.069   3.003  10.766  0.4153 -0.0367 -0.2648
10193TIP3    H254775   0.154   3.121  10.725  0.5639 -0.1308 -0.2272
10194TIP3   OH254776   1.927   5.783   9.461 -0.2963  0.0157 -0.0791
10194TIP3    H154777   1.875   5.820   9.533  0.2971 -1.9533  1.4554
10194TIP3    H254778   1.989   5.725   9.504  0.7725 -0.4714 -2.1488
10195TIP3   OH254779   3.008   5.429   9.511  0.6286  0.4565  0.3663
10195TIP3    H154780   3.103   5.424   9.508  0.7266  2.0046  0.0416
10195TIP3    H254781   2.984   5.475   9.431 -0.4353 -0.2128  0.2710
10196TIP3   OH254782   3.542   3.790  10.149 -0.3578 -0.1511  0.4011
10196TIP3    H154783   3.447   3.786  10.156 -0.4677  0.1348 -0.7207
10196TIP3    H254784   3.571   3.832  10.230 -1.2463  0.3451  0.4709
10197TIP3   OH254785   6.592   2.729  10.882  0.0383 -0.5042  0.1457
10197TIP3    H154786   6.658   2.699  10.820 -0.1766 -0.5998 -0.0400
10197TIP3    H254787   6.509   2.722  10.834 -0.0533  0.0658  0.2120
10198TIP3   OH254788   3.871   1.910  11.298  0.1745  0.1076  0.6309
10198TIP3    H154789   3.936   1.839  11.296 -1.1863 -1.1527 -1.3682
10198TIP3    H254790   3.897   1.968  11.226 -2.0386 -1.5780 -1.6988
10199TIP3   OH254791   6.049   2.250  11.036 -0.1148 -0.1422 -0.6492
10199TIP3    H154792   6.145   2.247  11.037 -0.0993 -0.1814 -1.4391
10199TIP3    H254793   6.026   2.307  11.109  0.4951 -0.4733 -0.1894
10200TIP3   OH254794   5.038   1.562  11.306  0.0438 -0.0802  0.4275
10200TIP3    H154795   5.119   1.524  11.340 -0.4940 -2.0477 -0.3802
10200TIP3    H254796   4.968   1.509  11.344 -0.7808  0.5294 -0.2021
10201TIP3   OH254797   0.277   0.673   9.902 -0.5961 -0.0661  0.1972
10201TIP3    H154798   0.354   0.678   9.958  0.6434  2.5397 -1.5190
10201TIP3    H254799   0.203   0.689   9.961  0.3925 -0.2505  1.5190
10202TIP3   OH254800   0.886   1.380   9.463 -0.5945  0.3487  0.0504
10202TIP3    H154801   0.940   1.446   9.507 -0.6399 -0.4522  1.3188
10202TIP3    H254802   0.807   1.374   9.516 -0.3398 -1.1457  0.2919
10203TIP3   OH254803   5.379   3.588  11.120  0.0758 -0.6358 -0.0836
10203TIP3    H154804   5.391   3.682  11.134 -1.2305 -0.3590 -0.6474
10203TIP3    H254805   5.293   3.581  11.078 -0.3333 -2.1603  0.9206
10204TIP3   OH254806   0.665   5.925  10.426 -0.3326 -0.8480 -0.0444
10204TIP3    H154807   0.727   5.985  10.384  0.2156 -1.6279 -0.3744
10204TIP3    H254808   0.604   5.900  10.356 -2.3459  1.5151  0.7304
10205TIP3   OH254809   5.084   1.790   9.779 -0.0539  0.4892 -0.7812
10205TIP3    H154810   5.118   1.747   9.858  0.4693  1.0377 -0.7023
10205TIP3    H254811   5.057   1.717   9.723 -1.9853  0.1134  0.5512
10206TIP3   OH254812   3.676   6.064  11.969  0.0810  0.0595  0.4112
10206TIP3    H154813   3.596   6.029  11.929  0.8148 -0.3928 -0.6826
10206TIP3    H254814   3.742   5.996  11.956  1.2635  1.3858 -0.8194
10207TIP3   OH254815   1.249   0.823   9.641  0.1335 -0.1303 -0.0379
10207TIP3    H154816   1.188   0.882   9.686  0.4075  0.0837  0.0605
10207TIP3    H254817   1.311   0.882   9.598  0.3474 -0.3466 -0.0286
10208TIP3   OH254818   6.037   0.109  11.011 -0.4556 -0.2852 -0.1404
10208TIP3    H154819   6.094   0.130  11.084 -0.3416  0.0927 -0.3333
10208TIP3    H254820   6.058   0.018  10.990  0.1750 -0.1170 -0.2888
10209TIP3   OH254821   1.975   6.199   9.865 -0.8419  0.0189  0.7225
10209TIP3    H154822   2.060   6.221   9.827  0.4637 -0.7458  2.9968
10209TIP3    H254823   1.978   6.236   9.953 -2.3959 -1.0246  1.2606
10210TIP3   OH254824   1.638   3.479  10.590 -0.1074  0.2936 -0.2356
10210TIP3    H154825   1.677   3.491  10.677  0.2457  0.3875 -0.4041
10210TIP3    H254826   1.557   3.432  10.607 -0.9183  1.8019  0.3362
10211TIP3   OH254827   4.475   3.703  11.534  0.2127  0.2969  0.0605
10211TIP3    H154828   4.404   3.650  11.570  0.3488 -0.3566 -0.5983
10211TIP3    H254829   4.437   3.790  11.520 -0.1380  0.2533  0.7376
10212TIP3   OH254830   4.220   3.045   9.176 -0.2058 -0.1898  0.5766
10212TIP3    H154831   4.153   3.010   9.117  1.2010 -0.6547 -0.8035
10212TIP3    H254832   4.270   2.969   9.204  0.6725  0.2996  0.3820
10213TIP3   OH254833   0.258   5.031  11.744 -0.1453  0.0984 -0.2888
10213TIP3    H154834   0.330   4.990  11.793 -0.9659  1.6424  2.4640
10213TIP3    H254835   0.300   5.066  11.665  2.3655  1.5002  1.5060
10214TIP3   OH254836   1.812   2.548  10.414 -0.4160 -0.3170  0.2626
10214TIP3    H154837   1.756   2.617  10.451 -0.3691 -0.1952  0.1088
10214TIP3    H254838   1.899   2.587  10.411 -0.1855 -0.7440  1.1340
10215TIP3   OH254839   2.421   3.095   9.468  0.0970 -0.0634 -0.6664
10215TIP3    H154840   2.401   3.062   9.556  1.0753 -2.0113 -1.1443
10215TIP3    H254841   2.394   3.187   9.471  1.0144  0.2113  1.9914
10216TIP3   OH254842   5.710   5.234   9.220 -0.1035  0.6277 -0.2736
10216TIP3    H154843   5.624   5.273   9.237 -0.3906  0.7091 -1.7628
10216TIP3    H254844   5.694   5.140   9.218  0.0293  0.5835  0.3313
10217TIP3   OH254845   6.496   4.502  12.270 -0.5402  0.4136  0.1687
10217TIP3    H154846   6.526   4.588  12.302 -0.5367  0.2914  0.4978
10217TIP3    H254847   6.409   4.519  12.235 -1.0419  0.3266  1.3368
10218TIP3   OH254848   3.029   2.013   9.373  0.5339  0.1451  0.0254
10218TIP3    H154849   3.004   1.943   9.433 -1.2977 -0.7579 -1.6575
10218TIP3    H254850   2.953   2.071   9.371  0.2083 -0.2663 -1.9222
10219TIP3   OH254851   4.700   6.222  12.439  0.5613 -0.3577  0.2788
10219TIP3    H154852   4.612   6.185  12.432  0.6418 -0.6495  0.7660
10219TIP3    H254853   4.758   6.146  12.435  0.7896 -0.1687  0.0054
10220TIP3   OH254854   4.376   2.248   9.260  0.0637  0.8083  0.0460
10220TIP3    H154855   4.456   2.280   9.219  0.5848  0.8721  1.0628
10220TIP3    H254856   4.386   2.153   9.263  0.1155  0.8175  0.1871
10221TIP3   OH254857   4.143   5.005   9.831 -0.1397  0.6244  0.0754
10221TIP3    H154858   4.142   5.054   9.749 -0.8218  0.8524  0.2140
10221TIP3    H254859   4.195   5.058   9.890 -0.7715  1.1311  0.1869
10222TIP3   OH254860   0.393   2.058   9.987  0.1525 -0.1942 -0.2336
10222TIP3    H154861   0.326   2.087  10.049 -1.5078 -2.3094 -0.8820
10222TIP3    H254862   0.395   1.963   9.998  2.1320 -0.2935 -1.1916
10223TIP3   OH254863   3.342   0.628   9.795 -0.3014 -1.1949  0.2370
10223TIP3    H154864   3.370   0.536   9.797  1.7330 -0.6542 -0.1767
10223TIP3    H254865   3.260   0.628   9.746 -0.3303 -2.7793  0.2442
10224TIP3   OH254866   6.410   4.285  10.376  0.3135  0.2038 -0.0514
10224TIP3    H154867   6.447   4.367  10.410  0.9306  0.0148 -0.2486
10224TIP3    H254868   6.334   4.268  10.432  1.3174 -0.1264  1.2824
10225TIP3   OH254869   4.401   6.377  12.517 -0.3968  0.2841 -0.6161
10225TIP3    H154870   4.417   6.370  12.423 -0.5747 -1.0532 -0.5673
10225TIP3    H254871   4.339   6.307  12.536 -1.2167  1.2405  0.3243
10226TIP3   OH254872   3.217   4.975  10.348 -0.0100 -0.0515 -0.8231
10226TIP3    H154873   3.196   5.068  10.346 -0.3266 -0.1229 -0.8464
10226TIP3    H254874   3.185   4.945  10.434  0.0906 -0.1396 -0.8156
10227TIP3   OH254875   4.718   3.419  10.862 -0.2574 -0.4098 -0.0825
10227TIP3    H154876   4.653   3.471  10.816 -0.0052  0.4414  0.4998
10227TIP3    H254877   4.754   3.360  10.796 -1.3368 -0.6221 -0.4952
10228TIP3   OH254878   2.542   2.544  11.260  0.2109 -0.1254  0.0984
10228TIP3    H154879   2.590   2.561  11.178 -0.5742  1.1389 -0.1315
10228TIP3    H254880   2.607   2.559  11.329  0.7975 -0.9072 -0.2655
10229TIP3   OH254881   4.805   0.984  11.045  0.1117 -0.0245  0.5057
10229TIP3    H154882   4.871   0.964  10.978 -0.8194  1.6661 -1.0130
10229TIP3    H254883   4.734   0.921  11.028 -0.5329  1.0093 -0.7757
10230TIP3   OH254884   0.701   5.395  10.097  0.5621  0.4716 -0.0817
10230TIP3    H154885   0.656   5.456  10.039  0.2514 -0.7668 -1.2046
10230TIP3    H254886   0.634   5.367  10.160  0.8035  1.5406  0.6686
10231TIP3   OH254887   0.399   5.175   9.981  0.7397  0.1290  0.1554
10231TIP3    H154888   0.340   5.151   9.909  1.1026 -1.4287  0.3417
10231TIP3    H254889   0.460   5.238   9.942 -0.3516  0.9213 -0.3244
10232TIP3   OH254890   3.330   4.804   9.733 -0.4904  0.2586 -0.4111
10232TIP3    H154891   3.273   4.808   9.657 -0.0307  0.6472 -0.7471
10232TIP3    H254892   3.354   4.895   9.750 -1.6265  0.3367  1.0148
10233TIP3   OH254893   5.156   1.175  10.485  0.2769  0.1116 -0.4069
10233TIP3    H154894   5.232   1.201  10.538 -0.0629  2.3730 -0.9598
10233TIP3    H254895   5.082   1.186  10.544  0.2808 -1.5967 -0.0339
10234TIP3   OH254896   2.189   0.064  10.457  0.6912  0.1025  0.1215
10234TIP3    H154897   2.222   0.097  10.374  0.4984 -1.2974 -0.5461
10234TIP3    H254898   2.131  -0.009  10.433 -0.7049  0.7272  1.3959
10235TIP3   OH254899   4.641   3.037   9.302  0.0747 -0.4602  0.6817
10235TIP3    H154900   4.620   2.951   9.266  1.0637 -0.6367  0.4964
10235TIP3    H254901   4.613   3.099   9.235  0.5903 -0.7136  0.2268
10236TIP3   OH254902   3.066   6.319  10.692  0.2968  0.2211 -0.0018
10236TIP3    H154903   2.995   6.382  10.685 -0.4066 -0.6040 -0.6830
10236TIP3    H254904   3.032   6.240  10.649  1.5782 -0.2387 -0.2295
10237TIP3   OH254905   5.217   2.298  10.340  0.9196  0.3269  0.3449
10237TIP3    H154906   5.203   2.289  10.246 -1.5343 -0.4034  0.7214
10237TIP3    H254907   5.258   2.384  10.350  2.5334 -0.1465 -1.4426
10238TIP3   OH254908   2.097   5.803  12.284  0.5068 -0.2950 -0.6199
10238TIP3    H154909   2.126   5.793  12.375 -1.5082 -2.2123 -0.1067
10238TIP3    H254910   2.107   5.897  12.267  0.3986  0.2484  1.8080
10239TIP3   OH254911   5.195   3.303   9.632  0.2776  0.2368  0.3016
10239TIP3    H154912   5.127   3.362   9.599 -0.8626 -0.9411  0.4633
10239TIP3    H254913   5.174   3.218   9.593  1.0667 -0.3758  1.1630
10240TIP3   OH254914   6.395   1.456  11.787 -0.1855  0.1582  0.0754
10240TIP3    H154915   6.473   1.432  11.838  0.5191  0.4389 -0.8363
10240TIP3    H254916   6.324   1.458  11.851  0.3251 -1.2708  0.7307
10241TIP3   OH254917   5.833   3.754  10.481  0.1164  0.1713 -0.0219
10241TIP3    H154918   5.738   3.751  10.473  0.1596  0.4602 -0.7186
10241TIP3    H254919   5.865   3.698  10.410  0.4878  1.3646 -0.8377
10242TIP3   OH254920   6.053   1.433  10.582  0.7512  0.4919 -0.3724
10242TIP3    H154921   6.008   1.428  10.667  0.5131  0.4477 -0.5011
10242TIP3    H254922   6.026   1.355  10.535  0.4965  0.7613 -0.6791
10243TIP3   OH254923   4.859   0.507  10.102 -0.0762 -0.0543 -0.4165
10243TIP3    H154924   4.819   0.429  10.139 -0.9110  0.7587  0.4443
10243TIP3    H254925   4.789   0.549  10.053  0.0651  0.7185  0.0328
10244TIP3   OH254926   6.026   4.345   9.450  0.4151 -0.1640 -0.3234
10244TIP3    H154927   5.968   4.375   9.380 -1.4084 -2.4566  0.0611
10244TIP3    H254928   6.075   4.423   9.475 -2.5060  1.9971 -0.7008
10245TIP3   OH254929   1.229   5.931  12.200  0.1004 -0.1145 -0.2891
10245TIP3    H154930   1.219   5.886  12.284  2.0588  1.1128  0.6693
10245TIP3    H254931   1.317   5.969  12.203 -0.6339  1.8950 -1.9799
10246TIP3   OH254932   0.727   2.081  10.595  0.1789  0.1321 -0.1362
10246TIP3    H154933   0.732   2.168  10.635 -0.9932 -0.4772  1.4688
10246TIP3    H254934   0.645   2.082  10.546  0.3415  0.0467 -0.4098
10247TIP3   OH254935   2.638   5.316  13.194 -0.5938 -0.3048  0.2163
10247TIP3    H154936   2.712   5.268  13.231 -1.4144 -1.0424  0.9572
10247TIP3    H254937   2.571   5.249  13.180 -0.7606  0.1530 -1.4770
10248TIP3   OH254938   0.633   3.058   9.784  0.4376  0.1856 -0.0799
10248TIP3    H154939   0.604   3.145   9.756  1.0945  0.0511 -1.2386
10248TIP3    H254940   0.699   3.033   9.720 -0.7451 -1.7757 -0.6116
10249TIP3   OH254941   3.892   3.889  11.301 -0.4065  0.0440 -0.2362
10249TIP3    H154942   3.854   3.839  11.229 -1.1681  1.4718 -0.8858
10249TIP3    H254943   3.942   3.958  11.257  2.3995 -1.3289  0.6002
10250TIP3   OH254944   6.087   2.627  10.738  0.1335 -0.6793 -0.4024
10250TIP3    H154945   6.173   2.666  10.724 -0.2214  0.7454  0.9895
10250TIP3    H254946   6.069   2.577  10.658  0.0355  3.1820 -3.0699
10251TIP3   OH254947   4.676   5.443  12.085  0.1518 -0.1223  0.1559
10251TIP3    H154948   4.704   5.355  12.109 -2.8594 -1.3806 -0.5241
10251TIP3    H254949   4.642   5.481  12.167  0.5404  0.0668  0.2361
10252TIP3   OH254950   4.019   1.132   9.800 -0.5508  0.0071  0.0162
10252TIP3    H154951   3.954   1.202   9.802 -0.4366  0.1064  0.4522
10252TIP3    H254952   4.061   1.140   9.715 -0.7728  0.2550 -0.0701
10253TIP3   OH254953   4.890   0.261   9.673  0.2242 -0.2424  0.1750
10253TIP3    H154954   4.956   0.276   9.605  0.7004  0.9608  0.8578
10253TIP3    H254955   4.940   0.226   9.747  0.0415  0.2476  0.5394
10254TIP3   OH254956   1.522   2.360  11.450  0.0682 -0.0518  0.2771
10254TIP3    H154957   1.527   2.456  11.442  2.3237 -0.0643  0.6330
10254TIP3    H254958   1.553   2.328  11.365  0.5130 -0.4373  0.5809
10255TIP3   OH254959   0.468   5.008   9.640  0.3733  0.7030  0.2927
10255TIP3    H154960   0.475   4.912   9.640 -0.2654  0.6491  0.7653
10255TIP3    H254961   0.375   5.025   9.656  0.5947  1.4022  0.9093
10256TIP3   OH254962   1.665   6.604   9.447  0.1632  0.2466  0.1964
10256TIP3    H154963   1.691   6.517   9.477  0.2817  0.5305  0.9385
10256TIP3    H254964   1.711   6.664   9.505 -1.4816  0.7768  1.0116
10257TIP3   OH254965   4.728   4.149   9.863 -0.3373  0.4001  0.0862
10257TIP3    H154966   4.651   4.183   9.907  1.0920  2.1640  1.3668
10257TIP3    H254967   4.694   4.112   9.781 -2.3173  3.1519 -0.4906
10258TIP3   OH254968   0.767   6.493  10.511  0.3426  0.7180  0.3914
10258TIP3    H154969   0.764   6.505  10.416  2.9494 -1.8679 -0.1752
10258TIP3    H254970   0.861   6.496  10.532 -0.1695  1.3522  2.9470
10259TIP3   OH254971   3.910   0.905  12.019  0.8892 -0.0467 -0.6066
10259TIP3    H154972   3.980   0.845  12.045 -0.4911 -1.9215 -1.0033
10259TIP3    H254973   3.936   0.935  11.932  0.7001 -1.6104 -1.2390
10260TIP3   OH254974   2.512   1.356  12.521 -0.2630  0.0842  0.2943
10260TIP3    H154975   2.585   1.402  12.563  0.8787 -1.7137  0.3789
10260TIP3    H254976   2.540   1.345  12.430 -0.7419 -0.0012  0.1528
10261TIP3   OH254977   5.476   2.341  10.040  0.5305 -0.0355 -0.5098
10261TIP3    H154978   5.495   2.431  10.014  3.2877 -0.6768 -0.9805
10261TIP3    H254979   5.518   2.331  10.125  1.6193 -1.2595 -1.1447
10262TIP3   OH254980   2.024   6.558  10.375  0.4988 -0.5082  0.1065
10262TIP3    H154981   1.947   6.525  10.327  0.7753 -0.7721 -0.1661
10262TIP3    H254982   2.097   6.505  10.341  0.6969 -0.7192  0.8469
10263TIP3   OH254983   0.181   2.318  11.401  0.0916  0.5838 -0.8028
10263TIP3    H154984   0.136   2.388  11.449  0.1046 -0.8592  1.4305
10263TIP3    H254985   0.129   2.240  11.418  1.6226 -0.4988 -0.8758
10264TIP3   OH254986   5.501   1.204  12.407  0.4335  0.3362 -0.7342
10264TIP3    H154987   5.574   1.168  12.457  1.0751  0.0785 -1.8273
10264TIP3    H254988   5.513   1.299  12.411  0.9037  0.2895 -1.0088
10265TIP3   OH254989   6.593   4.634  11.053 -0.4783  0.4462  0.1811
10265TIP3    H154990   6.633   4.585  10.980  0.1912  0.6045  0.4308
10265TIP3    H254991   6.505   4.654  11.023 -0.3947  0.0236 -0.3637
10266TIP3   OH254992   5.516   2.142   9.855  0.2378  0.0731  0.0265
10266TIP3    H154993   5.540   2.076   9.921 -0.3021  0.8997  1.0882
10266TIP3    H254994   5.481   2.215   9.907  4.7052  3.0861 -0.6861
10267TIP3   OH254995   1.223   5.284  12.223  0.4556  0.3367 -0.1900
10267TIP3    H154996   1.215   5.236  12.306  0.1715  0.0557 -0.3806
10267TIP3    H254997   1.174   5.366  12.239 -0.4837 -0.1673 -0.4194
10268TIP3   OH254998   1.070   1.749  10.041  0.2727 -0.5507  0.5372
10268TIP3    H154999   1.053   1.744  10.135 -0.6744  2.1202  0.5913
10268TIP3    H255000   1.059   1.842  10.019 -1.8754 -1.3809 -2.6153
10269TIP3   OH255001   5.466   6.656   9.436 -0.0382 -0.2942 -0.2841
10269TIP3    H155002   5.389   6.618   9.478 -0.7576  0.8136 -0.5895
10269TIP3    H255003   5.489   6.731   9.491 -0.3149  0.4998 -1.2276
10270TIP3   OH255004   0.624   6.123  12.553  0.6131  0.5069 -0.2869
10270TIP3    H155005   0.589   6.093  12.637  0.9068 -1.7683 -0.9263
10270TIP3    H255006   0.596   6.215  12.548  0.3224  0.6261  2.1286
10271TIP3   OH255007   4.326   4.882  10.935 -0.1272  0.3706 -0.4007
10271TIP3    H155008   4.355   4.792  10.917  1.0466  0.4220  1.0047
10271TIP3    H255009   4.407   4.930  10.952 -0.8359  1.3295  0.3557
10272TIP3   OH255010   5.739   6.693  12.555  0.2218  0.3220  0.5257
10272TIP3    H155011   5.815   6.688  12.497 -0.2967  0.0460 -0.1375
10272TIP3    H255012   5.745   6.612  12.607 -0.1698 -0.1988 -0.2258
10273TIP3   OH255013   2.020   5.370  10.902  0.4397  0.7734  0.0248
10273TIP3    H155014   1.964   5.357  10.978  0.2622  4.3396  0.6746
10273TIP3    H255015   2.100   5.409  10.938  1.7281 -0.5224 -1.3177
10274TIP3   OH255016   6.514   1.577  11.583 -0.4944  0.5748 -0.3635
10274TIP3    H155017   6.444   1.580  11.518 -0.5733  2.0214 -0.2610
10274TIP3    H255018   6.479   1.523  11.654 -0.5597 -0.6911 -1.3322
10275TIP3   OH255019   6.301   4.251  10.132 -0.2025 -0.0555  0.9156
10275TIP3    H155020   6.324   4.255  10.225  0.2973 -1.0248  0.8541
10275TIP3    H255021   6.323   4.337  10.098 -1.3171  0.6421  1.8919
10276TIP3   OH255022   6.382   5.187   9.475 -0.1047  0.6036  0.1620
10276TIP3    H155023   6.365   5.093   9.483 -1.3912  0.5472 -2.2134
10276TIP3    H255024   6.420   5.197   9.388  0.5090  2.2478  0.5828
10277TIP3   OH255025   2.519   0.093   9.557 -0.1303  0.2453  0.2518
10277TIP3    H155026   2.550   0.078   9.467 -1.5287  0.0610 -0.2262
10277TIP3    H255027   2.502   0.188   9.561  1.8474  0.6288  0.9998
10278TIP3   OH255028   0.938   1.541  10.712  0.2239 -0.0684 -0.2354
10278TIP3    H155029   1.025   1.514  10.741 -0.0223 -0.3695  0.2367
10278TIP3    H255030   0.935   1.517  10.619  0.2233 -1.1665  0.0347
10279TIP3   OH255031   3.359   2.490   9.616  0.0237  0.2405  0.0761
10279TIP3    H155032   3.336   2.402   9.646  0.0276 -0.7458 -2.5277
10279TIP3    H255033   3.444   2.508   9.657 -0.5809 -0.3631  1.6809
10280TIP3   OH255034   5.461   0.278   9.413 -0.0230 -0.6105 -0.0472
10280TIP3    H155035   5.490   0.359   9.370 -1.7316 -0.0373 -0.2079
10280TIP3    H255036   5.492   0.286   9.503 -0.1114  0.1966 -0.0777
10281TIP3   OH255037   4.058   3.959  10.579 -0.9452  0.0622 -0.4056
10281TIP3    H155038   4.145   3.949  10.540 -1.7067  2.2508 -2.9566
10281TIP3    H255039   4.002   3.898  10.531 -1.1110 -0.3391  0.2795
10282TIP3   OH255040   3.795   2.305  10.795 -0.0485 -0.4012 -0.5594
10282TIP3    H155041   3.843   2.277  10.718 -1.6562 -0.7103 -1.5057
10282TIP3    H255042   3.703   2.288  10.773 -0.6771  1.0099  0.7917
10283TIP3   OH255043   0.984   3.060   9.191 -0.0415 -0.3836 -0.2515
10283TIP3    H155044   1.059   3.107   9.228  0.0779 -0.3737 -0.4999
10283TIP3    H255045   0.908   3.112   9.216  0.1085  0.0579 -0.7024
10284TIP3   OH255046   3.095   3.904   9.864  0.2232  0.5262  0.0411
10284TIP3    H155047   3.129   3.831   9.917 -2.7212 -0.7656  0.3445
10284TIP3    H255048   3.084   3.976   9.927 -1.5334 -0.4174  0.8766
10285TIP3   OH255049   2.518   2.612   9.654 -0.2050  0.1215  0.8043
10285TIP3    H155050   2.488   2.539   9.599  0.5547  0.3604  0.0619
10285TIP3    H255051   2.481   2.690   9.612 -0.7480  0.2040  1.4164
10286TIP3   OH255052   2.111   0.284  13.103 -0.2688  0.1521 -0.4614
10286TIP3    H155053   2.119   0.374  13.069 -1.2028  0.1049 -0.8191
10286TIP3    H255054   2.170   0.233  13.048  0.2702  0.5428 -0.2578
10287TIP3   OH255055   6.097   0.825  10.478 -0.2162 -0.6966 -0.1199
10287TIP3    H155056   6.176   0.872  10.453 -1.5334  0.1220 -3.2500
10287TIP3    H255057   6.118   0.784  10.562  3.0684  0.4479 -0.2668
10288TIP3   OH255058   0.110   1.617  10.462 -0.0093  0.2929 -0.6175
10288TIP3    H155059   0.139   1.700  10.425  1.8614 -0.3655 -0.7361
10288TIP3    H255060   0.104   1.634  10.556  1.0620  0.3820 -0.5594
10289TIP3   OH255061   0.839   2.088  11.044  0.6881 -0.4434  1.1611
10289TIP3    H155062   0.920   2.045  11.071  0.9442 -0.5897  0.2170
10289TIP3    H255063   0.827   2.158  11.107  0.9463 -1.1161  1.9741
10290TIP3   OH255064   0.904   0.413  12.235 -0.1650 -0.4618  0.2282
10290TIP3    H155065   0.906   0.436  12.328  1.7549 -0.8835  0.3277
10290TIP3    H255066   0.995   0.417  12.207 -0.8476  1.6946 -2.1722
10291TIP3   OH255067   3.992   2.573  10.026 -0.3336 -0.2674 -0.2431
10291TIP3    H155068   3.916   2.516  10.013 -0.1695 -0.5147 -0.1272
10291TIP3    H255069   3.997   2.585  10.121 -0.2777 -0.1851 -0.2568
10292TIP3   OH255070   0.782   3.416  10.050  0.1832 -0.5389  0.3558
10292TIP3    H155071   0.833   3.336  10.065 -1.2129 -1.1516  2.2751
10292TIP3    H255072   0.817   3.478  10.114  1.6917  0.6747 -1.5497
10293TIP3   OH255073   4.129   0.662  11.782 -0.3399  0.0322  0.2808
10293TIP3    H155074   4.191   0.716  11.832 -0.5569  0.0402  0.5451
10293TIP3    H255075   4.178   0.582  11.762 -0.2031  0.0899  0.3808
10294TIP3   OH255076   1.570   0.230  10.225  0.0479  0.0965  0.3870
10294TIP3    H155077   1.603   0.145  10.196 -0.2078 -0.2934  1.2181
10294TIP3    H255078   1.528   0.213  10.309 -1.7365  0.7041 -0.3394
10295TIP3   OH255079   4.375   2.863   9.354  0.2870 -0.2108 -0.2665
10295TIP3    H155080   4.383   2.920   9.430 -1.1220 -0.7344  0.3078
10295TIP3    H255081   4.393   2.775   9.387 -3.3054 -0.9031  0.2574
10296TIP3   OH255082   3.075   3.552  11.035  0.5943 -0.5791  0.0432
10296TIP3    H155083   2.986   3.576  11.062 -0.4125 -2.0172 -1.7937
10296TIP3    H255084   3.118   3.636  11.016 -0.8920  0.0727 -0.5760
10297TIP3   OH255085   2.696   3.057  11.349  0.3660 -0.3390 -0.3536
10297TIP3    H155086   2.631   3.078  11.416  1.2709  0.4794  0.3010
10297TIP3    H255087   2.780   3.060  11.396  1.1654  1.5799 -1.7755
10298TIP3   OH255088   1.302   2.941   9.589  0.3154 -0.0807  0.1106
10298TIP3    H155089   1.225   2.890   9.611  0.4158 -0.3206 -0.0945
10298TIP3    H255090   1.370   2.910   9.649  0.1572  0.3917  0.5475
10299TIP3   OH255091   0.624   3.696  10.738  0.3417  0.4836  0.1423
10299TIP3    H155092   0.654   3.621  10.687  2.8331  0.2642  1.7364
10299TIP3    H255093   0.645   3.772  10.683 -1.2309  0.1201 -1.0294
10300TIP3   OH255094   2.054   1.655  12.093  0.0645 -0.2833 -0.3239
10300TIP3    H155095   2.137   1.698  12.116 -0.1262 -0.6379  1.1332
10300TIP3    H255096   2.080   1.567  12.065  0.1688 -0.4799  0.3785
10301TIP3   OH255097   1.547   0.433  10.901  0.2689 -0.2668 -0.1244
10301TIP3    H155098   1.516   0.405  10.987 -0.4732  2.7102  0.7237
10301TIP3    H255099   1.475   0.413  10.842 -0.1905 -0.2294  0.4077
10302TIP3   OH255100   0.363   5.665  10.815 -0.1457 -0.0909  0.3140
10302TIP3    H155101   0.365   5.755  10.782 -0.1014 -0.3130 -0.2909
10302TIP3    H255102   0.328   5.674  10.904  0.5195  0.6013  0.5223
10303TIP3   OH255103   3.038   1.002   9.474  0.1044 -0.1656  0.3935
10303TIP3    H155104   3.053   1.008   9.569 -0.9066 -1.9154  0.7050
10303TIP3    H255105   2.978   0.929   9.464  0.7406 -0.4641 -1.6773
10304TIP3   OH255106   6.309   2.943   9.414 -0.3255 -0.3946 -0.0737
10304TIP3    H155107   6.342   2.970   9.499  0.7660 -0.0869 -0.5780
10304TIP3    H255108   6.221   2.980   9.409  0.1977  0.9220  0.2729
10305TIP3   OH255109   1.301   4.648   9.612 -0.3999 -0.0275 -0.3001
10305TIP3    H155110   1.358   4.613   9.681  0.2659  2.4272  0.4726
10305TIP3    H255111   1.214   4.613   9.633  0.0449 -0.4342  0.9689
10306TIP3   OH255112   3.309   2.320  11.663  0.4616 -0.6511 -0.0916
10306TIP3    H155113   3.216   2.299  11.661  0.2841  0.0973 -0.2212
10306TIP3    H255114   3.315   2.394  11.724  0.6221  0.8583 -1.8385
10307TIP3   OH255115   5.159   6.257  10.673  0.0509  0.3775 -0.5771
10307TIP3    H155116   5.186   6.337  10.627 -1.8325  0.9408 -0.7908
10307TIP3    H255117   5.195   6.186  10.621 -0.5758  1.0481 -1.9872
10308TIP3   OH255118   2.836   2.905  10.977 -0.7343  0.5163  0.4735
10308TIP3    H155119   2.769   2.859  10.927 -1.3284 -0.2219  1.9030
10308TIP3    H255120   2.788   2.952  11.045  0.1927 -0.4967  1.8863
10309TIP3   OH255121   0.008   0.857  11.130 -0.2778  0.3990  0.5172
10309TIP3    H155122   0.040   0.925  11.189  1.4508 -1.5495  1.9631
10309TIP3    H255123   0.016   0.776  11.180  1.1168 -1.3551 -2.2966
10310TIP3   OH255124   3.482   5.802  11.555 -0.0962  0.3680 -0.1535
10310TIP3    H155125   3.443   5.881  11.518  0.2361  0.4424 -0.3442
10310TIP3    H255126   3.452   5.801  11.646  0.8219  1.3208  0.1716
10311TIP3   OH255127   3.892   4.464  11.577  0.1860 -0.8522 -0.0955
10311TIP3    H155128   3.932   4.479  11.662 -1.5367  1.8514  0.3755
10311TIP3    H255129   3.940   4.521  11.517 -1.8497  1.3635  0.2148
10312TIP3   OH255130   6.705   1.839   9.985  0.6319  0.7190  0.2099
10312TIP3    H155131   6.765   1.780  10.030 -0.3577 -0.6552 -0.1975
10312TIP3    H255132   6.618   1.814  10.016  0.0056  0.4360 -1.6267
10313TIP3   OH255133   5.450   1.511  11.853  0.0062 -0.3757  0.4149
10313TIP3    H155134   5.376   1.476  11.805 -1.2063 -0.4287  2.2277
10313TIP3    H255135   5.488   1.577  11.795  0.1230 -2.1028 -1.5698
10314TIP3   OH255136   1.627   0.554  11.469  0.4494 -0.4339 -0.2147
10314TIP3    H155137   1.604   0.637  11.428 -0.6290 -0.6661 -0.0890
10314TIP3    H255138   1.681   0.579  11.544  1.0879  0.0765 -0.8191
10315TIP3   OH255139   4.230   2.405   9.537 -0.2885  0.5543  0.2014
10315TIP3    H155140   4.212   2.313   9.515  2.9303  0.1083 -1.1742
10315TIP3    H255141   4.178   2.421   9.616 -3.6248 -1.3164 -1.3884
10316TIP3   OH255142   3.608   0.602  10.813 -0.0930  0.0792  0.1659
10316TIP3    H155143   3.641   0.552  10.738  0.9316  1.4261 -0.3313
10316TIP3    H255144   3.603   0.538  10.884  0.8096 -0.8166 -0.5419
10317TIP3   OH255145   2.978   0.739   9.131  0.0242  0.4431  0.2502
10317TIP3    H155146   2.950   0.810   9.188 -0.4978 -0.7632  1.5538
10317TIP3    H255147   3.043   0.690   9.182  0.8889  0.3695 -0.8816
10318TIP3   OH255148   0.719   6.134  10.269  0.4071 -0.2148 -0.2487
10318TIP3    H155149   0.632   6.172  10.267  1.3448  2.0862 -0.3717
10318TIP3    H255150   0.737   6.108  10.179 -0.8877 -2.7146  0.1146
10319TIP3   OH255151   6.648   2.046   9.552  0.3812 -0.7501  0.3388
10319TIP3    H155152   6.645   1.959   9.592 -1.5753 -1.2468 -0.7718
10319TIP3    H255153   6.572   2.091   9.588  0.5270 -0.0339 -0.2359
10320TIP3   OH255154   1.939   0.951  12.914  0.5250 -0.9247 -0.1465
10320TIP3    H155155   1.916   1.019  12.977 -1.1817 -0.7444 -0.8899
10320TIP3    H255156   2.034   0.956  12.906  0.7698 -0.8464  2.2479
10321TIP3   OH255157   2.629   2.694  12.293  0.1955 -0.3233  0.5336
10321TIP3    H155158   2.704   2.698  12.351  0.6931  1.1816 -0.1501
10321TIP3    H255159   2.572   2.765  12.323  0.9141  1.1357 -1.3331
10322TIP3   OH255160   5.594   4.103  11.481 -0.4505 -0.4762 -0.0696
10322TIP3    H155161   5.562   4.019  11.515  1.6011 -0.9226  0.9414
10322TIP3    H255162   5.614   4.154  11.560 -1.0575  0.7494 -0.6736
10323TIP3   OH255163   2.660   2.473  10.981 -0.6678 -0.1992  0.2697
10323TIP3    H155164   2.643   2.454  10.888  2.9858 -0.1898 -0.5486
10323TIP3    H255165   2.753   2.455  10.992 -1.0623 -0.6159  4.1108
10324TIP3   OH255166   5.086   0.487  11.315  0.4382 -0.0860 -0.5285
10324TIP3    H155167   5.076   0.463  11.408  0.3098  0.8345 -0.2888
10324TIP3    H255168   5.138   0.567  11.317 -1.5619  1.3254 -1.0517
10325TIP3   OH255169   4.194   1.690  11.820  0.3884 -0.1825 -0.1328
10325TIP3    H155170   4.133   1.661  11.753 -2.2306 -0.8728  2.3643
10325TIP3    H255171   4.213   1.611  11.872 -0.7031  0.9667  2.1485
10326TIP3   OH255172   5.701   2.937  10.946 -0.3867 -0.4046 -0.2899
10326TIP3    H155173   5.787   2.977  10.934 -1.7506  2.1458 -2.4762
10326TIP3    H255174   5.643   2.984  10.886 -3.0574 -2.9886  0.0129
10327TIP3   OH255175   1.825   5.560  11.241  0.0967 -0.3982  0.1258
10327TIP3    H155176   1.733   5.537  11.247  0.2160 -1.0660 -0.4915
10327TIP3    H255177   1.870   5.478  11.221  0.6641  0.1248 -0.8728
10328TIP3   OH255178   4.568   2.600  11.402  0.0375 -0.6119 -0.1560
10328TIP3    H155179   4.639   2.557  11.449 -1.5244 -0.1897  2.8577
10328TIP3    H255180   4.492   2.544  11.418 -1.2886  1.3448  0.9222
10329TIP3   OH255181   5.663   4.484  11.948 -0.2864  0.6018 -0.3138
10329TIP3    H155182   5.649   4.517  12.037 -1.4833 -0.7314  0.0216
10329TIP3    H255183   5.679   4.391  11.959 -1.7455  0.1661 -1.5611
10330TIP3   OH255184   3.635   0.960  11.006 -0.1857  0.0222 -0.0579
10330TIP3    H155185   3.639   0.996  10.917  1.1178  1.1730  0.4236
10330TIP3    H255186   3.691   0.883  11.003  0.6572  0.6187 -0.0159
10331TIP3   OH255187   0.222   4.241  11.387  0.1779 -0.2738 -0.0641
10331TIP3    H155188   0.216   4.226  11.481  1.2360 -1.8918 -0.2231
10331TIP3    H255189   0.259   4.161  11.352 -0.2084  0.2978 -1.8819
10332TIP3   OH255190   1.729   5.639   9.698  0.1903 -0.1092 -0.4479
10332TIP3    H155191   1.648   5.626   9.648 -0.4313 -1.9533  0.9398
10332TIP3    H255192   1.777   5.557   9.689  1.0111  0.2699  0.3142
10333TIP3   OH255193   0.608   2.281  11.527  0.2817 -0.6052 -1.0512
10333TIP3    H155194   0.566   2.308  11.445 -1.3031 -1.6007 -0.6272
10333TIP3    H255195   0.581   2.190  11.538  1.8051 -0.9876 -0.2199
10334TIP3   OH255196   2.096   5.699  11.915  0.2580 -0.5866 -0.2520
10334TIP3    H155197   2.004   5.722  11.927  0.1954  0.4422 -2.2304
10334TIP3    H255198   2.097   5.604  11.912 -0.7548 -0.6130 -0.2298
10335TIP3   OH255199   2.515   1.147  11.146  0.1641  0.3629  0.2434
10335TIP3    H155200   2.554   1.158  11.059  0.6112  0.7351  0.4879
10335TIP3    H255201   2.484   1.056  11.147 -1.0236  0.7341 -0.7732
10336TIP3   OH255202   2.684   4.803  11.257  0.0840 -0.1622  0.1215
10336TIP3    H155203   2.719   4.779  11.344 -0.1502 -0.3062  0.1774
10336TIP3    H255204   2.762   4.827  11.206  0.1143  1.0879  0.7251
10337TIP3   OH255205   5.632   5.894  12.081  0.1464  0.1497 -0.2953
10337TIP3    H155206   5.702   5.862  12.024  0.4499  0.3160 -0.0105
10337TIP3    H255207   5.580   5.816  12.101  0.5133 -0.0510 -0.1295
10338TIP3   OH255208   0.219   0.775  10.896 -0.3425  0.3711 -0.2373
10338TIP3    H155209   0.183   0.772  10.984 -2.4194  1.6329 -0.9813
10338TIP3    H255210   0.155   0.728  10.842  0.6395  0.0596 -1.1784
10339TIP3   OH255211   2.538   4.313  12.033  0.4536 -0.2991  0.5369
10339TIP3    H155212   2.562   4.221  12.031  0.0683 -0.4073  0.6916
10339TIP3    H255213   2.552   4.344  11.944 -1.0695 -0.9434  0.0459
10340TIP3   OH255214   5.535   4.622  11.751 -0.3477 -0.5053  0.0747
10340TIP3    H155215   5.584   4.578  11.820 -0.5057  0.5704  0.9014
10340TIP3    H255216   5.444   4.619  11.780 -0.1308  2.5490  1.5063
10341TIP3   OH255217   4.078   5.025  11.049  0.4789  0.5118 -0.1917
10341TIP3    H155218   4.124   5.108  11.036  2.6498 -0.3253  1.4929
10341TIP3    H255219   4.139   4.959  11.015 -0.1531 -0.5531  0.6928
10342TIP3   OH255220   2.844   4.416  11.067 -0.6968  0.4327 -0.2047
10342TIP3    H155221   2.908   4.346  11.069 -0.8692  0.2875  1.0476
10342TIP3    H255222   2.871   4.471  10.993 -1.0410 -1.3530 -1.7469
10343TIP3   OH255223   1.647   4.981  11.442 -0.0993  0.6072 -0.7505
10343TIP3    H155224   1.557   4.997  11.413 -1.1821 -1.3805  1.2612
10343TIP3    H255225   1.668   4.894  11.408  0.0028 -0.1300  1.1094
10344TIP3   OH255226   4.106   3.075  12.061 -0.1913 -0.2561  0.5533
10344TIP3    H155227   4.168   3.038  12.124  0.8791  1.0933  0.3482
10344TIP3    H255228   4.061   2.999  12.024  1.5366 -1.3164  0.5080
10345TIP3   OH255229   2.970   0.360  10.359 -0.0310  0.0472  0.3648
10345TIP3    H155230   2.938   0.417  10.289 -0.5692  0.3210  0.8291
10345TIP3    H255231   3.045   0.315  10.320  1.4202  2.2312  0.4771
10346TIP3   OH255232   5.791   6.357  11.144  0.2102  0.8274 -0.3121
10346TIP3    H155233   5.749   6.272  11.135 -0.5001  0.7011  2.9276
10346TIP3    H255234   5.869   6.352  11.089  1.1557 -2.5844  1.1534
10347TIP3   OH255235   0.272   2.359  12.427 -0.0406  0.5800 -0.8730
10347TIP3    H155236   0.195   2.391  12.475 -0.3127 -1.3983  0.1125
10347TIP3    H255237   0.271   2.264  12.440  0.8898  0.1483 -3.3933
10348TIP3   OH255238   5.598   4.876  10.017 -0.5025  0.0049  0.3911
10348TIP3    H155239   5.517   4.924  10.035 -0.3362  0.7757 -0.8030
10348TIP3    H255240   5.570   4.796   9.972 -0.6538 -0.0792  0.6387
10349TIP3   OH255241   2.028   1.239  12.197 -0.0379  0.3254 -0.0979
10349TIP3    H155242   2.100   1.189  12.235  0.0361  1.4794  1.3473
10349TIP3    H255243   2.024   1.320  12.248 -1.5478  0.8494 -0.9631
10350TIP3   OH255244   3.718   2.416   9.213  0.0700  0.1641 -0.0409
10350TIP3    H155245   3.686   2.442   9.127 -0.7439 -0.4478  0.0708
10350TIP3    H255246   3.639   2.398   9.264  0.5660 -1.2594  0.2757
10351TIP3   OH255247   4.808   1.065  10.147 -0.1251 -0.1029 -0.2433
10351TIP3    H155248   4.745   1.032  10.211  0.4965 -1.1402 -0.1309
10351TIP3    H255249   4.759   1.127  10.094 -0.7772  0.4349  0.9413
10352TIP3   OH255250   1.980   1.789   9.185 -0.5672  0.1779 -0.3091
10352TIP3    H155251   1.961   1.733   9.110 -0.6076 -0.2298  0.0033
10352TIP3    H255252   1.894   1.821   9.213 -0.6174 -0.1669 -0.0572
10353TIP3   OH255253   3.636   1.887  10.599  0.2682  0.1861 -0.4447
10353TIP3    H155254   3.575   1.821  10.565 -2.0696  1.5798  0.7460
10353TIP3    H255255   3.631   1.877  10.694  2.9211 -0.4324 -0.3039
10354TIP3   OH255256   4.845   4.937  11.227  0.1065 -0.0412 -0.0345
10354TIP3    H155257   4.914   4.955  11.163 -1.5059  2.4938 -1.2305
10354TIP3    H255258   4.794   4.867  11.188 -0.8817  1.5022 -1.6867
10355TIP3   OH255259   4.900   3.481  10.488 -0.3814 -0.3886 -0.4419
10355TIP3    H155260   4.989   3.446  10.484 -0.9357 -1.8319 -0.8319
10355TIP3    H255261   4.875   3.491  10.396 -0.6636 -0.0965 -0.3335
10356TIP3   OH255262   3.771   3.251  11.320  0.2604  0.1033 -0.2724
10356TIP3    H155263   3.860   3.221  11.341  0.7699  0.6938 -1.4671
10356TIP3    H255264   3.736   3.282  11.403 -0.5519 -4.2155  1.2861
10357TIP3   OH255265   4.839   1.913  12.128 -0.2558 -0.1747  0.1601
10357TIP3    H155266   4.907   1.929  12.063 -1.4885  0.8937 -0.9383
10357TIP3    H255267   4.850   1.822  12.153  0.7629 -0.3835 -0.9613
10358TIP3   OH255268   6.423   5.942  10.413  0.2876 -0.2120  0.1561
10358TIP3    H155269   6.360   5.963  10.482 -0.2672  0.6394 -0.5796
10358TIP3    H255270   6.460   5.857  10.438 -0.4813 -0.2877  1.0754
10359TIP3   OH255271   1.198   6.636  12.346  0.5329  0.4235 -0.6065
10359TIP3    H155272   1.222   6.719  12.387  0.1051 -0.2691  1.1356
10359TIP3    H255273   1.281   6.592  12.332  0.6224 -0.1442  1.4010
10360TIP3   OH255274   0.290   4.532   9.948 -0.1748  0.2049 -0.1570
10360TIP3    H155275   0.213   4.542   9.892  0.2062 -0.0226 -0.7296
10360TIP3    H255276   0.289   4.611  10.003 -0.1991  0.7550 -0.9233
10361TIP3   OH255277   3.253   6.170  10.025  0.0396  0.0082 -0.5458
10361TIP3    H155278   3.267   6.077  10.038  1.0623  0.1553 -0.5616
10361TIP3    H255279   3.204   6.198  10.102  2.2867  0.0210  0.9744
10362TIP3   OH255280   4.166   5.170   9.621 -0.2475  0.1651  0.6887
10362TIP3    H155281   4.102   5.198   9.555  0.3832  1.1592  0.4765
10362TIP3    H255282   4.207   5.093   9.583 -0.5163  0.2031  0.3137
10363TIP3   OH255283   0.169   4.467  11.666 -0.5810 -0.3831 -0.1797
10363TIP3    H155284   0.199   4.558  11.669 -0.4195 -0.4015 -1.0277
10363TIP3    H255285   0.126   4.459  11.581 -1.8174 -0.7264  0.4514
10364TIP3   OH255286   1.431   4.834  10.108  0.6946  0.2508  0.6592
10364TIP3    H155287   1.371   4.834  10.184 -1.2013  0.8601 -0.7606
10364TIP3    H255288   1.446   4.926  10.090  1.3724  0.1003  0.4514
10365TIP3   OH255289   0.241   3.259  11.039 -0.4721 -0.3669  0.0685
10365TIP3    H155290   0.291   3.339  11.025 -1.4146  0.1618 -0.3962
10365TIP3    H255291   0.266   3.230  11.127  1.4351 -0.7289 -0.5435
10366TIP3   OH255292   2.095   5.768  12.569  0.2894 -0.2060  0.6722
10366TIP3    H155293   2.126   5.830  12.634 -1.2860  0.9810  0.3448
10366TIP3    H255294   2.002   5.755  12.590  0.6103 -2.6876  0.9054
10367TIP3   OH255295   5.205   1.045   9.503  0.6013  1.1231  0.1839
10367TIP3    H155296   5.224   1.134   9.535 -1.4065  0.3369  4.1883
10367TIP3    H255297   5.112   1.046   9.483  0.6545  0.0157 -0.1797
10368TIP3   OH255298   5.240   5.907  10.780 -0.2727 -0.0810  0.0368
10368TIP3    H155299   5.322   5.955  10.791  0.9350 -1.7378 -1.2230
10368TIP3    H255300   5.198   5.949  10.705  0.3648 -0.4306 -0.5245
10369TIP3   OH255301   0.535   3.407  11.720 -0.4127 -0.6259 -0.3108
10369TIP3    H155302   0.607   3.437  11.775 -0.4662 -0.1760 -0.4742
10369TIP3    H255303   0.457   3.446  11.759 -0.5303 -0.8671 -0.3055
10370TIP3   OH255304   5.342   2.912  12.172 -0.0706 -0.3387 -0.1480
10370TIP3    H155305   5.273   2.847  12.188 -0.1728  0.0487  1.0788
10370TIP3    H255306   5.337   2.971  12.247  0.4772  0.6962 -0.9067
10371TIP3   OH255307   5.449   6.234  11.067  0.5807  0.5946  0.3497
10371TIP3    H155308   5.510   6.260  10.998 -0.3091  1.9715  0.0229
10371TIP3    H255309   5.367   6.278  11.043 -1.6303 -3.7412 -1.0840
10372TIP3   OH255310   3.480   0.840  12.521 -0.1310  0.0136 -0.3930
10372TIP3    H155311   3.454   0.915  12.574  0.5740  0.5088 -0.7295
10372TIP3    H255312   3.564   0.812  12.556 -0.9465 -1.4300  0.5346
10373TIP3   OH255313   2.941   0.416  11.129 -0.1670  0.0950  0.1049
10373TIP3    H155314   2.895   0.375  11.202 -0.9169 -1.4714 -1.1766
10373TIP3    H255315   2.876   0.418  11.058  0.8307  0.6538 -0.8267
10374TIP3   OH255316   2.139   2.008  12.427  0.1222  0.6003 -0.0069
10374TIP3    H155317   2.138   2.087  12.482  0.7702 -0.7923  2.1536
10374TIP3    H255318   2.116   1.937  12.487  0.2944 -0.9675 -1.7068
10375TIP3   OH255319   6.361   0.597  11.289 -0.3440 -0.6487  0.3379
10375TIP3    H155320   6.301   0.655  11.243 -1.7281 -1.5426  0.9575
10375TIP3    H255321   6.355   0.514  11.242  0.4980 -0.7342  0.3536
10376TIP3   OH255322   2.241   6.438  11.470 -0.0896 -0.3822 -0.2024
10376TIP3    H155323   2.283   6.499  11.531  0.1791 -1.7925  1.0896
10376TIP3    H255324   2.148   6.458  11.476 -0.3631 -1.9748  2.5090
10377TIP3   OH255325   2.059   1.475  12.327 -0.2183  0.1373 -0.1367
10377TIP3    H155326   2.071   1.495  12.420  1.8884  0.4605 -0.4111
10377TIP3    H255327   2.068   1.560  12.283 -0.4765 -0.1163 -0.6884
10378TIP3   OH255328   2.652   5.560  11.762 -0.3613  0.1980  0.0080
10378TIP3    H155329   2.726   5.517  11.719 -0.5494 -1.7711  1.5186
10378TIP3    H255330   2.582   5.495  11.759 -1.1844  1.0109  0.9618
10379TIP3   OH255331   1.033   5.881   9.648 -0.0766 -0.0680  0.1344
10379TIP3    H155332   0.951   5.928   9.663  0.3453  1.5051 -2.0066
10379TIP3    H255333   1.042   5.823   9.724 -1.4045  2.1974  2.1512
10380TIP3   OH255334   0.883   2.037  11.446 -0.0012  0.4289  0.1448
10380TIP3    H155335   0.871   2.118  11.398 -1.3730 -0.1176 -0.4850
10380TIP3    H255336   0.847   2.055  11.533 -1.2687  0.2033 -0.3147
10381TIP3   OH255337   1.479   4.883  10.664  0.1626  0.5286  0.0601
10381TIP3    H155338   1.506   4.792  10.652 -0.5244  0.2768  0.3724
10381TIP3    H255339   1.501   4.926  10.581  1.0302  0.2188  0.1250
10382TIP3   OH255340   6.162   6.089  10.065  0.5069 -0.8229 -0.4653
10382TIP3    H155341   6.238   6.062  10.117  0.2318 -1.1561 -0.2264
10382TIP3    H255342   6.141   6.011  10.012  0.5359 -0.6202 -0.7761
10383TIP3   OH255343   6.170   2.481  10.232 -0.1733  0.2761  0.0317
10383TIP3    H155344   6.216   2.425  10.170  1.1389  0.2594  0.9794
10383TIP3    H255345   6.186   2.570  10.202 -1.7989  0.2228 -1.1568
10384TIP3   OH255346   6.156   3.684  12.599 -0.0882 -0.1553  0.4200
10384TIP3    H155347   6.112   3.736  12.667 -0.2754 -0.9055  0.8865
10384TIP3    H255348   6.123   3.595  12.612  1.3822 -0.7042  0.6286
10385TIP3   OH255349   0.050   5.414   9.882  0.1742  0.1084 -0.4880
10385TIP3    H155350   0.083   5.326   9.862 -2.3389 -0.9795 -0.2896
10385TIP3    H255351   0.034   5.453   9.796 -0.3543 -0.3319 -0.5980
10386TIP3   OH255352   0.915   0.777  10.183 -0.0783  0.4147 -0.2378
10386TIP3    H155353   0.993   0.800  10.233 -0.5760 -0.0108  0.7464
10386TIP3    H255354   0.915   0.682  10.179 -0.4233  0.4175 -0.4285
10387TIP3   OH255355   6.468   5.315   9.695  0.4394  0.0456  0.1925
10387TIP3    H155356   6.540   5.255   9.677  1.6351  1.4376  0.1316
10387TIP3    H255357   6.406   5.301   9.624  0.8043 -0.9353  0.0538
10388TIP3   OH255358   6.143   1.543  11.584 -0.1790  0.1197  0.2527
10388TIP3    H155359   6.193   1.537  11.503 -0.7058 -0.0630 -0.0585
10388TIP3    H255360   6.075   1.608  11.567  0.7551  1.3779  1.1127
10389TIP3   OH255361   3.531   0.853  13.034  0.4929  0.7490 -0.2985
10389TIP3    H155362   3.442   0.874  13.006  0.3419  1.9996  1.0254
10389TIP3    H255363   3.522   0.825  13.125  1.4360  0.6011 -0.2361
10390TIP3   OH255364   3.463   4.046  12.411  0.3869  0.1808  0.1946
10390TIP3    H155365   3.550   4.060  12.450  0.1220  0.5488  0.6766
10390TIP3    H255366   3.414   4.124  12.435 -0.2838 -0.3279  0.5127
10391TIP3   OH255367   3.042   1.825  11.303  0.3055  0.7796 -0.4608
10391TIP3    H155368   2.967   1.778  11.268  0.8038  0.6392 -1.3584
10391TIP3    H255369   3.117   1.790  11.255  1.0137  0.5568  0.7622
10392TIP3   OH255370   0.551   4.915  10.595 -0.2256 -0.3027 -0.0502
10392TIP3    H155371   0.487   4.970  10.552  0.1802 -0.6032 -1.0740
10392TIP3    H255372   0.610   4.887  10.525 -0.4999 -2.1546  0.3899
10393TIP3   OH255373   4.752   1.705  11.618  0.2658 -0.2915  0.0164
10393TIP3    H155374   4.659   1.721  11.608  0.6106  2.9019  0.6745
10393TIP3    H255375   4.794   1.785  11.587  2.5668 -0.2049  2.8729
10394TIP3   OH255376   1.310   1.835  11.343 -0.5294  0.1897  0.2905
10394TIP3    H155377   1.294   1.915  11.293  0.1021  0.8293  1.0774
10394TIP3    H255378   1.398   1.808  11.315 -0.3022  0.3774  0.8152
10395TIP3   OH255379   0.190   4.474  11.235 -0.6160  0.1534 -0.0532
10395TIP3    H155380   0.215   4.389  11.271  1.4080  0.2827 -1.0092
10395TIP3    H255381   0.095   4.476  11.242 -0.6054 -1.5786  1.2992
10396TIP3   OH255382   0.865   0.142  10.975  0.1130 -0.5662  0.1575
10396TIP3    H155383   0.873   0.083  11.050 -4.0210 -0.9733  0.5393
10396TIP3    H255384   0.787   0.193  10.994  0.1960  0.8836 -2.9016
10397TIP3   OH255385   4.688   5.148  11.276  0.5539 -0.1052  0.8407
10397TIP3    H155386   4.598   5.129  11.303 -0.2464  1.2226 -0.7165
10397TIP3    H255387   4.726   5.062  11.258 -0.6827 -0.6524  0.7085
10398TIP3   OH255388   1.416   4.986  12.368  0.1401  0.2574 -0.2032
10398TIP3    H155389   1.321   4.981  12.361  0.2481 -2.0058 -0.8267
10398TIP3    H255390   1.448   4.929  12.297  1.9981  1.9563 -0.8071
10399TIP3   OH255391   0.800   1.424  10.330  0.0909 -0.0001 -0.0611
10399TIP3    H155392   0.725   1.476  10.303  0.1658  0.8819  1.3358
10399TIP3    H255393   0.866   1.488  10.357  1.6793 -0.7169 -1.9486
10400TIP3   OH255394   3.617   4.371   9.655  0.0484 -0.0842 -0.0071
10400TIP3    H155395   3.628   4.404   9.566  4.4087  0.9869  0.7042
10400TIP3    H255396   3.589   4.447   9.705 -0.7308 -0.2781 -0.1289
10401TIP3   OH255397   4.474   2.012  11.158  0.5471 -0.6226 -0.1438
10401TIP3    H155398   4.505   2.024  11.248  0.0572  0.7431 -0.1374
10401TIP3    H255399   4.523   2.076  11.107 -1.1408  0.5392 -0.3746
10402TIP3   OH255400   3.221   4.039  10.152 -0.3960 -0.0447 -0.3108
10402TIP3    H155401   3.313   4.059  10.168 -0.2537 -1.1852  0.4642
10402TIP3    H255402   3.184   4.120  10.115  0.6720  0.7682  0.3462
10403TIP3   OH255403   3.512   0.159   9.663  0.2493  0.0247  0.3824
10403TIP3    H155404   3.486   0.074   9.699  0.4578 -0.0793  0.2890
10403TIP3    H255405   3.606   0.151   9.648 -0.1932 -0.9744 -2.7845
10404TIP3   OH255406   3.607   1.744  10.859  0.1035  0.4332 -0.3210
10404TIP3    H155407   3.525   1.708  10.826  0.2711  0.6144 -0.9445
10404TIP3    H255408   3.672   1.675  10.843 -0.0188  0.0608  0.6858
10405TIP3   OH255409   1.634   5.235  11.748 -0.0902  0.5758  0.1382
10405TIP3    H155410   1.634   5.140  11.749 -0.6691  0.5747  0.0769
10405TIP3    H255411   1.668   5.258  11.661  1.0220  0.4373  0.5240
10406TIP3   OH255412   5.211   0.643  11.016 -0.0311 -0.5212  0.8825
10406TIP3    H155413   5.212   0.733  11.048  1.8616  0.0553 -0.5309
10406TIP3    H255414   5.278   0.642  10.947 -0.2869 -2.9180  0.5709
10407TIP3   OH255415   0.787   5.234  10.540  0.6419 -0.2195  0.3628
10407TIP3    H155416   0.766   5.174  10.468  2.3400 -0.2768 -0.1527
10407TIP3    H255417   0.733   5.311  10.524 -0.3212 -0.9422  0.0642
10408TIP3   OH255418   5.807   1.296   9.626 -0.2002 -0.5180  0.4340
10408TIP3    H155419   5.879   1.354   9.650  0.6066 -0.1864 -2.4258
10408TIP3    H255420   5.844   1.208   9.628  0.1231 -0.4092 -0.3561
10409TIP3   OH255421   6.070   0.636   9.534  0.3744  0.8207 -0.0011
10409TIP3    H155422   6.095   0.693   9.461 -0.3208  1.0687 -0.0510
10409TIP3    H255423   6.152   0.592   9.560  0.7471  1.2126 -0.5074
10410TIP3   OH255424   5.202   3.873  11.763  0.0981 -0.1488  0.7800
10410TIP3    H155425   5.223   3.795  11.814  0.2457 -2.6989 -2.8605
10410TIP3    H255426   5.156   3.840  11.686 -1.3179  3.5709 -0.1732
10411TIP3   OH255427   2.876   3.967  10.966  0.5320 -0.0364  0.6450
10411TIP3    H155428   2.815   3.986  11.038  0.0500  2.7600 -0.3516
10411TIP3    H255429   2.852   4.030  10.898  0.7107 -2.8128 -2.1966
10412TIP3   OH255430   2.624   5.633  11.057  0.3365 -0.0463 -0.7089
10412TIP3    H155431   2.559   5.595  11.115  1.4140 -2.0011 -0.7057
10412TIP3    H255432   2.690   5.565  11.047  1.9111  1.5135 -1.4754
10413TIP3   OH255433   0.349   4.295   9.841 -0.3464  0.5220  0.0321
10413TIP3    H155434   0.330   4.377   9.886 -1.7420  0.2659 -0.0466
10413TIP3    H255435   0.366   4.321   9.750  1.6714  0.9521  0.4800
10414TIP3   OH255436   5.658   1.147  11.465  0.5537  0.9207 -0.1224
10414TIP3    H155437   5.709   1.171  11.542 -0.0945 -1.5351  1.1697
10414TIP3    H255438   5.567   1.166  11.490  0.4268  1.1464 -0.7309
10415TIP3   OH255439   5.815   0.714   9.088 -0.2278 -0.0868  0.4142
10415TIP3    H155440   5.741   0.775   9.090 -0.9451 -0.9482  0.6497
10415TIP3    H255441   5.880   0.753   9.147 -1.2900 -0.3127  1.7575
10416TIP3   OH255442   3.477   4.880   9.473  0.1954  0.4207  0.1497
10416TIP3    H155443   3.510   4.827   9.401  0.6569  2.5440 -1.3163
10416TIP3    H255444   3.550   4.885   9.534  0.9024  1.0588 -0.7171
10417TIP3   OH255445   1.844   2.921  10.300 -0.0586 -0.2892 -0.1692
10417TIP3    H155446   1.884   2.950  10.381 -0.9441 -0.3569  0.3106
10417TIP3    H255447   1.917   2.907  10.240  0.6577 -0.8085  0.7944
10418TIP3   OH255448   1.867   1.610   9.564 -0.0143  0.3368 -0.1986
10418TIP3    H155449   1.834   1.699   9.578  1.9141  1.0697 -0.0426
10418TIP3    H255450   1.958   1.622   9.538  0.4277 -1.6316  0.2856
10419TIP3   OH255451   3.250   1.882   9.717 -0.3866 -0.4745 -0.0852
10419TIP3    H155452   3.233   1.931   9.798 -2.1691  0.9383 -1.2245
10419TIP3    H255453   3.212   1.936   9.648  1.3162 -1.5060 -1.9378
10420TIP3   OH255454   2.769   2.807   9.417 -0.3059  0.7100  0.7615
10420TIP3    H155455   2.850   2.759   9.403 -0.2571  1.0983 -0.4033
10420TIP3    H255456   2.789   2.870   9.486  0.1910  0.3741  0.9245
10421TIP3   OH255457   3.112   0.578   9.346  0.7896  0.1958  0.2787
10421TIP3    H155458   3.198   0.538   9.332  1.9210  2.2159  0.9621
10421TIP3    H255459   3.114   0.608   9.436 -0.7894  0.0203  0.4011
10422TIP3   OH255460   5.723   0.869  11.491 -0.0880  0.0114  0.3660
10422TIP3    H155461   5.717   0.850  11.397 -1.1205  1.2024  0.1597
10422TIP3    H255462   5.706   0.963  11.497  3.3440  0.7215  1.4472
10423TIP3   OH255463   0.471   0.391   9.694 -0.2513  0.7385  0.1318
10423TIP3    H155464   0.394   0.429   9.651 -0.0003  0.5288 -0.5097
10423TIP3    H255465   0.529   0.367   9.622  0.0173  0.0476  0.5714
10424TIP3   OH255466   1.131   0.812  11.055 -0.1602  0.2448 -0.7544
10424TIP3    H155467   1.047   0.769  11.042  0.0499 -0.6228  0.5980
10424TIP3    H255468   1.176   0.802  10.971 -0.6420 -1.0110 -0.8820
10425TIP3   OH255469   2.030   4.961  11.757 -0.0080  0.2632 -0.2684
10425TIP3    H155470   1.963   4.993  11.697 -0.2694 -0.6323 -0.4728
10425TIP3    H255471   2.113   4.979  11.712 -0.2076 -0.6038 -1.0215
10426TIP3   OH255472   4.276   4.903  11.937  0.0080 -0.1367 -0.8072
10426TIP3    H155473   4.241   4.987  11.968  0.9081 -0.5184  1.4100
10426TIP3    H255474   4.205   4.841  11.949 -1.3799  0.5164 -4.2945
10427TIP3   OH255475   4.470   5.407  11.871 -0.0670 -0.1813 -0.0684
10427TIP3    H155476   4.528   5.408  11.948  0.4388 -0.4117 -0.4411
10427TIP3    H255477   4.528   5.387  11.798 -0.6905 -0.8867 -0.3856
10428TIP3   OH255478   0.709   2.303  12.098  0.4478 -0.0101  0.4730
10428TIP3    H155479   0.802   2.281  12.093  0.7768  1.1207  1.1801
10428TIP3    H255480   0.679   2.262  12.179  0.7247  0.9080  1.0588
10429TIP3   OH255481   3.082   6.495   9.168 -0.1377 -0.3630 -0.4848
10429TIP3    H155482   3.058   6.476   9.259 -0.8178  1.9968 -0.1114
10429TIP3    H255483   3.052   6.418   9.119 -2.6047 -0.3788  0.8777
10430TIP3   OH255484   4.333   0.089  11.017  0.0318 -0.4650  0.5132
10430TIP3    H155485   4.427   0.070  11.007 -0.0593 -0.3292 -0.7911
10430TIP3    H255486   4.299   0.015  11.067  0.5206 -1.4366 -0.5436
10431TIP3   OH255487   2.018   6.677  11.564  0.1518  0.2907 -0.2228
10431TIP3    H155488   2.079   6.639  11.627 -1.5070 -0.9182  0.7315
10431TIP3    H255489   2.069   6.746  11.521  1.8718 -0.0029  1.1937
10432TIP3   OH255490   6.394   2.060  10.639  0.1754 -0.1305 -0.1077
10432TIP3    H155491   6.346   1.980  10.662 -0.9058  0.2573 -0.9312
10432TIP3    H255492   6.456   2.072  10.711  1.3785 -2.5029 -0.6492
10433TIP3   OH255493   6.249   2.171  11.255  0.6027 -0.0062 -0.3839
10433TIP3    H155494   6.305   2.215  11.319  0.2426  0.3873 -0.3344
10433TIP3    H255495   6.160   2.196  11.281  0.4561  0.1224 -1.0140
10434TIP3   OH255496   4.124   5.150  12.667  0.1480  0.0084  0.1939
10434TIP3    H155497   4.177   5.071  12.660 -0.2901 -0.3341  0.7108
10434TIP3    H255498   4.140   5.197  12.585  1.2131 -0.1061  0.3256
10435TIP3   OH255499   5.408   4.212  10.842 -0.3581  0.0697  0.1469
10435TIP3    H155500   5.339   4.279  10.836  0.0254  0.3899 -1.0430
10435TIP3    H255501   5.400   4.163  10.760  1.3214  0.6275 -0.3961
10436TIP3   OH255502   5.977   2.188  11.634 -0.7754  0.0232  0.0968
10436TIP3    H155503   6.054   2.169  11.688  0.3818 -0.9808 -1.8243
10436TIP3    H255504   5.903   2.171  11.693  0.4183 -0.4757  1.5378
10437TIP3   OH255505   3.377   1.927  10.719  0.0513  0.0310  0.5751
10437TIP3    H155506   3.431   1.952  10.643 -0.7919 -1.0387 -0.4116
10437TIP3    H255507   3.327   2.005  10.740 -0.3844  0.0829 -0.5786
10438TIP3   OH255508   0.390   0.382  12.808  0.4469  0.5145  0.4024
10438TIP3    H155509   0.447   0.334  12.867 -1.1096 -0.2776  1.3114
10438TIP3    H255510   0.422   0.360  12.720 -0.2752 -2.3510  0.7668
10439TIP3   OH255511   2.527   1.349   9.515 -0.0377 -0.1001 -0.0411
10439TIP3    H155512   2.542   1.266   9.470 -0.1851  0.1189 -0.5047
10439TIP3    H255513   2.505   1.411   9.445 -2.7798 -0.3144  0.5304
   6.71093   6.71093  30.00000
