Title
55513
    1DOPE     N    1   4.460   4.610   7.300  0.7066 -0.2138  0.0950
    1DOPE   HN1    2   4.448   4.684   7.372 -1.8896  1.0725 -1.4859
    1DOPE   HN2    3   4.372   4.613   7.244  0.2892  0.2347  0.7666
    1DOPE   HN3    4   4.457   4.519   7.348 -0.2811  0.5846  1.6148
    1DOPE   C12    5   4.581   4.639   7.224 -0.0068  0.1494  0.5934
    1DOPE  H12A    6   4.580   4.745   7.190  1.4611  0.0319  0.1060
    1DOPE  H12B    7   4.583   4.589   7.125 -0.9343 -0.0268  0.6560
    1DOPE   C11    8   4.708   4.613   7.309  0.1159 -0.3234  0.7096
    1DOPE  H11A    9   4.692   4.676   7.399 -0.5804  1.1022 -0.3784
    1DOPE  H11B   10   4.799   4.650   7.257  0.2471 -0.0935  1.1064
    1DOPE     P   11   4.785   4.358   7.264 -0.4531 -0.0389 -0.2165
    1DOPE   O13   12   4.701   4.242   7.285 -0.1685 -0.2183  0.3299
    1DOPE   O14   13   4.929   4.346   7.301  0.4211  0.4331 -0.3075
    1DOPE   O11   14   4.779   4.409   7.111  0.0253  0.0456  0.1155
    1DOPE   O12   15   4.723   4.479   7.359  1.0105  0.1341  0.2362
    1DOPE    C1   16   4.861   4.342   7.013 -0.1091 -0.6455 -0.4785
    1DOPE    HA   17   4.946   4.286   7.058 -0.2724  1.3266  2.5665
    1DOPE    HB   18   4.894   4.415   6.936  0.4897 -0.5303 -0.1211
    1DOPE    C2   19   4.775   4.234   6.942  0.6863  0.4142 -0.2800
    1DOPE    HS   20   4.761   4.148   7.011 -0.4670  1.8736  1.3916
    1DOPE   O21   21   4.836   4.211   6.814  0.3916 -0.7782  0.7087
    1DOPE   C21   22   4.923   4.116   6.813  0.0346 -1.3136  0.1073
    1DOPE   O22   23   4.969   4.057   6.906 -0.1062  0.1284  0.0832
    1DOPE   C22   24   4.966   4.098   6.664  0.1935  1.0777 -0.1166
    1DOPE   H2R   25   5.003   4.192   6.618  0.0010  1.5984  0.7771
    1DOPE   H2S   26   4.872   4.078   6.609  0.1876 -1.3127  0.6422
    1DOPE    C3   27   4.633   4.286   6.913 -0.3326 -0.2613 -0.3272
    1DOPE    HX   28   4.644   4.370   6.841  0.6026  1.2619  1.5067
    1DOPE    HY   29   4.592   4.320   7.010  0.0660 -0.7564  0.0261
    1DOPE   O31   30   4.541   4.183   6.870 -0.0934 -0.1040 -0.2104
    1DOPE   C31   31   4.426   4.235   6.840 -0.1989 -0.4253 -0.1379
    1DOPE   O32   32   4.404   4.356   6.819  0.4577  0.2314 -0.3053
    1DOPE   C32   33   4.312   4.130   6.841 -0.8287  0.0569  0.3876
    1DOPE   H2X   34   4.269   4.128   6.943 -1.2063 -0.4134  0.2218
    1DOPE   H2Y   35   4.228   4.169   6.780  0.7577  1.7652 -0.8441
    1DOPE   C23   36   5.061   3.972   6.638  0.3009 -0.4951 -0.2206
    1DOPE   H3R   37   5.002   3.877   6.640 -0.7134  0.1234  0.2646
    1DOPE   H3S   38   5.143   3.967   6.712  1.7148  0.0956 -1.7102
    1DOPE   C24   39   5.119   3.982   6.496 -0.0678 -0.5105  0.4341
    1DOPE   H4R   40   5.156   4.085   6.473 -1.9402 -0.0268 -0.5933
    1DOPE   H4S   41   5.030   3.980   6.430 -0.5668  1.2595  0.9822
    1DOPE   C25   42   5.221   3.866   6.467 -0.2046  0.7490  0.3725
    1DOPE   H5R   43   5.178   3.767   6.493 -0.3699  0.7176 -0.0104
    1DOPE   H5S   44   5.307   3.881   6.535 -0.1117 -1.7887  0.9222
    1DOPE   C26   45   5.272   3.871   6.322  0.4289 -0.6500  0.3277
    1DOPE   H6R   46   5.357   3.800   6.310 -0.1474 -1.8408  2.6986
    1DOPE   H6S   47   5.316   3.973   6.307 -1.1848  0.1151  0.5915
    1DOPE   C27   48   5.166   3.849   6.211  0.0643  0.8945  0.3004
    1DOPE   H7R   49   5.072   3.902   6.237 -1.8513 -1.6203 -1.0388
    1DOPE   H7S   50   5.149   3.740   6.218  1.6881  0.7162  2.5965
    1DOPE   C28   51   5.219   3.890   6.067  0.0570  0.5214 -0.0385
    1DOPE   H8R   52   5.321   3.848   6.059  1.0427  2.1308  2.6575
    1DOPE   H8S   53   5.233   4.000   6.068 -2.1785  0.8534  1.1614
    1DOPE   C29   54   5.123   3.842   5.960 -0.0029 -0.1771  0.0863
    1DOPE   H9R   55   5.017   3.857   5.987 -0.3214 -0.3616 -1.0024
    1DOPE  C210   56   5.154   3.843   5.829 -0.0943  0.1403  0.3249
    1DOPE  H10R   57   5.082   3.794   5.762 -2.5820 -1.0235  3.6002
    1DOPE  C211   58   5.297   3.837   5.788 -0.3973 -0.1760  0.1623
    1DOPE  H11R   59   5.325   3.730   5.779  0.4914 -0.0365  1.1224
    1DOPE  H11S   60   5.363   3.884   5.864  0.7859 -1.9192  0.2760
    1DOPE  C212   61   5.337   3.891   5.653  0.1607 -0.1068 -0.2334
    1DOPE  H12R   62   5.447   3.904   5.639  0.0164  1.9843  0.3650
    1DOPE  H12S   63   5.296   3.993   5.639  0.1555 -0.0849 -0.0544
    1DOPE  C213   64   5.288   3.792   5.538  0.1383 -0.1222  0.2325
    1DOPE  H13R   65   5.177   3.783   5.540  0.1676 -0.9887 -0.9317
    1DOPE  H13S   66   5.327   3.692   5.566 -1.2725 -0.3139  1.6853
    1DOPE  C214   67   5.331   3.838   5.398  0.8133 -0.3189 -0.3457
    1DOPE  H14R   68   5.346   3.757   5.323  1.7309 -0.0619 -0.4508
    1DOPE  H14S   69   5.429   3.890   5.403  0.9109 -0.2165 -2.3694
    1DOPE  C215   70   5.220   3.920   5.332  0.1318 -0.7850 -0.0854
    1DOPE  H15R   71   5.195   4.009   5.393  1.9931 -1.2745  1.4847
    1DOPE  H15S   72   5.125   3.863   5.318 -1.3466  1.8172 -1.4123
    1DOPE  C216   73   5.258   3.976   5.193 -0.0951  0.6344 -0.3992
    1DOPE  H16R   74   5.292   3.890   5.131  0.4116  0.1376  0.5422
    1DOPE  H16S   75   5.340   4.050   5.198  1.2882 -0.8515 -0.2740
    1DOPE  C217   76   5.149   4.054   5.115 -0.2849 -0.5899  0.1109
    1DOPE  H17R   77   5.062   3.986   5.104  0.8994 -2.4504  1.6910
    1DOPE  H17S   78   5.182   4.077   5.011 -0.5517  1.5432  0.4492
    1DOPE  C218   79   5.114   4.186   5.175 -0.1271 -0.1003  0.2642
    1DOPE  H18R   80   5.007   4.214   5.161 -0.0557 -0.6211 -1.4816
    1DOPE  H18S   81   5.164   4.278   5.139  1.0361 -1.2521 -1.1541
    1DOPE  H18T   82   5.115   4.183   5.286  1.5678 -0.4091  0.2641
    1DOPE   C33   83   4.349   3.991   6.795  0.1240  0.5534  0.1689
    1DOPE   H3X   84   4.286   3.922   6.856  2.7932 -2.3690 -0.0908
    1DOPE   H3Y   85   4.455   3.961   6.810 -0.3408 -1.0358  0.5776
    1DOPE   C34   86   4.302   3.947   6.649  0.5016 -0.5829 -0.3494
    1DOPE   H4X   87   4.303   3.837   6.635 -0.1890 -0.5341 -0.8169
    1DOPE   H4Y   88   4.193   3.969   6.643  0.9195  1.3496 -1.9749
    1DOPE   C35   89   4.378   4.031   6.544 -0.3640  0.1300  0.7590
    1DOPE   H5X   90   4.476   3.980   6.531 -0.1383  0.9672 -1.1441
    1DOPE   H5Y   91   4.400   4.133   6.581 -0.2446  0.5541 -0.4403
    1DOPE   C36   92   4.319   4.024   6.399  0.0528 -0.1928  0.1618
    1DOPE   H6X   93   4.388   4.080   6.333 -2.4970  3.7153  0.4646
    1DOPE   H6Y   94   4.222   4.078   6.406  0.5925  0.8388 -0.1188
    1DOPE   C37   95   4.313   3.877   6.342  0.7535 -0.9811 -0.2902
    1DOPE   H7X   96   4.422   3.855   6.339  1.0636  0.3692  0.3424
    1DOPE   H7Y   97   4.258   3.821   6.420 -2.4589  0.9078 -1.0376
    1DOPE   C38   98   4.255   3.864   6.203 -0.4363 -0.2297  0.2982
    1DOPE   H8X   99   4.152   3.904   6.208 -0.6062 -0.5265 -0.6395
    1DOPE   H8Y  100   4.255   3.755   6.179  2.5595  0.0278 -1.3374
    1DOPE   C39  101   4.334   3.941   6.097 -0.3716  0.0001 -0.1549
    1DOPE   H9X  102   4.361   4.046   6.117  1.6727 -0.5306 -0.0043
    1DOPE  C310  103   4.390   3.896   5.983  0.0295 -0.0432  0.2638
    1DOPE  H10X  104   4.429   3.974   5.916  0.6833 -0.8721 -0.3366
    1DOPE  C311  105   4.372   3.755   5.927 -0.1811 -0.4596 -0.7034
    1DOPE  H11X  106   4.349   3.677   6.002 -1.5942  0.0508 -0.5728
    1DOPE  H11Y  107   4.289   3.756   5.853 -1.2932 -1.4747  0.4879
    1DOPE  C312  108   4.502   3.704   5.850  0.5457  0.2937  0.3982
    1DOPE  H12X  109   4.488   3.596   5.832  0.8360  0.5549 -1.6039
    1DOPE  H12Y  110   4.592   3.720   5.914 -0.7679 -0.0423  2.4164
    1DOPE  C313  111   4.526   3.773   5.714 -0.0954 -0.2893  0.0576
    1DOPE  H13X  112   4.487   3.876   5.728  1.4603  0.1910  1.0603
    1DOPE  H13Y  113   4.634   3.780   5.689  0.2717 -1.0258  1.3456
    1DOPE  C314  114   4.464   3.703   5.596  0.3665  0.7146  0.4190
    1DOPE  H14X  115   4.355   3.685   5.610  0.4198 -1.4727 -1.4107
    1DOPE  H14Y  116   4.511   3.604   5.576  0.6951  1.2502 -1.7224
    1DOPE  C315  117   4.465   3.780   5.466 -0.1569  0.1944 -0.4814
    1DOPE  H15X  118   4.414   3.711   5.396 -0.7389  1.5049 -1.3808
    1DOPE  H15Y  119   4.570   3.805   5.439 -0.1290 -0.4733 -1.0038
    1DOPE  C316  120   4.379   3.914   5.463  0.5053 -0.2442 -0.1308
    1DOPE  H16X  121   4.426   3.984   5.536 -1.6681  0.3451  0.7780
    1DOPE  H16Y  122   4.284   3.872   5.501 -0.2178  0.7604 -0.7635
    1DOPE  C317  123   4.373   3.985   5.322 -0.0098  0.0334 -0.6635
    1DOPE  H17X  124   4.312   4.077   5.330  0.7020  0.3740  1.7784
    1DOPE  H17Y  125   4.473   4.019   5.287  1.0227 -0.7063  1.3881
    1DOPE  C318  126   4.316   3.898   5.212  0.3131 -0.3117 -0.8276
    1DOPE  H18X  127   4.331   3.946   5.113 -0.5967  2.2257  0.1737
    1DOPE  H18Y  128   4.364   3.799   5.219  0.3229 -0.2437  0.3280
    1DOPE  H18Z  129   4.205   3.895   5.215  0.1483  2.6119 -0.9562
    2DOPE     N  130   5.603   4.786   7.740  0.1656  0.2925 -0.0331
    2DOPE   HN1  131   5.591   4.865   7.806 -2.1133  0.4363 -0.5133
    2DOPE   HN2  132   5.538   4.710   7.769  0.0926  1.2021  2.4138
    2DOPE   HN3  133   5.698   4.745   7.740  0.2976  0.5678 -0.8502
    2DOPE   C12  134   5.566   4.854   7.611 -0.9554 -0.1268 -0.1214
    2DOPE  H12A  135   5.655   4.890   7.555 -0.7473  0.9677  0.8723
    2DOPE  H12B  136   5.511   4.943   7.649  0.4895  0.4165  0.7780
    2DOPE   C11  137   5.477   4.758   7.531  0.1833  0.0278  0.7796
    2DOPE  H11A  138   5.529   4.667   7.493 -1.3549  0.0448 -1.6120
    2DOPE  H11B  139   5.440   4.808   7.438 -0.5628 -1.0653  0.4622
    2DOPE     P  140   5.231   4.743   7.644  0.2603  0.0060 -0.0484
    2DOPE   O13  141   5.228   4.884   7.692  0.0985  0.0875 -0.0179
    2DOPE   O14  142   5.184   4.635   7.740  0.0357  0.4789  0.2416
    2DOPE   O11  143   5.152   4.730   7.506  0.1803  0.1498 -0.1127
    2DOPE   O12  144   5.376   4.701   7.611 -0.1040 -0.0296  0.1173
    2DOPE    C1  145   5.152   4.611   7.435  0.4082  0.5083 -0.2550
    2DOPE    HA  146   5.047   4.586   7.412 -0.2375 -1.6996  4.0591
    2DOPE    HB  147   5.197   4.530   7.497  3.2782  1.7506 -0.5426
    2DOPE    C2  148   5.224   4.622   7.303 -0.0024 -0.2693  0.1948
    2DOPE    HS  149   5.328   4.647   7.332  0.2745 -0.6748 -0.4120
    2DOPE   O21  150   5.154   4.735   7.244  0.3594  0.4956 -0.2686
    2DOPE   C21  151   5.235   4.810   7.175  0.0447 -1.0581 -0.6057
    2DOPE   O22  152   5.356   4.791   7.157  0.2258  0.3734 -0.3728
    2DOPE   C22  153   5.154   4.930   7.115 -0.1033  0.2747  0.2249
    2DOPE   H2R  154   5.204   4.953   7.018 -0.4933 -2.6514 -0.7676
    2DOPE   H2S  155   5.171   5.008   7.191 -2.1636 -0.2891  1.3460
    2DOPE    C3  156   5.216   4.495   7.214 -0.1829  0.0820  0.5095
    2DOPE    HX  157   5.109   4.469   7.197  0.1642 -0.4820 -1.0503
    2DOPE    HY  158   5.272   4.415   7.267  1.7799  0.9589 -0.1782
    2DOPE   O31  159   5.267   4.525   7.084  0.2617 -0.3501 -0.1627
    2DOPE   C31  160   5.240   4.442   6.986  0.2911  0.0766 -0.3621
    2DOPE   O32  161   5.186   4.332   6.991  0.2449 -0.5795 -0.3036
    2DOPE   C32  162   5.295   4.509   6.857 -0.4755  0.4916  0.2236
    2DOPE   H2X  163   5.209   4.548   6.799  1.0239  2.8858 -0.5696
    2DOPE   H2Y  164   5.365   4.586   6.898 -0.8416  0.6695  0.5136
    2DOPE   C23  165   5.010   4.899   7.082 -0.3671 -0.6094  1.3100
    2DOPE   H3R  166   4.947   4.982   7.119  2.4540  2.9239 -1.1176
    2DOPE   H3S  167   4.980   4.803   7.130 -1.2000  0.1043  2.2460
    2DOPE   C24  168   4.990   4.895   6.929 -0.3668  0.6878  0.4008
    2DOPE   H4R  169   5.028   4.987   6.880 -0.2193  1.1328  1.3349
    2DOPE   H4S  170   4.885   4.891   6.896 -0.0730 -0.0383 -0.4923
    2DOPE   C25  171   5.057   4.769   6.863 -0.5211  0.5632  0.3497
    2DOPE   H5R  172   5.055   4.688   6.939  1.0015  0.3339  0.1905
    2DOPE   H5S  173   5.168   4.783   6.856 -0.6884  1.4218 -0.9891
    2DOPE   C26  174   5.004   4.719   6.729  0.3714 -0.3304  0.1781
    2DOPE   H6R  175   5.071   4.642   6.685  0.2300 -0.3116 -0.0714
    2DOPE   H6S  176   5.003   4.807   6.662 -0.3996 -0.4154  0.0685
    2DOPE   C27  177   4.862   4.655   6.739  0.1762  0.0618 -0.6527
    2DOPE   H7R  178   4.792   4.726   6.789  0.4056  0.3963 -0.8055
    2DOPE   H7S  179   4.879   4.566   6.804  0.1007  1.3144  1.1607
    2DOPE   C28  180   4.807   4.623   6.595 -0.9662 -0.0887 -0.3473
    2DOPE   H8R  181   4.875   4.557   6.537  0.0915  0.4211  0.2763
    2DOPE   H8S  182   4.811   4.722   6.543  1.1049  2.3933  3.9711
    2DOPE   C29  183   4.668   4.575   6.601 -0.2546  0.5157 -0.1342
    2DOPE   H9R  184   4.595   4.650   6.634 -0.6145 -1.0080  2.9414
    2DOPE  C210  185   4.621   4.455   6.569  0.0518 -0.3285 -0.7613
    2DOPE  H10R  186   4.515   4.432   6.587  0.3493 -1.8266 -0.7804
    2DOPE  C211  187   4.710   4.337   6.539 -0.5147  0.5723 -0.4690
    2DOPE  H11R  188   4.688   4.255   6.610 -0.3114 -0.2558 -1.3353
    2DOPE  H11S  189   4.818   4.359   6.547 -0.2652 -0.3099 -1.2544
    2DOPE  C212  190   4.683   4.291   6.395 -0.5424  0.7494  0.0510
    2DOPE  H12R  191   4.736   4.356   6.322  0.2525 -0.8985 -0.8966
    2DOPE  H12S  192   4.575   4.281   6.373 -0.4321 -0.6492  0.0975
    2DOPE  C213  193   4.745   4.151   6.378  0.2567 -0.0250  0.5827
    2DOPE  H13R  194   4.692   4.092   6.456  0.4244  1.4773  1.8904
    2DOPE  H13S  195   4.853   4.165   6.399  0.1494  0.7244  0.6584
    2DOPE  C214  196   4.728   4.095   6.238 -0.2728  0.5088 -0.5262
    2DOPE  H14R  197   4.622   4.119   6.214 -0.0373  1.0503 -1.0316
    2DOPE  H14S  198   4.747   3.985   6.244 -1.4744  0.3272  0.6356
    2DOPE  C215  199   4.816   4.147   6.130 -0.1204  0.8626  0.6197
    2DOPE  H15R  200   4.918   4.112   6.157 -2.0992 -4.2365  2.8238
    2DOPE  H15S  201   4.820   4.256   6.108  1.8630  0.4359 -1.3679
    2DOPE  C216  202   4.782   4.085   5.993 -0.4124 -1.1035 -0.3368
    2DOPE  H16R  203   4.678   4.121   5.976  0.4598  1.8875  0.1658
    2DOPE  H16S  204   4.787   3.976   6.018 -1.0138 -0.5929  2.3832
    2DOPE  C217  205   4.874   4.124   5.879 -0.1333  0.9647  0.1504
    2DOPE  H17R  206   4.980   4.114   5.909  0.2276 -0.8381 -1.4836
    2DOPE  H17S  207   4.853   4.231   5.857 -0.7816  0.9566  0.6886
    2DOPE  C218  208   4.858   4.050   5.743  0.2323  0.7571 -0.4032
    2DOPE  H18R  209   4.765   4.077   5.689 -0.0343 -0.3843 -0.5350
    2DOPE  H18S  210   4.859   3.939   5.745 -4.1041  0.5585  0.8035
    2DOPE  H18T  211   4.942   4.075   5.675  0.1302  0.1150 -0.7787
    2DOPE   C33  212   5.350   4.398   6.764 -0.2588 -0.3788  0.5527
    2DOPE   H3X  213   5.264   4.336   6.731  0.0786  0.7249 -2.7968
    2DOPE   H3Y  214   5.419   4.334   6.823  3.2698  0.4601 -2.2575
    2DOPE   C34  215   5.421   4.451   6.637 -0.1293  0.2448  0.1965
    2DOPE   H4X  216   5.344   4.518   6.593  0.5451  0.3933 -0.8066
    2DOPE   H4Y  217   5.510   4.505   6.676  0.0089 -1.2070  2.0213
    2DOPE   C35  218   5.451   4.336   6.541  0.6667  0.6555 -0.5900
    2DOPE   H5X  219   5.352   4.297   6.510  0.7375 -0.5861  0.6275
    2DOPE   H5Y  220   5.497   4.256   6.603  1.4601  2.4886  1.3266
    2DOPE   C36  221   5.546   4.377   6.430 -0.7061  0.1787 -0.0909
    2DOPE   H6X  222   5.549   4.295   6.355 -0.2029 -0.0241  0.1423
    2DOPE   H6Y  223   5.648   4.386   6.474 -0.7062 -1.4322  0.3011
    2DOPE   C37  224   5.509   4.510   6.361  0.3612  0.1852 -0.1529
    2DOPE   H7X  225   5.406   4.508   6.318  0.8113 -0.9933 -1.2310
    2DOPE   H7Y  226   5.513   4.591   6.436 -0.4910  2.0391 -2.0037
    2DOPE   C38  227   5.608   4.545   6.247  0.0451  0.2736  0.4210
    2DOPE   H8X  228   5.595   4.475   6.162  2.7308  2.1465 -1.6786
    2DOPE   H8Y  229   5.713   4.545   6.283  0.0954  2.7443  0.4462
    2DOPE   C39  230   5.568   4.684   6.198 -0.4480  0.0510  0.8931
    2DOPE   H9X  231   5.468   4.728   6.215 -1.3684 -1.4506 -0.3793
    2DOPE  C310  232   5.649   4.759   6.121 -0.3583  0.0916  0.1803
    2DOPE  H10X  233   5.600   4.846   6.075 -0.4218  0.9761  1.8405
    2DOPE  C311  234   5.789   4.721   6.078  0.2288 -0.4254 -1.2080
    2DOPE  H11X  235   5.858   4.806   6.099 -1.3324  0.4436  0.8650
    2DOPE  H11Y  236   5.830   4.643   6.145 -0.3519 -0.0178 -0.3551
    2DOPE  C312  237   5.795   4.671   5.933  0.0412 -0.3223  0.1456
    2DOPE  H12X  238   5.902   4.660   5.903  0.2636  0.4855  0.5843
    2DOPE  H12Y  239   5.755   4.759   5.879  2.0180 -0.0791 -1.0389
    2DOPE  C313  240   5.712   4.549   5.900 -0.0431 -1.0765  0.3679
    2DOPE  H13X  241   5.756   4.467   5.961 -1.2433 -2.3697 -0.4502
    2DOPE  H13Y  242   5.602   4.554   5.917 -0.4306 -0.9035 -1.8652
    2DOPE  C314  243   5.730   4.525   5.750 -0.8671  0.3654  0.1323
    2DOPE  H14X  244   5.840   4.513   5.737 -0.8047  1.3012 -0.3522
    2DOPE  H14Y  245   5.705   4.621   5.700  1.0413  0.5233 -0.6047
    2DOPE  C315  246   5.661   4.405   5.699  0.5491 -0.0119  0.3455
    2DOPE  H15X  247   5.646   4.422   5.590  0.7847  0.8981  0.4513
    2DOPE  H15Y  248   5.555   4.405   5.733  0.0046 -1.9879 -1.1392
    2DOPE  C316  249   5.720   4.264   5.724 -0.0296  0.4569  0.5915
    2DOPE  H16X  250   5.720   4.258   5.835  0.7089  2.0199  0.7124
    2DOPE  H16Y  251   5.825   4.259   5.686 -0.4466 -2.6805 -0.4306
    2DOPE  C317  252   5.643   4.143   5.668  0.1782 -0.8902  0.4858
    2DOPE  H17X  253   5.536   4.163   5.689  0.1271 -2.3613  1.8224
    2DOPE  H17Y  254   5.650   4.135   5.557  1.7767  0.7187  0.4191
    2DOPE  C318  255   5.701   4.020   5.724 -0.2401  0.6696  0.2679
    2DOPE  H18X  256   5.810   4.027   5.703  0.0404 -2.7286  0.0205
    2DOPE  H18Y  257   5.696   4.019   5.835  1.2106  0.0375  0.3430
    2DOPE  H18Z  258   5.650   3.932   5.680  0.9961  2.2228 -4.9463
    3DOPE     N  259   3.500   4.514   7.396  0.7064  0.4228  0.5164
    3DOPE   HN1  260   3.512   4.503   7.499  1.6313  1.9478  0.6130
    3DOPE   HN2  261   3.411   4.474   7.360  2.1565 -1.8573 -0.7024
    3DOPE   HN3  262   3.579   4.460   7.356 -0.1985 -0.8298  0.3795
    3DOPE   C12  263   3.504   4.671   7.361  0.3307  0.3148 -0.2057
    3DOPE  H12A  264   3.599   4.715   7.396  0.7352  0.0760 -0.9688
    3DOPE  H12B  265   3.413   4.708   7.413  0.8623 -2.6030  3.2299
    3DOPE   C11  266   3.494   4.679   7.204 -0.7728 -0.2002  0.0822
    3DOPE  H11A  267   3.574   4.621   7.154 -1.5508  0.7087 -2.3821
    3DOPE  H11B  268   3.512   4.786   7.181  2.5405 -0.5099  0.7410
    3DOPE     P  269   3.251   4.693   7.089 -0.4355 -0.7394  0.3876
    3DOPE   O13  270   3.191   4.772   7.197  0.3511 -0.2836 -0.4355
    3DOPE   O14  271   3.161   4.591   7.028 -0.4890 -0.0723 -0.4230
    3DOPE   O11  272   3.313   4.785   6.976  0.7426  0.1728 -0.2782
    3DOPE   O12  273   3.374   4.622   7.155  0.4620  0.5151  0.2267
    3DOPE    C1  274   3.426   4.739   6.897  0.2372  0.1786  0.6802
    3DOPE    HA  275   3.456   4.635   6.923 -0.5755  0.5360  3.4185
    3DOPE    HB  276   3.517   4.798   6.922  2.8531 -2.3096 -2.1483
    3DOPE    C2  277   3.424   4.743   6.741  0.7829 -0.5987 -0.7410
    3DOPE    HS  278   3.384   4.842   6.709 -0.1909 -0.7576 -0.0631
    3DOPE   O21  279   3.348   4.632   6.694 -0.2795 -0.3732  0.0232
    3DOPE   C21  280   3.279   4.651   6.582 -0.7156  0.3106  0.6718
    3DOPE   O22  281   3.262   4.756   6.524  0.1045  0.1295 -0.1662
    3DOPE   C22  282   3.215   4.520   6.542  0.1777 -0.1123  0.3515
    3DOPE   H2R  283   3.118   4.537   6.492  1.2493  0.9490 -1.4689
    3DOPE   H2S  284   3.203   4.458   6.634  0.4013  0.2730  0.6440
    3DOPE    C3  285   3.568   4.727   6.689 -0.6256  0.3984 -0.1541
    3DOPE    HX  286   3.606   4.639   6.746  0.2960  2.9316  3.5090
    3DOPE    HY  287   3.632   4.812   6.722 -0.3185  0.2214 -0.2870
    3DOPE   O31  288   3.566   4.705   6.540 -0.1468  0.6679 -0.7806
    3DOPE   C31  289   3.678   4.749   6.485  0.0161  0.5877 -0.2389
    3DOPE   O32  290   3.771   4.811   6.533  0.3711 -0.4625  0.1955
    3DOPE   C32  291   3.678   4.705   6.338 -0.0874  0.7301 -0.4610
    3DOPE   H2X  292   3.653   4.597   6.339  2.1347  0.1719  1.4393
    3DOPE   H2Y  293   3.603   4.772   6.289  0.7790  2.1420  0.0697
    3DOPE   C23  294   3.290   4.447   6.426  0.0926  0.9933  0.2883
    3DOPE   H3R  295   3.255   4.343   6.411  0.7350  0.6350  1.1498
    3DOPE   H3S  296   3.399   4.447   6.449 -0.2193  1.4321  1.8671
    3DOPE   C24  297   3.276   4.509   6.288 -0.1286  0.4927  0.4111
    3DOPE   H4R  298   3.308   4.615   6.273  0.1257  0.3786  0.1436
    3DOPE   H4S  299   3.166   4.509   6.273  0.0562 -0.6018 -1.1555
    3DOPE   C25  300   3.335   4.440   6.168  0.3290  0.2481 -0.4109
    3DOPE   H5R  301   3.273   4.349   6.154 -1.7548  1.5201  0.0679
    3DOPE   H5S  302   3.442   4.415   6.188  0.5753  1.5980  0.0119
    3DOPE   C26  303   3.336   4.521   6.042  0.0272 -0.7974 -0.1259
    3DOPE   H6R  304   3.384   4.621   6.056 -1.1822  0.0419 -1.6653
    3DOPE   H6S  305   3.230   4.542   6.016 -0.0384 -1.3901 -0.3459
    3DOPE   C27  306   3.410   4.453   5.923  0.1267 -0.0030 -0.2286
    3DOPE   H7R  307   3.357   4.361   5.892  0.1672 -0.4823  1.1003
    3DOPE   H7S  308   3.508   4.416   5.962 -0.7895 -2.4689 -0.1069
    3DOPE   C28  309   3.417   4.540   5.798  0.2336  0.3386  0.5586
    3DOPE   H8R  310   3.468   4.474   5.724  1.3394  2.1423 -0.3565
    3DOPE   H8S  311   3.490   4.623   5.801  0.2503  0.4753 -1.7843
    3DOPE   C29  312   3.288   4.608   5.762  0.0747  0.8924 -0.7194
    3DOPE   H9R  313   3.255   4.684   5.835  0.3474  2.3490 -2.0506
    3DOPE  C210  314   3.215   4.588   5.648 -0.2337 -0.3300  0.5818
    3DOPE  H10R  315   3.132   4.657   5.628 -0.0822 -0.9448 -2.8348
    3DOPE  C211  316   3.258   4.503   5.534 -0.1181  0.4636 -0.1369
    3DOPE  H11R  317   3.174   4.470   5.469  1.5152 -2.1567 -1.0609
    3DOPE  H11S  318   3.289   4.407   5.579 -0.1309  0.4583 -0.1393
    3DOPE  C212  319   3.366   4.569   5.440 -0.1870 -0.6671  0.3316
    3DOPE  H12R  320   3.468   4.579   5.481 -0.0251  0.4788 -0.3107
    3DOPE  H12S  321   3.328   4.672   5.422 -1.5863 -1.2238 -0.0144
    3DOPE  C213  322   3.381   4.510   5.299 -0.4748  1.0120  0.0827
    3DOPE  H13R  323   3.285   4.523   5.245 -0.6861 -3.2451 -0.8785
    3DOPE  H13S  324   3.395   4.400   5.295 -1.6441  0.8936 -1.9837
    3DOPE  C214  325   3.502   4.565   5.221  0.5148 -0.5139 -1.3296
    3DOPE  H14R  326   3.593   4.559   5.285  0.6775  2.5094 -1.1230
    3DOPE  H14S  327   3.499   4.675   5.210 -0.4491 -0.4594 -0.7140
    3DOPE  C215  328   3.518   4.513   5.078 -0.1717  0.1696 -0.3663
    3DOPE  H15R  329   3.586   4.582   5.024 -2.0100  0.2591 -2.7201
    3DOPE  H15S  330   3.418   4.512   5.030  0.0395 -1.5040 -0.8316
    3DOPE  C216  331   3.566   4.375   5.064  0.0853 -0.6370 -0.4461
    3DOPE  H16R  332   3.477   4.309   5.077 -0.0350 -0.0817  1.9245
    3DOPE  H16S  333   3.645   4.349   5.137 -0.1472  1.2123  0.5152
    3DOPE  C217  334   3.612   4.354   4.917 -0.0841  0.0906 -0.0706
    3DOPE  H17R  335   3.683   4.428   4.874  0.5603 -0.1802  0.4947
    3DOPE  H17S  336   3.536   4.372   4.839  0.8719 -0.3458 -1.1450
    3DOPE  C218  337   3.653   4.202   4.892 -0.3934 -0.3350  0.5127
    3DOPE  H18R  338   3.737   4.178   4.959 -0.3532 -1.5536  0.0560
    3DOPE  H18S  339   3.675   4.175   4.786 -0.3522  3.9567 -0.7575
    3DOPE  H18T  340   3.559   4.147   4.913 -2.2132  0.8545 -3.3998
    3DOPE   C33  341   3.822   4.724   6.271 -0.1898  0.5043 -0.7376
    3DOPE   H3X  342   3.887   4.650   6.322 -2.2810  0.1979  1.6812
    3DOPE   H3Y  343   3.864   4.825   6.289  3.3531 -0.4029 -2.7686
    3DOPE   C34  344   3.797   4.716   6.113 -0.5147 -0.0442 -0.4812
    3DOPE   H4X  345   3.757   4.617   6.083  1.9414 -0.8784 -1.2307
    3DOPE   H4Y  346   3.718   4.793   6.095  0.5085  1.1438  0.0054
    3DOPE   C35  347   3.923   4.732   6.029  0.6451 -0.9539 -0.3808
    3DOPE   H5X  348   4.001   4.654   6.046  1.6741  0.5734  2.6772
    3DOPE   H5Y  349   3.964   4.828   6.067  0.6942 -1.8881  2.1229
    3DOPE   C36  350   3.889   4.757   5.882  0.4576 -0.2583  0.1038
    3DOPE   H6X  351   3.975   4.808   5.832  0.9492 -0.7457  0.4503
    3DOPE   H6Y  352   3.805   4.830   5.877  1.1980  0.5997 -0.1703
    3DOPE   C37  353   3.853   4.628   5.809  0.0127 -0.1867  0.8800
    3DOPE   H7X  354   3.944   4.571   5.782  0.2499  1.2867 -1.7654
    3DOPE   H7Y  355   3.778   4.564   5.860 -1.3058  0.6299  0.0165
    3DOPE   C38  356   3.766   4.657   5.680  0.2695  0.1015 -0.7826
    3DOPE   H8X  357   3.678   4.717   5.711 -1.7236 -0.6429 -4.4581
    3DOPE   H8Y  358   3.734   4.556   5.646 -0.1178  0.2105 -0.7517
    3DOPE   C39  359   3.858   4.731   5.587  0.1171  0.2039  0.1443
    3DOPE   H9X  360   3.880   4.837   5.607  1.5166 -0.0171 -0.1222
    3DOPE  C310  361   3.923   4.673   5.486  0.2137 -0.0279 -0.6197
    3DOPE  H10X  362   3.993   4.734   5.427  0.3738 -1.4608 -1.9764
    3DOPE  C311  363   3.904   4.532   5.437 -0.1597 -0.5460 -0.1098
    3DOPE  H11X  364   3.836   4.472   5.501 -1.8731  2.8137  1.4743
    3DOPE  H11Y  365   3.873   4.545   5.332 -0.3998 -1.2356 -0.1329
    3DOPE  C312  366   4.037   4.468   5.456  0.3288 -0.2003 -0.2490
    3DOPE  H12X  367   4.059   4.458   5.564 -0.0617 -0.9144 -0.2300
    3DOPE  H12Y  368   4.127   4.521   5.419 -0.4241  1.5494  0.3094
    3DOPE  C313  369   4.038   4.313   5.403 -0.2823  0.0462  0.4892
    3DOPE  H13X  370   4.144   4.290   5.427 -0.5714 -0.4331  1.3415
    3DOPE  H13Y  371   3.968   4.246   5.456  1.9055 -3.3267 -0.5720
    3DOPE  C314  372   4.010   4.314   5.253 -0.4585 -0.1298 -0.4953
    3DOPE  H14X  373   3.928   4.383   5.226  0.3258  1.1043  0.1682
    3DOPE  H14Y  374   3.979   4.210   5.233 -1.4091  0.1354 -0.4447
    3DOPE  C315  375   4.139   4.350   5.168  0.2784 -0.2190  0.4256
    3DOPE  H15X  376   4.225   4.281   5.182  0.9975  0.6240  0.2500
    3DOPE  H15Y  377   4.174   4.446   5.210  0.5837 -0.5930  1.0393
    3DOPE  C316  378   4.089   4.352   5.023 -0.1966 -0.4633  0.9203
    3DOPE  H16X  379   4.165   4.405   4.961 -1.9363 -0.1002 -1.0300
    3DOPE  H16Y  380   4.001   4.417   5.005 -0.1595 -1.1743 -2.4542
    3DOPE  C317  381   4.053   4.212   4.967  0.6441  0.0975  0.3272
    3DOPE  H17X  382   4.144   4.148   4.966 -0.7472 -2.0945 -2.8431
    3DOPE  H17Y  383   3.971   4.176   5.032  0.2713 -0.5833 -0.5121
    3DOPE  C318  384   3.995   4.212   4.831  0.3066  0.2030 -0.2256
    3DOPE  H18X  385   3.970   4.107   4.803 -1.7299 -0.0992  2.3515
    3DOPE  H18Y  386   3.907   4.276   4.808  0.2219 -1.1223 -4.7067
    3DOPE  H18Z  387   4.064   4.246   4.751  2.6410  1.7759  2.2963
    4DOPE     N  388   5.779   1.755   7.109  0.3996  0.4716  0.3964
    4DOPE   HN1  389   5.871   1.707   7.119  0.7922  1.3539  1.2494
    4DOPE   HN2  390   5.692   1.698   7.101 -0.3603  1.6664  0.0066
    4DOPE   HN3  391   5.768   1.808   7.021 -1.4344 -2.5167 -1.3508
    4DOPE   C12  392   5.771   1.848   7.225 -0.2376 -0.1464 -0.2801
    4DOPE  H12A  393   5.876   1.881   7.243 -0.0780 -0.1799 -1.0985
    4DOPE  H12B  394   5.727   1.797   7.313  0.3085  1.0053  0.6885
    4DOPE   C11  395   5.687   1.974   7.181  0.0621  0.1601  0.8622
    4DOPE  H11A  396   5.720   2.010   7.082  0.3351 -2.7116 -0.1831
    4DOPE  H11B  397   5.708   2.055   7.253  0.5256 -1.0851  2.1821
    4DOPE     P  398   5.427   1.990   7.090  0.0993 -0.1125  0.0896
    4DOPE   O13  399   5.445   2.137   7.073 -0.0337 -0.1784  0.2795
    4DOPE   O14  400   5.295   1.937   7.138 -0.5671 -0.0077  0.0967
    4DOPE   O11  401   5.474   1.921   6.955  0.0854  0.2089  0.4640
    4DOPE   O12  402   5.550   1.938   7.181  0.2448 -0.0401  0.3938
    4DOPE    C1  403   5.395   1.809   6.904 -0.6452  0.0454 -0.6146
    4DOPE    HA  404   5.347   1.738   6.975 -2.0072  0.1539 -1.3835
    4DOPE    HB  405   5.462   1.735   6.855 -0.6647  0.1899 -0.8603
    4DOPE    C2  406   5.287   1.850   6.799 -0.0860 -0.0702  0.0588
    4DOPE    HS  407   5.267   1.759   6.738  0.6952  0.0895 -0.4502
    4DOPE   O21  408   5.325   1.968   6.720 -0.4986  0.3652 -0.6380
    4DOPE   C21  409   5.427   1.954   6.627  0.4840  0.9272 -0.9303
    4DOPE   O22  410   5.477   1.844   6.612 -0.1278  0.3748  0.1657
    4DOPE   C22  411   5.458   2.088   6.568 -0.2198  0.6394 -0.4921
    4DOPE   H2R  412   5.564   2.080   6.535  0.9181  1.3910  2.6373
    4DOPE   H2S  413   5.451   2.167   6.645 -0.9720  1.8072 -1.7118
    4DOPE    C3  414   5.141   1.879   6.853 -0.3712 -0.3144 -0.0730
    4DOPE    HX  415   5.133   1.948   6.940  1.2266  2.6760 -2.1296
    4DOPE    HY  416   5.127   1.779   6.900  1.6946 -0.6025  0.0113
    4DOPE   O31  417   5.049   1.909   6.751 -0.4604  0.4292  0.0018
    4DOPE   C31  418   4.963   2.013   6.765 -0.2680  0.2513 -0.1630
    4DOPE   O32  419   4.962   2.092   6.856  0.2393  0.8906  0.4193
    4DOPE   C32  420   4.847   1.997   6.667  0.3738  0.5900 -0.6341
    4DOPE   H2X  421   4.888   1.948   6.576 -0.0181 -0.7094 -0.1417
    4DOPE   H2Y  422   4.782   1.918   6.711  1.0112  1.3739  1.9436
    4DOPE   C23  423   5.366   2.119   6.451 -0.3068  0.5030 -0.1364
    4DOPE   H3R  424   5.401   2.220   6.419  0.1376  0.4268  0.0917
    4DOPE   H3S  425   5.259   2.126   6.478 -0.1017  1.7062  0.4545
    4DOPE   C24  426   5.379   2.020   6.338  0.0797  0.1217 -0.6046
    4DOPE   H4R  427   5.298   2.040   6.265 -0.7510  1.1326  0.5587
    4DOPE   H4S  428   5.359   1.916   6.373 -0.4585  0.5830  0.4801
    4DOPE   C25  429   5.524   2.026   6.272  0.3668 -0.4817  0.3219
    4DOPE   H5R  430   5.558   1.929   6.229  0.0945 -0.1208 -0.7274
    4DOPE   H5S  431   5.595   2.052   6.354  0.1494 -2.2735  1.1084
    4DOPE   C26  432   5.547   2.141   6.167  0.6103 -0.0012  0.1762
    4DOPE   H6R  433   5.541   2.237   6.222  2.7657  0.2840 -0.0006
    4DOPE   H6S  434   5.477   2.133   6.081  0.9650 -1.0311 -0.0340
    4DOPE   C27  435   5.688   2.147   6.110  0.6436  0.3436 -0.0681
    4DOPE   H7R  436   5.756   2.164   6.197  3.1333 -2.2225 -1.3436
    4DOPE   H7S  437   5.685   2.234   6.042 -2.0819 -1.3179 -2.2901
    4DOPE   C28  438   5.745   2.017   6.046 -0.0571  0.1920  0.8676
    4DOPE   H8R  439   5.743   1.940   6.126 -0.0930 -0.5168  0.1996
    4DOPE   H8S  440   5.851   2.043   6.027 -0.3374  0.1649 -0.8376
    4DOPE   C29  441   5.676   1.959   5.921 -0.5947  0.2374 -0.2936
    4DOPE   H9R  442   5.591   1.894   5.948 -0.9875  1.1427  0.7182
    4DOPE  C210  443   5.706   1.987   5.795 -0.3438 -0.0607 -0.1942
    4DOPE  H10R  444   5.643   1.947   5.714 -0.7833  1.2140 -0.5122
    4DOPE  C211  445   5.812   2.074   5.728  0.3205  0.1106 -0.6273
    4DOPE  H11R  446   5.884   2.013   5.670  0.3694  0.8413 -1.3415
    4DOPE  H11S  447   5.876   2.114   5.810  0.4158 -0.5976 -0.3441
    4DOPE  C212  448   5.742   2.183   5.639 -0.4183  0.5721 -0.3920
    4DOPE  H12R  449   5.818   2.261   5.619 -0.7671  0.4348 -2.5460
    4DOPE  H12S  450   5.662   2.233   5.696  0.8591 -0.0103  2.0399
    4DOPE  C213  451   5.693   2.132   5.500 -1.0366 -0.0768 -0.8349
    4DOPE  H13R  452   5.600   2.075   5.518 -1.5097  0.8725 -0.1433
    4DOPE  H13S  453   5.786   2.078   5.471  0.5799  0.6105  2.5440
    4DOPE  C214  454   5.666   2.253   5.415  0.1977 -0.2291  0.5091
    4DOPE  H14R  455   5.745   2.330   5.429 -0.7857  0.9178 -0.0106
    4DOPE  H14S  456   5.565   2.288   5.444  0.0021 -1.2524  1.1169
    4DOPE  C215  457   5.669   2.212   5.268  0.6574 -0.0638  0.4387
    4DOPE  H15R  458   5.573   2.167   5.237  1.0597  0.6648 -2.0875
    4DOPE  H15S  459   5.745   2.131   5.261  0.8792 -0.0151  1.8179
    4DOPE  C216  460   5.703   2.330   5.168  0.3789  0.1634 -0.1708
    4DOPE  H16R  461   5.732   2.291   5.068 -1.6754  0.3321 -0.8749
    4DOPE  H16S  462   5.792   2.380   5.212  0.6090 -0.2939 -0.1122
    4DOPE  C217  463   5.590   2.432   5.161 -0.5416 -0.3854 -0.1516
    4DOPE  H17R  464   5.621   2.525   5.212 -0.3831 -0.1944 -0.5874
    4DOPE  H17S  465   5.498   2.392   5.209  1.2453 -0.6622  3.3109
    4DOPE  C218  466   5.556   2.471   5.011 -0.2588  0.1804 -0.1759
    4DOPE  H18R  467   5.514   2.380   4.962  1.7816 -0.3018 -1.1486
    4DOPE  H18S  468   5.643   2.502   4.949 -0.1376  1.0196  0.3999
    4DOPE  H18T  469   5.478   2.550   5.008 -1.4198 -0.8455  1.4055
    4DOPE   C33  470   4.769   2.133   6.644 -0.1494 -0.1322  0.8163
    4DOPE   H3X  471   4.739   2.186   6.737  0.1597  1.2600  0.1531
    4DOPE   H3Y  472   4.675   2.110   6.589 -1.3610  1.6266  2.0028
    4DOPE   C34  473   4.848   2.241   6.562 -0.0368  0.0894  0.2052
    4DOPE   H4X  474   4.782   2.330   6.558 -2.8150 -1.8773 -3.6507
    4DOPE   H4Y  475   4.934   2.256   6.631 -0.4303  0.4404  0.6313
    4DOPE   C35  476   4.892   2.192   6.431  1.1149 -0.3508  0.1511
    4DOPE   H5X  477   4.799   2.182   6.371  1.3530  1.5223 -0.6157
    4DOPE   H5Y  478   4.933   2.089   6.437 -0.6603 -1.1121 -0.0548
    4DOPE   C36  479   4.978   2.284   6.353  0.2312  0.2325  0.2016
    4DOPE   H6X  480   5.065   2.316   6.415  1.5564 -0.5935 -1.1572
    4DOPE   H6Y  481   4.928   2.383   6.340  1.7577  1.5478  3.3546
    4DOPE   C37  482   5.034   2.230   6.220 -0.0136  0.3479  0.2832
    4DOPE   H7X  483   5.106   2.148   6.236 -0.7257 -0.5643 -0.9975
    4DOPE   H7Y  484   4.952   2.178   6.167  1.5056 -1.8594 -0.0049
    4DOPE   C38  485   5.077   2.340   6.120 -0.0645  0.0281  0.1399
    4DOPE   H8X  486   4.990   2.405   6.098 -0.6524 -0.2389  1.5486
    4DOPE   H8Y  487   5.110   2.290   6.027 -1.0686 -0.9627  0.2969
    4DOPE   C39  488   5.186   2.424   6.174 -0.5631 -0.3603 -0.3628
    4DOPE   H9X  489   5.280   2.368   6.184 -0.6556 -0.5271 -0.4230
    4DOPE  C310  490   5.188   2.555   6.218  0.3282  0.1090 -0.0565
    4DOPE  H10X  491   5.275   2.616   6.245 -0.4581  0.4974  1.7603
    4DOPE  C311  492   5.069   2.650   6.227  0.1393 -0.0927  0.2546
    4DOPE  H11X  493   5.005   2.613   6.311  1.0143 -1.8714  0.1772
    4DOPE  H11Y  494   5.101   2.751   6.261  1.4201  0.2354 -1.7834
    4DOPE  C312  495   4.992   2.674   6.096 -1.4885  0.2525 -0.3853
    4DOPE  H12X  496   4.927   2.763   6.111 -0.9800  0.1970  2.5750
    4DOPE  H12Y  497   4.922   2.591   6.072 -0.8933 -0.1935 -0.6071
    4DOPE  C313  498   5.097   2.711   5.983  0.3274  0.1570 -0.4471
    4DOPE  H13X  499   5.170   2.784   6.024 -0.6690  0.1498  1.4139
    4DOPE  H13Y  500   5.159   2.623   5.954 -1.1171 -0.5592 -1.4927
    4DOPE  C314  501   5.028   2.768   5.856  0.7284 -0.7720  0.5616
    4DOPE  H14X  502   4.919   2.784   5.870  1.0171  0.9500  1.1077
    4DOPE  H14Y  503   5.038   2.701   5.768 -1.6607  0.4464 -0.7110
    4DOPE  C315  504   5.095   2.904   5.834 -0.7504  0.1658 -0.1408
    4DOPE  H15X  505   5.203   2.890   5.855 -1.2403 -2.4435  0.9731
    4DOPE  H15Y  506   5.053   2.978   5.905  0.4093  1.3643 -0.6577
    4DOPE  C316  507   5.085   2.959   5.687  0.3070 -0.2578  0.2402
    4DOPE  H16X  508   4.976   2.967   5.670  0.6237 -0.3287 -2.0837
    4DOPE  H16Y  509   5.137   2.891   5.617  2.5244  1.0407  0.5240
    4DOPE  C317  510   5.141   3.099   5.680  0.2444  0.7827  0.0417
    4DOPE  H17X  511   5.169   3.137   5.781 -1.8245  1.8977  0.2489
    4DOPE  H17Y  512   5.230   3.088   5.614 -1.3877 -0.6484 -2.0446
    4DOPE  C318  513   5.043   3.189   5.606 -0.0896  0.0882 -0.4345
    4DOPE  H18X  514   5.092   3.289   5.607 -0.9038  0.5244 -1.6331
    4DOPE  H18Y  515   5.034   3.144   5.504 -1.2366  1.6484 -1.0720
    4DOPE  H18Z  516   4.945   3.205   5.656 -0.1241  2.4304 -1.1030
    5DOPE     N  517   2.102   4.212   7.252  0.0177 -0.2913 -0.6581
    5DOPE   HN1  518   2.091   4.122   7.305  0.1882 -0.5913 -1.1252
    5DOPE   HN2  519   2.203   4.233   7.239 -0.1033  1.3525  0.7552
    5DOPE   HN3  520   2.043   4.278   7.307  0.1642 -2.0239  1.7831
    5DOPE   C12  521   2.044   4.207   7.114 -0.1199  0.2462  0.3246
    5DOPE  H12A  522   1.942   4.164   7.107 -0.9653  2.1454  0.1933
    5DOPE  H12B  523   2.112   4.141   7.056  0.2503  1.8300 -1.1331
    5DOPE   C11  524   2.055   4.341   7.043 -0.3970  1.0115 -0.1504
    5DOPE  H11A  525   2.027   4.316   6.939  1.2058 -2.3119  0.0796
    5DOPE  H11B  526   2.163   4.368   7.044  1.1449 -3.9837 -0.5101
    5DOPE     P  527   1.820   4.455   7.038 -0.2818  0.5612 -0.4658
    5DOPE   O13  528   1.774   4.588   7.085  0.0776 -0.2016 -0.1679
    5DOPE   O14  529   1.740   4.342   7.084  0.0136 -0.0043 -0.2364
    5DOPE   O11  530   1.830   4.459   6.889 -0.2369 -0.0676  0.7206
    5DOPE   O12  531   1.967   4.441   7.091  0.3362  0.3190 -0.3093
    5DOPE    C1  532   1.889   4.564   6.819  0.1133  0.2834  0.1393
    5DOPE    HA  533   1.972   4.518   6.763 -0.1315  1.8469 -1.6324
    5DOPE    HB  534   1.930   4.644   6.885 -0.2157 -0.1764  0.9140
    5DOPE    C2  535   1.793   4.627   6.715  0.6605 -0.3414  0.7453
    5DOPE    HS  536   1.713   4.676   6.775  1.7750 -0.0306  2.0235
    5DOPE   O21  537   1.735   4.522   6.630 -0.1840 -0.5777 -0.0660
    5DOPE   C21  538   1.622   4.561   6.559  0.2773  0.5359  0.2741
    5DOPE   O22  539   1.582   4.677   6.557 -0.2429  0.3713 -1.4495
    5DOPE   C22  540   1.576   4.444   6.467 -0.4690 -0.2883  0.0009
    5DOPE   H2R  541   1.546   4.365   6.539 -0.0790 -0.3667  0.0787
    5DOPE   H2S  542   1.665   4.411   6.409  1.2809  1.8357  1.3211
    5DOPE    C3  543   1.862   4.737   6.634 -1.0860  0.3382  0.3553
    5DOPE    HX  544   1.886   4.827   6.693  0.0237  0.7841 -0.7214
    5DOPE    HY  545   1.788   4.784   6.565 -2.1720 -2.2164 -0.3548
    5DOPE   O31  546   1.973   4.674   6.552  0.9152  0.0137 -0.2584
    5DOPE   C31  547   2.089   4.742   6.550 -0.0278  0.9870 -0.0495
    5DOPE   O32  548   2.102   4.850   6.604 -0.5604  0.3419 -0.2143
    5DOPE   C32  549   2.178   4.663   6.474 -0.2077  0.5588 -0.3995
    5DOPE   H2X  550   2.273   4.651   6.531  0.3138  1.2347 -1.1124
    5DOPE   H2Y  551   2.147   4.565   6.431  0.0352  0.6090 -0.6900
    5DOPE   C23  552   1.465   4.490   6.373 -0.3394  0.2081 -0.8136
    5DOPE   H3R  553   1.491   4.581   6.315 -1.4518  1.5700  0.7251
    5DOPE   H3S  554   1.377   4.507   6.438  0.5345  0.0244  0.4545
    5DOPE   C24  555   1.417   4.381   6.277 -0.3037  0.2706 -0.1264
    5DOPE   H4R  556   1.314   4.412   6.249  0.0884  1.5612 -0.1924
    5DOPE   H4S  557   1.413   4.283   6.328  2.1341 -1.1532 -2.4063
    5DOPE   C25  558   1.490   4.359   6.144  0.6054  0.3637 -0.6629
    5DOPE   H5R  559   1.590   4.320   6.174 -0.3169 -2.6066 -1.1649
    5DOPE   H5S  560   1.497   4.457   6.092  1.2711  0.5428 -0.2502
    5DOPE   C26  561   1.427   4.254   6.064 -0.1764 -0.0461 -0.6815
    5DOPE   H6R  562   1.318   4.275   6.066  0.1639  1.9126 -0.1718
    5DOPE   H6S  563   1.448   4.157   6.114 -1.6008  0.0964  0.2622
    5DOPE   C27  564   1.481   4.250   5.921  0.1382  0.0369  0.2084
    5DOPE   H7R  565   1.592   4.255   5.911  0.1529 -1.2977 -0.4828
    5DOPE   H7S  566   1.438   4.332   5.860  2.5662  0.0951 -1.5698
    5DOPE   C28  567   1.452   4.115   5.847  0.4291  0.2652  0.2663
    5DOPE   H8R  568   1.457   4.032   5.921  1.0623 -0.3875 -0.4861
    5DOPE   H8S  569   1.535   4.095   5.776  1.8570  0.5575  1.7881
    5DOPE   C29  570   1.314   4.119   5.779 -0.0156  0.4194 -0.0144
    5DOPE   H9R  571   1.232   4.140   5.848  1.5517 -1.8544  2.7481
    5DOPE  C210  572   1.278   4.079   5.654  0.1878 -0.1786  0.2836
    5DOPE  H10R  573   1.172   4.088   5.626 -0.1610  0.6065  1.7623
    5DOPE  C211  574   1.373   4.050   5.548 -0.4093  1.0390  0.1394
    5DOPE  H11R  575   1.458   4.121   5.556  1.4846 -0.8163 -2.1119
    5DOPE  H11S  576   1.322   4.070   5.451 -0.2968  0.0867 -0.1313
    5DOPE  C212  577   1.441   3.906   5.557  0.1414 -0.7561  0.2420
    5DOPE  H12R  578   1.369   3.825   5.534 -0.8946  0.7507 -2.2473
    5DOPE  H12S  579   1.484   3.900   5.659  0.4988 -1.7018  0.0498
    5DOPE  C213  580   1.555   3.878   5.460 -0.2447 -0.7845 -0.4685
    5DOPE  H13R  581   1.598   3.779   5.487  1.8612  0.1596 -0.1214
    5DOPE  H13S  582   1.629   3.961   5.462 -1.3340  0.2254 -1.1850
    5DOPE  C214  583   1.509   3.865   5.316  0.3315 -0.4245  0.0895
    5DOPE  H14R  584   1.465   3.959   5.276  1.5341 -0.4530 -1.3928
    5DOPE  H14S  585   1.432   3.784   5.315 -1.0471  0.8424  0.8323
    5DOPE  C215  586   1.623   3.827   5.222 -0.1553 -0.1043  0.0769
    5DOPE  H15R  587   1.677   3.742   5.268  0.6634 -0.0458 -0.7367
    5DOPE  H15S  588   1.700   3.908   5.216 -0.0422 -0.0520  1.7458
    5DOPE  C216  589   1.570   3.791   5.090  1.0041 -0.1121  0.0223
    5DOPE  H16R  590   1.480   3.856   5.079 -0.0894 -1.8100 -1.6455
    5DOPE  H16S  591   1.519   3.692   5.093  1.6175 -0.4795 -1.3081
    5DOPE  C217  592   1.666   3.794   4.980  0.6657 -0.1717  0.3243
    5DOPE  H17R  593   1.749   3.721   4.993  0.6548 -0.0221  1.3033
    5DOPE  H17S  594   1.710   3.895   4.985  0.6193 -0.1296 -0.0815
    5DOPE  C218  595   1.595   3.773   4.842 -0.1846  0.0906  0.0981
    5DOPE  H18R  596   1.528   3.684   4.849  2.2386 -1.9428 -0.9071
    5DOPE  H18S  597   1.666   3.754   4.759 -0.8067  1.0354 -0.6680
    5DOPE  H18T  598   1.535   3.865   4.826  0.8325  0.6238 -0.8119
    5DOPE   C33  599   2.200   4.737   6.338  0.1809  0.0783  0.0466
    5DOPE   H3X  600   2.218   4.845   6.358 -0.7014 -0.1079  2.0754
    5DOPE   H3Y  601   2.103   4.736   6.284  0.0776  0.9056  0.2043
    5DOPE   C34  602   2.303   4.671   6.247 -0.4207  0.1272 -0.6072
    5DOPE   H4X  603   2.402   4.692   6.293  0.3501 -2.5061 -0.8596
    5DOPE   H4Y  604   2.290   4.561   6.255 -0.7074  0.1333 -0.9386
    5DOPE   C35  605   2.293   4.709   6.108  0.5375 -0.1064  0.0329
    5DOPE   H5X  606   2.298   4.820   6.107 -1.7428  0.0448  0.7692
    5DOPE   H5Y  607   2.192   4.679   6.073  1.1394 -1.7121 -0.4030
    5DOPE   C36  608   2.401   4.647   6.020  0.2329  0.3795  0.7792
    5DOPE   H6X  609   2.384   4.538   6.032  0.3985  0.1631 -0.7486
    5DOPE   H6Y  610   2.501   4.677   6.057  1.9073  0.9727 -3.6002
    5DOPE   C37  611   2.388   4.689   5.876 -0.2001  0.2045 -0.1930
    5DOPE   H7X  612   2.298   4.634   5.844 -1.2250  0.1901  2.5042
    5DOPE   H7Y  613   2.368   4.798   5.881  1.1531  0.5008 -0.6035
    5DOPE   C38  614   2.507   4.665   5.780 -0.4372 -0.3594 -1.1046
    5DOPE   H8X  615   2.521   4.557   5.759  1.4329 -0.6813  1.2739
    5DOPE   H8Y  616   2.595   4.698   5.841 -0.5239  0.5063 -1.4440
    5DOPE   C39  617   2.492   4.737   5.654 -0.1325 -0.0504  0.4384
    5DOPE   H9X  618   2.395   4.723   5.604 -0.0002  2.1996 -0.5752
    5DOPE  C310  619   2.585   4.804   5.582  0.3538 -1.3696  0.8579
    5DOPE  H10X  620   2.551   4.854   5.490 -2.6866 -0.4223  2.3295
    5DOPE  C311  621   2.728   4.818   5.616 -0.2433 -0.2250 -0.5362
    5DOPE  H11X  622   2.746   4.752   5.703 -2.1094 -0.7030 -0.4765
    5DOPE  H11Y  623   2.789   4.781   5.531  1.2416  0.0874  0.3586
    5DOPE  C312  624   2.786   4.953   5.660  0.0748  0.3123 -0.6910
    5DOPE  H12X  625   2.884   4.931   5.706  0.2893  0.0717 -1.2535
    5DOPE  H12Y  626   2.716   4.996   5.735 -1.0013  1.2293 -2.1740
    5DOPE  C313  627   2.788   5.054   5.550 -0.4183 -1.0766  0.4921
    5DOPE  H13X  628   2.804   4.990   5.460  2.4225 -0.9966  0.8495
    5DOPE  H13Y  629   2.687   5.097   5.533 -0.0939 -0.3949  0.2720
    5DOPE  C314  630   2.896   5.159   5.555  0.9400 -0.0773 -0.8153
    5DOPE  H14X  631   2.932   5.181   5.453  1.4567 -0.1977 -0.6624
    5DOPE  H14Y  632   2.992   5.137   5.606  0.9395  1.9109  0.1374
    5DOPE  C315  633   2.834   5.285   5.615 -0.2001  0.1958  0.8844
    5DOPE  H15X  634   2.737   5.304   5.563  1.1178  2.1524 -1.0255
    5DOPE  H15Y  635   2.900   5.371   5.591  0.8617 -0.8158  0.0942
    5DOPE  C316  636   2.796   5.285   5.758  0.0456 -0.5438 -0.6333
    5DOPE  H16X  637   2.890   5.285   5.818  0.5432 -3.8529 -1.2281
    5DOPE  H16Y  638   2.750   5.187   5.783 -0.2217  0.0063  1.2198
    5DOPE  C317  639   2.694   5.390   5.800  0.3165 -0.0656  0.4124
    5DOPE  H17X  640   2.594   5.343   5.782  0.8798 -2.2218  2.3672
    5DOPE  H17Y  641   2.697   5.400   5.910 -0.8427 -0.2578  0.4822
    5DOPE  C318  642   2.713   5.528   5.731  0.6396 -0.8664 -0.0005
    5DOPE  H18X  643   2.809   5.578   5.759  2.1672 -2.7443 -1.5708
    5DOPE  H18Y  644   2.714   5.526   5.620 -0.5508  2.3396 -0.1920
    5DOPE  H18Z  645   2.621   5.584   5.759 -0.1563 -2.0903 -0.1240
    6DOPE     N  646   2.110   5.716   6.827  0.0382  0.1961  0.4113
    6DOPE   HN1  647   2.163   5.752   6.745 -0.3057 -0.8274 -0.2882
    6DOPE   HN2  648   2.026   5.777   6.835 -0.7178 -0.4749 -1.7169
    6DOPE   HN3  649   2.160   5.726   6.917 -1.9091  1.1742  1.4638
    6DOPE   C12  650   2.071   5.575   6.813 -0.0819  0.3270  0.0801
    6DOPE  H12A  651   2.016   5.567   6.717  0.8199  1.5311 -0.5677
    6DOPE  H12B  652   2.016   5.544   6.904 -1.0678  4.6616  1.1488
    6DOPE   C11  653   2.195   5.486   6.794  0.1529 -1.0060  0.3678
    6DOPE  H11A  654   2.169   5.386   6.833  1.7794 -1.3467  0.6267
    6DOPE  H11B  655   2.272   5.520   6.865  0.4764 -0.6245 -0.1567
    6DOPE     P  656   2.344   5.590   6.595 -0.3876  0.2605  0.2425
    6DOPE   O13  657   2.483   5.548   6.633  0.0567 -0.1308 -0.4957
    6DOPE   O14  658   2.300   5.731   6.631 -0.4148  0.8365  0.3038
    6DOPE   O11  659   2.315   5.582   6.438  0.5941 -0.4701 -0.0787
    6DOPE   O12  660   2.244   5.480   6.659  0.3865 -0.2947 -1.1060
    6DOPE    C1  661   2.213   5.495   6.385 -0.4869  0.6638  0.1918
    6DOPE    HA  662   2.191   5.520   6.279  0.1990  1.8786  0.3218
    6DOPE    HB  663   2.112   5.502   6.432 -0.5471 -0.8102  0.3284
    6DOPE    C2  664   2.264   5.344   6.388 -0.3316  0.2004 -0.1003
    6DOPE    HS  665   2.319   5.326   6.483  0.6657 -3.4833 -1.2252
    6DOPE   O21  666   2.358   5.325   6.275 -0.3649  0.1893 -0.1305
    6DOPE   C21  667   2.444   5.233   6.298  0.5968 -0.2052 -0.5485
    6DOPE   O22  668   2.457   5.171   6.403 -0.4994 -0.6179 -0.5744
    6DOPE   C22  669   2.512   5.188   6.171 -0.5353  0.2742 -0.2396
    6DOPE   H2R  670   2.563   5.271   6.117 -1.0844  0.8492  0.1252
    6DOPE   H2S  671   2.428   5.149   6.109 -1.2469 -1.2380  1.5700
    6DOPE    C3  672   2.152   5.241   6.384  0.4965  0.4131 -0.0925
    6DOPE    HX  673   2.089   5.264   6.472 -1.6357  0.9247 -1.6957
    6DOPE    HY  674   2.196   5.142   6.412  2.3331  1.4463  0.9418
    6DOPE   O31  675   2.074   5.253   6.261  0.0907  0.1001  0.6462
    6DOPE   C31  676   2.098   5.161   6.178  0.1877  0.4135  0.1858
    6DOPE   O32  677   2.180   5.070   6.191  0.1945 -0.4669 -0.0753
    6DOPE   C32  678   2.000   5.168   6.058  0.2252 -0.7813  0.0398
    6DOPE   H2X  679   1.905   5.126   6.099  0.0212  0.1031  0.4966
    6DOPE   H2Y  680   1.989   5.276   6.036 -0.8043 -0.9800 -0.5282
    6DOPE   C23  681   2.617   5.076   6.190 -0.3446  0.5703 -0.1376
    6DOPE   H3R  682   2.577   4.996   6.256  1.5961 -0.5309 -0.2094
    6DOPE   H3S  683   2.707   5.127   6.231 -0.4649  0.4142  0.3354
    6DOPE   C24  684   2.637   4.998   6.059 -0.2280  0.0568  0.1180
    6DOPE   H4R  685   2.644   5.058   5.966 -1.6831 -1.3680 -0.9857
    6DOPE   H4S  686   2.546   4.934   6.048  1.0842 -1.8103 -0.4933
    6DOPE   C25  687   2.748   4.897   6.058 -0.0946  0.5977  0.0295
    6DOPE   H5R  688   2.751   4.824   5.975 -1.2047 -0.8716  1.2266
    6DOPE   H5S  689   2.748   4.834   6.149  5.0837  0.3901  0.1626
    6DOPE   C26  690   2.883   4.965   6.053 -0.7388 -0.1829 -0.0299
    6DOPE   H6R  691   2.900   5.012   6.152 -0.9583  0.1058 -0.1293
    6DOPE   H6S  692   2.886   5.051   5.984 -2.7898  1.2775  1.5963
    6DOPE   C27  693   3.003   4.865   6.031 -0.5619  0.5319 -0.2243
    6DOPE   H7R  694   2.986   4.811   5.935  0.6754 -1.4777  0.6258
    6DOPE   H7S  695   2.999   4.789   6.112 -5.8963  0.7683  0.0891
    6DOPE   C28  696   3.148   4.921   6.029 -0.3453 -0.6362  0.4781
    6DOPE   H8R  697   3.218   4.840   5.997 -1.4340 -1.3046 -0.3156
    6DOPE   H8S  698   3.157   4.939   6.138  0.0155 -0.4448  0.4154
    6DOPE   C29  699   3.174   5.052   5.964  0.4702  0.5316 -0.1173
    6DOPE   H9R  700   3.103   5.129   5.998 -0.2341 -0.2829  0.2978
    6DOPE  C210  701   3.255   5.070   5.863  0.0898 -0.5118  0.1676
    6DOPE  H10R  702   3.256   5.164   5.806  0.5984  0.7204  2.1142
    6DOPE  C211  703   3.351   4.970   5.806  0.3856 -0.4187  0.3710
    6DOPE  H11R  704   3.349   4.872   5.858  0.0738 -0.7411 -0.2252
    6DOPE  H11S  705   3.454   5.009   5.813  0.2506  0.7878 -2.5707
    6DOPE  C212  706   3.328   4.939   5.654  0.3229  0.0749 -0.1858
    6DOPE  H12R  707   3.227   4.891   5.649  0.5904 -0.9671  2.6307
    6DOPE  H12S  708   3.395   4.853   5.635 -1.6698 -1.2629 -1.5623
    6DOPE  C213  709   3.369   5.049   5.560 -0.2565  0.6797  0.3185
    6DOPE  H13R  710   3.475   5.072   5.586  0.6916 -3.4146  0.9099
    6DOPE  H13S  711   3.301   5.136   5.572 -0.2168  1.0195 -1.5817
    6DOPE  C214  712   3.375   5.003   5.413 -0.7817  0.0707  0.0854
    6DOPE  H14R  713   3.410   4.898   5.412  1.2180  0.6735  0.8118
    6DOPE  H14S  714   3.446   5.067   5.355 -0.3570 -0.0829  0.4319
    6DOPE  C215  715   3.243   5.010   5.343  0.6950 -0.4321  0.0870
    6DOPE  H15R  716   3.223   5.110   5.300  1.9366 -0.1404  0.1718
    6DOPE  H15S  717   3.166   4.982   5.419  2.1218 -0.1161  1.7066
    6DOPE  C216  718   3.223   4.909   5.237 -0.2299  0.6650 -0.2554
    6DOPE  H16R  719   3.224   4.803   5.267 -2.3019  0.6272 -0.1555
    6DOPE  H16S  720   3.302   4.936   5.163 -0.8459  0.3513 -1.0370
    6DOPE  C217  721   3.083   4.922   5.177  0.4112 -0.2791 -0.3455
    6DOPE  H17R  722   3.078   5.022   5.128 -2.1414 -0.7961 -1.2981
    6DOPE  H17S  723   3.005   4.916   5.256  0.6665 -1.6690 -0.1737
    6DOPE  C218  724   3.056   4.823   5.070  0.0668  0.2367 -0.7579
    6DOPE  H18R  725   2.947   4.829   5.046 -0.6760 -1.3094  1.8333
    6DOPE  H18S  726   3.054   4.720   5.110  0.8874  0.5259  0.0586
    6DOPE  H18T  727   3.120   4.851   4.983  0.4280  1.2216 -0.1877
    6DOPE   C33  728   2.039   5.086   5.929 -0.6032  0.9095 -0.1097
    6DOPE   H3X  729   1.959   5.080   5.852 -0.1802  1.3559 -0.5913
    6DOPE   H3Y  730   2.059   4.981   5.960 -0.8077  0.7546 -0.4980
    6DOPE   C34  731   2.154   5.152   5.856 -0.0917 -0.2614  0.2591
    6DOPE   H4X  732   2.110   5.214   5.776 -0.5192 -0.0932  0.6171
    6DOPE   H4Y  733   2.220   5.200   5.931 -0.2246 -2.0637  1.6077
    6DOPE   C35  734   2.242   5.037   5.800 -0.0777  0.1317  0.6851
    6DOPE   H5X  735   2.181   4.954   5.757  0.0513  1.0829 -1.4749
    6DOPE   H5Y  736   2.298   4.992   5.885 -1.5481 -0.7189  1.2280
    6DOPE   C36  737   2.359   5.091   5.712 -0.7516 -0.9640 -0.5709
    6DOPE   H6X  738   2.440   5.021   5.682 -0.1659 -0.3146 -0.5315
    6DOPE   H6Y  739   2.412   5.165   5.776  1.2249 -0.2030 -2.8915
    6DOPE   C37  740   2.314   5.162   5.581 -0.4141 -0.4280  0.1389
    6DOPE   H7X  741   2.242   5.100   5.524 -0.6485  0.9659 -1.1576
    6DOPE   H7Y  742   2.264   5.259   5.604 -0.5896 -0.9609  2.2008
    6DOPE   C38  743   2.428   5.195   5.484 -0.7380 -0.3609 -0.3932
    6DOPE   H8X  744   2.493   5.106   5.479 -1.4701 -1.2338  2.9884
    6DOPE   H8Y  745   2.496   5.274   5.524  0.5542 -1.5805 -0.1234
    6DOPE   C39  746   2.390   5.229   5.348 -0.1796 -0.2212  0.6674
    6DOPE   H9X  747   2.283   5.242   5.325  0.3088  0.0770 -1.6955
    6DOPE  C310  748   2.468   5.233   5.246 -0.4585  0.1435 -0.2948
    6DOPE  H10X  749   2.422   5.272   5.154 -2.2657  2.3847  1.4187
    6DOPE  C311  750   2.620   5.221   5.256 -0.3641  0.5815 -0.4438
    6DOPE  H11X  751   2.673   5.319   5.260 -0.2872  0.6673 -2.5451
    6DOPE  H11Y  752   2.660   5.157   5.338  1.8155 -0.5253 -2.2861
    6DOPE  C312  753   2.670   5.156   5.125 -1.1151  0.1000 -0.0996
    6DOPE  H12X  754   2.781   5.155   5.134 -0.8867  0.5215 -2.2640
    6DOPE  H12Y  755   2.660   5.227   5.041  0.8221  1.4812  0.7563
    6DOPE  C313  756   2.620   5.011   5.097  0.6565  0.2796 -0.1084
    6DOPE  H13X  757   2.513   5.026   5.070  0.2408  0.4980  1.5127
    6DOPE  H13Y  758   2.680   4.976   5.011  0.3325 -1.6196  0.4039
    6DOPE  C314  759   2.630   4.890   5.196  0.2423  0.5383 -0.1159
    6DOPE  H14X  760   2.544   4.888   5.267  0.0022 -0.1431 -0.4080
    6DOPE  H14Y  761   2.723   4.911   5.252  0.3725 -1.5104  0.5263
    6DOPE  C315  762   2.640   4.752   5.126 -0.0237 -0.1160 -0.3416
    6DOPE  H15X  763   2.733   4.746   5.065  0.7751 -1.2957  0.9496
    6DOPE  H15Y  764   2.547   4.733   5.069 -0.2065 -1.2591  0.3012
    6DOPE  C316  765   2.646   4.626   5.218 -0.5707 -0.5929 -0.5226
    6DOPE  H16X  766   2.557   4.642   5.283  0.2282  2.9991 -0.0914
    6DOPE  H16Y  767   2.728   4.622   5.293 -0.6204 -0.5597 -0.4666
    6DOPE  C317  768   2.641   4.499   5.146 -0.2004 -0.2475 -0.4567
    6DOPE  H17X  769   2.562   4.488   5.070  0.2595  0.0639 -0.9872
    6DOPE  H17Y  770   2.738   4.494   5.091  0.2817  2.0434  0.0805
    6DOPE  C318  771   2.619   4.381   5.245  0.4710 -1.0289 -0.1172
    6DOPE  H18X  772   2.704   4.375   5.316  0.3698 -2.2150 -0.0657
    6DOPE  H18Y  773   2.523   4.392   5.299  0.0749  1.1150 -1.1520
    6DOPE  H18Z  774   2.626   4.286   5.187 -1.7400 -0.8434 -0.7597
    7DOPE     N  775   4.326   6.382   6.986  0.4972 -0.7394  0.0515
    7DOPE   HN1  776   4.387   6.301   7.008 -0.6659 -1.1488  1.9970
    7DOPE   HN2  777   4.382   6.453   6.934  0.3055 -0.6616 -0.0526
    7DOPE   HN3  778   4.289   6.427   7.073  0.6673  0.6908 -0.5883
    7DOPE   C12  779   4.206   6.333   6.908 -0.3920 -0.5220  0.7326
    7DOPE  H12A  780   4.237   6.300   6.807  0.8226  0.2020  0.8440
    7DOPE  H12B  781   4.130   6.414   6.907 -1.1416 -1.2191 -0.2057
    7DOPE   C11  782   4.139   6.211   6.982 -0.0296 -0.1113 -0.0311
    7DOPE  H11A  783   4.209   6.125   6.973  1.4227  1.0100  0.1960
    7DOPE  H11B  784   4.055   6.191   6.911 -0.0979  0.9768 -0.2695
    7DOPE     P  785   3.978   6.174   7.182 -0.1911  0.0457 -0.1765
    7DOPE   O13  786   3.940   6.254   7.303  0.2783 -0.2139 -0.5110
    7DOPE   O14  787   3.994   6.025   7.198 -0.3638 -0.0194  0.3079
    7DOPE   O11  788   3.876   6.201   7.066 -0.1345 -0.6807  0.2521
    7DOPE   O12  789   4.102   6.238   7.118  0.0451  0.2203  0.1616
    7DOPE    C1  790   3.838   6.334   7.039 -0.5949  0.0637 -0.4686
    7DOPE    HA  791   3.915   6.414   7.044 -0.4170 -0.0761 -0.9369
    7DOPE    HB  792   3.757   6.366   7.108 -0.0991  0.8910 -0.2512
    7DOPE    C2  793   3.782   6.346   6.891 -0.2039 -1.2097 -0.0854
    7DOPE    HS  794   3.676   6.313   6.894 -0.9721  1.0978  0.8015
    7DOPE   O21  795   3.856   6.268   6.801 -0.2478  0.0578  0.4644
    7DOPE   C21  796   3.794   6.253   6.686  0.2803  0.4941 -0.0822
    7DOPE   O22  797   3.683   6.294   6.663  0.0826 -0.4457  0.2960
    7DOPE   C22  798   3.875   6.166   6.598 -0.6351  0.1459 -0.0177
    7DOPE   H2R  799   3.918   6.078   6.651 -1.5766 -1.4843 -1.8138
    7DOPE   H2S  800   3.958   6.233   6.571 -0.6102  1.5088  3.0436
    7DOPE    C3  801   3.783   6.499   6.848  0.3008  0.3361 -0.6071
    7DOPE    HX  802   3.709   6.540   6.920  0.1446  0.1180 -0.6426
    7DOPE    HY  803   3.732   6.511   6.750 -2.9041 -0.6351  0.8294
    7DOPE   O31  804   3.902   6.569   6.868 -0.6207 -0.0084  0.4350
    7DOPE   C31  805   3.985   6.580   6.761  0.2134  0.8974 -0.5019
    7DOPE   O32  806   3.975   6.525   6.653 -0.1872 -0.1844  0.2775
    7DOPE   C32  807   4.100   6.685   6.803  0.1118  0.8617  0.2344
    7DOPE   H2X  808   4.095   6.702   6.913 -2.4574 -0.5332  0.4162
    7DOPE   H2Y  809   4.199   6.640   6.782 -0.7746 -1.2584  0.3235
    7DOPE   C23  810   3.810   6.106   6.481  0.2050  0.2844  0.6097
    7DOPE   H3R  811   3.769   6.182   6.411 -0.4192  0.2349  0.9172
    7DOPE   H3S  812   3.723   6.039   6.498  0.8896 -0.3251  1.8606
    7DOPE   C24  813   3.912   6.024   6.395 -0.1510  0.1783  0.8848
    7DOPE   H4R  814   3.952   5.949   6.466 -0.3550  0.1416  0.9620
    7DOPE   H4S  815   3.985   6.098   6.356 -1.7544 -0.0226 -2.9245
    7DOPE   C25  816   3.863   5.936   6.269 -0.3979  0.3385 -0.9137
    7DOPE   H5R  817   3.813   5.851   6.321 -3.4674  2.4467 -0.1273
    7DOPE   H5S  818   3.944   5.899   6.204  0.0062 -0.1321 -0.1639
    7DOPE   C26  819   3.761   6.007   6.182 -0.3409  0.4947 -0.5187
    7DOPE   H6R  820   3.678   6.057   6.236 -0.9117 -2.0137  1.1047
    7DOPE   H6S  821   3.716   5.931   6.114  0.0693  0.0902 -0.3439
    7DOPE   C27  822   3.835   6.104   6.090 -0.1261 -0.0893  0.0003
    7DOPE   H7R  823   3.933   6.066   6.052  0.5432 -1.2502  2.6962
    7DOPE   H7S  824   3.865   6.198   6.141  0.7402 -0.5220  0.3053
    7DOPE   C28  825   3.746   6.122   5.963 -1.0266  0.1434 -0.5253
    7DOPE   H8R  826   3.641   6.151   5.984 -0.8802  0.2339  0.1088
    7DOPE   H8S  827   3.743   6.026   5.907  1.9664  0.6753 -1.7856
    7DOPE   C29  828   3.783   6.240   5.885  0.0972 -0.3726  0.0239
    7DOPE   H9R  829   3.754   6.338   5.923  0.1411  1.1956 -3.5699
    7DOPE  C210  830   3.845   6.255   5.766 -0.4658  0.1060  0.1693
    7DOPE  H10R  831   3.872   6.354   5.726 -0.6109 -0.2193 -0.7629
    7DOPE  C211  832   3.893   6.138   5.679 -0.5166 -0.1576  0.6076
    7DOPE  H11R  833   3.837   6.128   5.583  0.4652 -1.7752  0.1695
    7DOPE  H11S  834   3.883   6.039   5.728 -0.1514 -0.5004 -0.0013
    7DOPE  C212  835   4.045   6.149   5.643 -0.1926 -0.2041 -0.4334
    7DOPE  H12R  836   4.101   6.139   5.739  1.2988 -0.3839 -1.2916
    7DOPE  H12S  837   4.064   6.252   5.607  1.5134 -0.3700 -0.0746
    7DOPE  C213  838   4.104   6.046   5.547  0.1039 -0.3647  0.2517
    7DOPE  H13R  839   4.067   6.074   5.446  0.2937 -1.1124 -0.0261
    7DOPE  H13S  840   4.070   5.942   5.566  0.9744 -0.5476  0.8916
    7DOPE  C214  841   4.260   6.041   5.550  0.2317 -0.1241  0.1041
    7DOPE  H14R  842   4.291   6.021   5.655 -3.5318  1.3560  1.6904
    7DOPE  H14S  843   4.285   6.144   5.517 -1.0462  0.0571 -0.3459
    7DOPE  C215  844   4.315   5.944   5.450  0.8325 -0.1579 -0.3465
    7DOPE  H15R  845   4.269   5.972   5.352 -1.5551 -2.5381 -0.0167
    7DOPE  H15S  846   4.265   5.848   5.471 -0.5922  0.8214  0.9446
    7DOPE  C216  847   4.470   5.936   5.447  0.4329  0.0113 -0.4414
    7DOPE  H16R  848   4.507   5.935   5.551 -3.3170  2.0646  1.1301
    7DOPE  H16S  849   4.502   6.032   5.401  2.5020  0.1756  1.1827
    7DOPE  C217  850   4.516   5.823   5.352  0.1983 -0.2022  0.0444
    7DOPE  H17R  851   4.474   5.847   5.252 -0.7968  0.9332  0.7075
    7DOPE  H17S  852   4.465   5.730   5.384  0.0437  0.0248  0.4627
    7DOPE  C218  853   4.667   5.814   5.351  0.2031 -0.2603  0.3225
    7DOPE  H18R  854   4.697   5.719   5.301  1.6151  0.1035  0.4531
    7DOPE  H18S  855   4.699   5.815   5.457  1.9326  2.5545 -0.1138
    7DOPE  H18T  856   4.720   5.897   5.300  1.9223 -0.0490  2.3164
    7DOPE   C33  857   4.092   6.823   6.739 -0.0566 -1.0601 -0.0424
    7DOPE   H3X  858   4.175   6.881   6.785 -0.0274 -1.7366  0.7828
    7DOPE   H3Y  859   4.000   6.879   6.765  0.9792  2.1847 -2.7264
    7DOPE   C34  860   4.100   6.832   6.585  0.2906 -0.3657  0.0593
    7DOPE   H4X  861   4.192   6.774   6.561 -1.0295 -2.4957 -0.1177
    7DOPE   H4Y  862   4.010   6.794   6.532  0.5931  1.8218 -2.1796
    7DOPE   C35  863   4.124   6.973   6.533 -0.0097 -0.2361  0.2347
    7DOPE   H5X  864   4.216   7.020   6.575 -1.8789  2.3403  1.6865
    7DOPE   H5Y  865   4.038   7.031   6.571 -0.8774 -0.6722 -1.0156
    7DOPE   C36  866   4.116   6.992   6.379 -0.2419 -0.0271 -0.6384
    7DOPE   H6X  867   4.195   6.929   6.332  0.0058  0.2716 -0.6222
    7DOPE   H6Y  868   4.142   7.098   6.358 -0.8455  0.4904  1.0433
    7DOPE   C37  869   3.975   6.963   6.327  0.4072  0.8303  0.5650
    7DOPE   H7X  870   3.957   6.854   6.339 -1.3825  1.1558  0.9807
    7DOPE   H7Y  871   3.893   7.018   6.376 -0.4124  0.7212 -0.6383
    7DOPE   C38  872   3.953   6.984   6.171 -0.3996 -0.1693  0.7524
    7DOPE   H8X  873   3.945   7.094   6.157  5.2345  0.8094  2.7487
    7DOPE   H8Y  874   3.860   6.931   6.142 -0.8091  1.6720 -1.6459
    7DOPE   C39  875   4.057   6.925   6.081  0.5862 -0.3044 -0.3783
    7DOPE   H9X  876   4.124   6.855   6.133 -1.3010 -0.0628  2.6163
    7DOPE  C310  877   4.082   6.963   5.956 -0.8654 -0.1281  0.1163
    7DOPE  H10X  878   4.154   6.909   5.892 -1.0643  0.2630 -0.4456
    7DOPE  C311  879   4.005   7.070   5.888 -0.0346  0.0612 -0.2421
    7DOPE  H11X  880   3.911   7.023   5.854  0.8884 -2.2171  0.1642
    7DOPE  H11Y  881   3.999   7.154   5.960 -0.9177 -1.3949  1.4527
    7DOPE  C312  882   4.084   7.116   5.765 -0.0479 -0.5690  0.0164
    7DOPE  H12X  883   4.092   7.025   5.701 -2.5672  1.0967 -2.9456
    7DOPE  H12Y  884   4.186   7.149   5.793  0.4931 -0.2141 -2.1809
    7DOPE  C313  885   4.027   7.229   5.683  0.6246  0.1587 -0.6542
    7DOPE  H13X  886   3.931   7.196   5.638 -0.1024  1.1871  0.0847
    7DOPE  H13Y  887   4.017   7.313   5.755 -0.3451 -0.2286 -0.3282
    7DOPE  C314  888   4.119   7.274   5.568  1.0165 -0.2929 -0.1032
    7DOPE  H14X  889   4.167   7.178   5.538  0.0656 -1.9013  2.9981
    7DOPE  H14Y  890   4.198   7.344   5.604  0.3047  0.0729  0.7973
    7DOPE  C315  891   4.055   7.331   5.437 -1.5932 -0.5118 -0.0961
    7DOPE  H15X  892   4.133   7.348   5.361 -3.1942  0.0848 -1.6764
    7DOPE  H15Y  893   4.012   7.429   5.466 -1.6001  0.4662 -3.0647
    7DOPE  C316  894   3.961   7.229   5.376  0.0485 -0.2958 -0.0083
    7DOPE  H16X  895   3.871   7.214   5.439 -0.9843  0.9970 -1.1189
    7DOPE  H16Y  896   4.018   7.133   5.377  1.9689  0.7721 -1.2215
    7DOPE  C317  897   3.905   7.264   5.238  0.2823  0.1224  0.2598
    7DOPE  H17X  898   3.849   7.358   5.254  0.3501 -0.1253  2.1696
    7DOPE  H17Y  899   3.997   7.282   5.178  0.4191 -0.4559  0.2873
    7DOPE  C318  900   3.819   7.162   5.158 -0.1704 -0.4237  0.5674
    7DOPE  H18X  901   3.729   7.129   5.213 -0.5999  0.7665  0.5974
    7DOPE  H18Y  902   3.784   7.206   5.062  1.8198  0.4436  0.1731
    7DOPE  H18Z  903   3.875   7.070   5.131  0.5869  0.7535 -2.2634
    8DOPE     N  904   4.494   7.124   6.931 -0.2171 -0.4090 -0.3929
    8DOPE   HN1  905   4.569   7.190   6.959  0.0299  0.2098 -2.3947
    8DOPE   HN2  906   4.504   7.089   6.834  1.4154 -3.9871  0.8681
    8DOPE   HN3  907   4.407   7.179   6.943  1.5306  2.3652  0.4419
    8DOPE   C12  908   4.504   6.998   7.014 -0.0754  0.3294  0.2624
    8DOPE  H12A  909   4.398   6.966   7.024 -0.4378  1.5097  0.3184
    8DOPE  H12B  910   4.538   7.015   7.118 -0.6367  1.5105  0.2643
    8DOPE   C11  911   4.587   6.888   6.945 -0.6078  0.0975 -0.3022
    8DOPE  H11A  912   4.603   6.818   7.030 -0.7354 -1.9161 -1.8484
    8DOPE  H11B  913   4.688   6.927   6.918  0.3099 -1.9194  0.0088
    8DOPE     P  914   4.546   6.675   6.798 -0.4979 -0.3467  0.1469
    8DOPE   O13  915   4.520   6.659   6.653  0.1094 -0.1732 -0.6069
    8DOPE   O14  916   4.458   6.594   6.885  0.0310  0.8026 -0.1947
    8DOPE   O11  917   4.694   6.655   6.829 -0.2241  0.0332 -0.5463
    8DOPE   O12  918   4.527   6.833   6.828 -0.2633  0.2052  0.2192
    8DOPE    C1  919   4.793   6.724   6.751 -0.2783 -0.0177 -0.1223
    8DOPE    HA  920   4.822   6.819   6.800 -2.5682  0.9952 -0.6210
    8DOPE    HB  921   4.761   6.763   6.652  0.6642  1.6940  0.2105
    8DOPE    C2  922   4.923   6.640   6.730 -0.1372  0.1298 -0.8118
    8DOPE    HS  923   4.979   6.692   6.650 -0.6146 -0.0437 -1.2641
    8DOPE   O21  924   4.885   6.511   6.689  0.6031  0.7778 -0.2492
    8DOPE   C21  925   4.842   6.506   6.563 -0.1598 -0.0745 -0.9040
    8DOPE   O22  926   4.852   6.595   6.478  0.2568 -0.1738 -0.4605
    8DOPE   C22  927   4.766   6.376   6.532 -1.1438 -0.6580  0.0479
    8DOPE   H2R  928   4.697   6.349   6.615 -0.7901  2.2305  1.3882
    8DOPE   H2S  929   4.841   6.294   6.544  0.2629  0.2988 -1.6596
    8DOPE    C3  930   5.016   6.637   6.856 -0.4504  0.2299 -0.3200
    8DOPE    HX  931   4.969   6.589   6.945  1.3157 -2.7863 -0.8621
    8DOPE    HY  932   5.041   6.742   6.882 -2.7062  0.8933 -0.6107
    8DOPE   O31  933   5.141   6.569   6.827 -0.3796  0.1211  0.0820
    8DOPE   C31  934   5.157   6.457   6.892  0.6117  0.3977 -0.2241
    8DOPE   O32  935   5.104   6.429   6.999  0.3346  0.4907 -0.4592
    8DOPE   C32  936   5.242   6.347   6.821  0.3201 -0.2828 -0.4140
    8DOPE   H2X  937   5.348   6.353   6.852  0.3592  1.6442 -0.7935
    8DOPE   H2Y  938   5.201   6.252   6.863  1.6848 -0.3334  0.8678
    8DOPE   C23  939   4.701   6.374   6.393  0.5081 -0.1829  0.4103
    8DOPE   H3R  940   4.770   6.418   6.319 -1.1962 -0.4764 -1.4246
    8DOPE   H3S  941   4.610   6.438   6.396 -0.2090 -1.1317 -0.4308
    8DOPE   C24  942   4.665   6.232   6.346  0.2866  0.0003  0.1326
    8DOPE   H4R  943   4.579   6.246   6.276  0.6894 -1.3719 -0.6763
    8DOPE   H4S  944   4.633   6.162   6.427 -1.1125 -0.7091 -0.9732
    8DOPE   C25  945   4.770   6.168   6.264 -0.2531  0.2225  0.1293
    8DOPE   H5R  946   4.864   6.159   6.323 -0.8795  0.2003  1.1475
    8DOPE   H5S  947   4.796   6.229   6.175  0.7181 -0.6540 -0.2073
    8DOPE   C26  948   4.730   6.026   6.221  0.1796  0.2221 -0.1320
    8DOPE   H6R  949   4.627   6.031   6.182 -0.1294 -1.4161  0.3933
    8DOPE   H6S  950   4.715   5.976   6.319  1.2503  3.0582  1.6178
    8DOPE   C27  951   4.828   5.951   6.137  0.1115 -0.0981 -0.3207
    8DOPE   H7R  952   4.926   5.953   6.188  0.7491 -0.8175 -1.4758
    8DOPE   H7S  953   4.847   5.998   6.038 -3.1025 -0.0351 -1.0408
    8DOPE   C28  954   4.798   5.803   6.109 -0.0079 -0.8281 -0.0595
    8DOPE   H8R  955   4.749   5.752   6.194  1.2619 -2.9938 -0.5428
    8DOPE   H8S  956   4.900   5.761   6.101  0.9958  1.2398  1.0767
    8DOPE   C29  957   4.716   5.788   5.978 -0.5397  0.5015 -0.1209
    8DOPE   H9R  958   4.618   5.837   5.973 -1.5655 -1.4261 -0.0658
    8DOPE  C210  959   4.751   5.723   5.865  0.2081  0.0511  0.0818
    8DOPE  H10R  960   4.682   5.717   5.780 -0.2468  0.2319  0.4312
    8DOPE  C211  961   4.879   5.642   5.843 -0.2007 -0.7492 -0.0249
    8DOPE  H11R  962   4.863   5.544   5.795 -0.7424 -0.1849 -1.0119
    8DOPE  H11S  963   4.931   5.619   5.939  0.1265  0.6627  0.1587
    8DOPE  C212  964   4.983   5.721   5.752 -0.2276 -0.2426  0.1569
    8DOPE  H12R  965   5.073   5.656   5.746 -1.5192 -2.0018 -1.7823
    8DOPE  H12S  966   4.997   5.820   5.798  0.1368  0.3934 -1.2531
    8DOPE  C213  967   4.932   5.747   5.613  0.5910 -0.4135  0.1210
    8DOPE  H13R  968   4.853   5.824   5.617  0.3876 -0.4214 -2.2278
    8DOPE  H13S  969   4.898   5.662   5.550  2.8682 -0.7249 -0.8027
    8DOPE  C214  970   5.054   5.796   5.522  0.3853  0.1231  0.1252
    8DOPE  H14R  971   5.094   5.701   5.480  1.7208  0.1800  1.2150
    8DOPE  H14S  972   5.134   5.845   5.582 -1.4393  1.1425  1.8373
    8DOPE  C215  973   5.010   5.885   5.400  0.5830 -0.1016 -0.1776
    8DOPE  H15R  974   4.908   5.869   5.360  0.6857 -0.3050 -0.3591
    8DOPE  H15S  975   5.078   5.859   5.316  1.7582  1.7128  0.1448
    8DOPE  C216  976   5.020   6.036   5.415  0.2073 -0.5968  0.0190
    8DOPE  H16R  977   5.121   6.066   5.451 -0.6204 -0.1965  2.1729
    8DOPE  H16S  978   4.952   6.072   5.495 -1.0613  0.3984 -1.4457
    8DOPE  C217  979   4.997   6.109   5.288  0.0421  0.0441  0.1712
    8DOPE  H17R  980   4.891   6.101   5.253  0.0203  0.1716  0.2091
    8DOPE  H17S  981   5.059   6.067   5.206 -0.4245  1.1700 -0.7783
    8DOPE  C218  982   5.038   6.255   5.296 -0.2270  0.8417  0.4674
    8DOPE  H18R  983   5.148   6.269   5.298 -0.3181  1.5744  0.5902
    8DOPE  H18S  984   5.000   6.315   5.382 -4.3727  2.1791 -1.9682
    8DOPE  H18T  985   5.001   6.312   5.208 -0.9923 -3.2428 -2.1419
    8DOPE   C33  986   5.230   6.355   6.665  0.3098 -0.8491  0.3289
    8DOPE   H3X  987   5.292   6.445   6.645  1.3233 -1.0316  2.3511
    8DOPE   H3Y  988   5.123   6.360   6.638  0.1653 -3.0008  0.3098
    8DOPE   C34  989   5.297   6.230   6.612  0.1414  0.0684  0.8275
    8DOPE   H4X  990   5.405   6.253   6.599 -0.3211  2.3820  0.7105
    8DOPE   H4Y  991   5.297   6.148   6.687 -0.1990 -0.2198  0.5154
    8DOPE   C35  992   5.235   6.174   6.482 -0.3953  0.9472  0.1327
    8DOPE   H5X  993   5.240   6.237   6.390 -1.1289 -0.5548 -0.9800
    8DOPE   H5Y  994   5.127   6.155   6.500  0.0250 -1.8725  0.1585
    8DOPE   C36  995   5.294   6.031   6.448  0.1922 -0.3491 -0.1371
    8DOPE   H6X  996   5.296   5.956   6.530  1.9577 -1.6289 -1.2684
    8DOPE   H6Y  997   5.401   6.051   6.427 -0.4515  2.6932 -1.1070
    8DOPE   C37  998   5.229   5.966   6.329  0.1092 -0.3446  0.2063
    8DOPE   H7X  999   5.227   5.857   6.350 -0.0190 -0.3442  0.2014
    8DOPE   H7Y 1000   5.126   6.007   6.316  0.1102 -0.2053  0.6518
    8DOPE   C38 1001   5.309   5.963   6.200  0.7937  0.1110  0.2698
    8DOPE   H8X 1002   5.413   5.932   6.223  0.7000 -0.7807 -0.4324
    8DOPE   H8Y 1003   5.312   6.066   6.159  0.8465 -0.0461 -0.1228
    8DOPE   C39 1004   5.262   5.862   6.097 -0.1499  0.1386  0.1487
    8DOPE   H9X 1005   5.194   5.784   6.134 -2.2114  0.7513 -2.1045
    8DOPE  C310 1006   5.289   5.865   5.964 -0.1921  0.1418  0.4798
    8DOPE  H10X 1007   5.256   5.780   5.902 -0.2182 -0.3324  1.1314
    8DOPE  C311 1008   5.360   5.974   5.885 -0.1899  0.8591 -0.4379
    8DOPE  H11X 1009   5.315   6.074   5.905 -0.5851  0.0448  3.7468
    8DOPE  H11Y 1010   5.464   5.997   5.919 -0.2787  0.0270  0.4122
    8DOPE  C312 1011   5.378   5.958   5.730  0.8122 -0.3262  0.6502
    8DOPE  H12X 1012   5.280   5.972   5.679  0.6053  3.4067  1.7875
    8DOPE  H12Y 1013   5.423   5.861   5.698  2.6725  0.4519  0.7575
    8DOPE  C313 1014   5.486   6.065   5.674  0.3243 -0.4230  0.4545
    8DOPE  H13X 1015   5.470   6.168   5.713 -0.4059  0.7019 -2.5669
    8DOPE  H13Y 1016   5.587   6.030   5.704  0.8756  1.2371  0.6169
    8DOPE  C314 1017   5.486   6.062   5.520  0.1159 -0.8541 -0.7834
    8DOPE  H14X 1018   5.381   6.066   5.484  0.5699 -0.7756 -2.1582
    8DOPE  H14Y 1019   5.515   5.957   5.499  0.6290 -1.3495  1.9683
    8DOPE  C315 1020   5.570   6.175   5.462 -0.0998  0.2742  0.2216
    8DOPE  H15X 1021   5.665   6.183   5.519 -0.1952 -0.0885  0.4334
    8DOPE  H15Y 1022   5.519   6.273   5.459 -1.1619 -0.2793 -1.9803
    8DOPE  C316 1023   5.608   6.149   5.312 -0.4946  0.2070  0.2976
    8DOPE  H16X 1024   5.531   6.112   5.241 -1.4978  0.9127  0.9912
    8DOPE  H16Y 1025   5.679   6.064   5.320 -0.3175  0.2526 -0.6909
    8DOPE  C317 1026   5.677   6.269   5.250  0.7545  0.4044  0.4437
    8DOPE  H17X 1027   5.747   6.321   5.320  2.2528  1.1603 -1.5342
    8DOPE  H17Y 1028   5.743   6.237   5.167  0.9236  0.1491  0.6764
    8DOPE  C318 1029   5.583   6.384   5.208  0.6042 -0.0333 -0.0993
    8DOPE  H18X 1030   5.537   6.433   5.297  1.9688  0.2683  0.4763
    8DOPE  H18Y 1031   5.510   6.360   5.129  1.4034  0.3586 -0.9693
    8DOPE  H18Z 1032   5.650   6.465   5.171  2.7454 -1.0590  1.2844
    9DOPE     N 1033   3.011   4.379   6.980 -0.7063 -0.6547 -0.5264
    9DOPE   HN1 1034   3.036   4.318   6.899  1.8326 -1.1181  0.4961
    9DOPE   HN2 1035   3.063   4.469   6.983 -1.5179 -0.1981  2.2994
    9DOPE   HN3 1036   3.035   4.324   7.064 -1.9627 -0.3276  0.0546
    9DOPE   C12 1037   2.870   4.408   6.976  0.4770 -0.0610 -0.1805
    9DOPE  H12A 1038   2.836   4.471   6.890 -1.0762  0.2451  0.6193
    9DOPE  H12B 1039   2.847   4.474   7.063 -0.9388  2.4690 -2.3301
    9DOPE   C11 1040   2.782   4.283   6.974  0.0153 -0.7457 -0.3118
    9DOPE  H11A 1041   2.802   4.233   6.876  0.2891 -0.9196 -0.1696
    9DOPE  H11B 1042   2.679   4.325   6.977  0.2856 -0.1469  1.3801
    9DOPE     P 1043   2.721   4.135   7.189  0.5397 -0.2674 -0.0927
    9DOPE   O13 1044   2.717   4.236   7.299 -0.5205 -1.1222  0.1250
    9DOPE   O14 1045   2.767   4.001   7.225 -0.7532 -0.3768  0.2041
    9DOPE   O11 1046   2.577   4.127   7.119 -0.3282 -0.2105  0.1223
    9DOPE   O12 1047   2.811   4.189   7.077 -0.8694 -0.1551  0.1042
    9DOPE    C1 1048   2.570   4.047   6.997 -0.2420  0.3330  0.1380
    9DOPE    HA 1049   2.616   3.947   7.012  1.2557  0.8849 -0.5553
    9DOPE    HB 1050   2.628   4.100   6.918  0.7219  0.6851  1.0454
    9DOPE    C2 1051   2.429   4.012   6.951  0.0501  0.1622 -0.2564
    9DOPE    HS 1052   2.437   3.947   6.862  2.6684  0.5987 -0.4036
    9DOPE   O21 1053   2.354   4.132   6.920 -0.2817  0.1764  0.2752
    9DOPE   C21 1054   2.396   4.179   6.804 -0.2937 -0.4578  0.5303
    9DOPE   O22 1055   2.465   4.120   6.724 -0.2330 -0.5462  0.5132
    9DOPE   C22 1056   2.322   4.308   6.775  0.1395  0.1668  1.0489
    9DOPE   H2R 1057   2.386   4.373   6.711 -0.5391  2.2082  2.3521
    9DOPE   H2S 1058   2.325   4.350   6.878 -0.0743 -0.2339  1.2200
    9DOPE    C3 1059   2.347   3.922   7.047 -0.4891 -0.4456  0.4445
    9DOPE    HX 1060   2.324   3.981   7.138 -2.3894 -1.3418  0.6064
    9DOPE    HY 1061   2.399   3.829   7.078 -0.6209 -1.3357 -1.8163
    9DOPE   O31 1062   2.230   3.882   6.980 -0.3738  0.4954  0.2021
    9DOPE   C31 1063   2.222   3.765   6.914  0.1182 -0.2805  0.1269
    9DOPE   O32 1064   2.316   3.697   6.886 -0.8407  0.7629 -0.3279
    9DOPE   C32 1065   2.078   3.755   6.860  0.2894  0.2537 -1.7015
    9DOPE   H2X 1066   2.041   3.653   6.884 -2.0059  1.6824  1.5294
    9DOPE   H2Y 1067   2.017   3.827   6.918  2.0040  0.0657  0.4644
    9DOPE   C23 1068   2.187   4.280   6.705  0.7989  0.2535 -0.0625
    9DOPE   H3R 1069   2.142   4.377   6.675 -0.2700  0.4843  2.0790
    9DOPE   H3S 1070   2.116   4.235   6.777 -0.3210  1.6588 -0.2627
    9DOPE   C24 1071   2.189   4.177   6.589 -0.0066 -0.2033  0.3611
    9DOPE   H4R 1072   2.218   4.078   6.632  0.8418 -0.3548 -0.5125
    9DOPE   H4S 1073   2.273   4.205   6.522 -1.5393  1.0588 -1.1109
    9DOPE   C25 1074   2.057   4.153   6.518 -0.0121  0.0323  0.2687
    9DOPE   H5R 1075   1.983   4.138   6.600  0.8530 -0.1630  1.0346
    9DOPE   H5S 1076   2.074   4.060   6.460  0.4370 -0.1215  0.6380
    9DOPE   C26 1077   2.004   4.266   6.432  0.3967 -0.2479 -0.7058
    9DOPE   H6R 1078   1.999   4.356   6.497 -1.3680 -0.5201 -0.3984
    9DOPE   H6S 1079   1.902   4.240   6.396 -0.3772  0.6795  0.6708
    9DOPE   C27 1080   2.109   4.297   6.317  0.3817 -0.4454  0.2989
    9DOPE   H7R 1081   2.158   4.200   6.294 -0.5776 -1.2985  1.7345
    9DOPE   H7S 1082   2.192   4.366   6.344 -0.6472  0.2405  1.8210
    9DOPE   C28 1083   2.036   4.359   6.199 -0.3973  0.3213  0.1475
    9DOPE   H8R 1084   1.984   4.276   6.145  1.7390 -0.1520 -1.2912
    9DOPE   H8S 1085   2.116   4.394   6.130  1.8690 -1.0695  1.9336
    9DOPE   C29 1086   1.954   4.472   6.241  0.0743 -0.9142 -0.3728
    9DOPE   H9R 1087   1.956   4.504   6.346  1.1543 -1.1164 -0.3196
    9DOPE  C210 1088   1.867   4.528   6.157 -0.2330  0.6272 -0.4252
    9DOPE  H10R 1089   1.807   4.612   6.196 -0.9156 -0.7201  1.6320
    9DOPE  C211 1090   1.827   4.486   6.017  0.2586  0.2559 -0.0637
    9DOPE  H11R 1091   1.737   4.547   5.992 -0.4213 -1.7104 -2.8110
    9DOPE  H11S 1092   1.783   4.384   6.016  1.4933 -0.2900 -0.4823
    9DOPE  C212 1093   1.934   4.498   5.904  0.4837 -0.0326  0.5736
    9DOPE  H12R 1094   2.008   4.415   5.915  2.8179  1.9292  0.5508
    9DOPE  H12S 1095   1.999   4.586   5.924  3.5072 -2.3191  1.5698
    9DOPE  C213 1096   1.881   4.498   5.759 -0.0132  0.5051  0.4972
    9DOPE  H13R 1097   1.962   4.530   5.691 -0.2128 -1.4016 -0.7017
    9DOPE  H13S 1098   1.811   4.582   5.737  1.6727  1.5607 -1.1040
    9DOPE  C214 1099   1.810   4.366   5.722  0.4731 -0.3856 -0.6791
    9DOPE  H14R 1100   1.706   4.372   5.761  1.2796  1.3629  1.4371
    9DOPE  H14S 1101   1.855   4.281   5.778 -1.3349 -0.2196  1.1660
    9DOPE  C215 1102   1.807   4.338   5.575  0.6715  0.4310 -0.4497
    9DOPE  H15R 1103   1.877   4.253   5.554  0.6786  0.0877  0.8642
    9DOPE  H15S 1104   1.834   4.433   5.524  1.0502  0.5951  0.0391
    9DOPE  C216 1105   1.675   4.289   5.521  0.4436  0.1808  0.8371
    9DOPE  H16R 1106   1.597   4.358   5.559 -0.8204 -1.2833  1.0542
    9DOPE  H16S 1107   1.638   4.193   5.563  0.0460  0.9210  2.2408
    9DOPE  C217 1108   1.661   4.283   5.360 -0.1754 -0.2169 -0.0639
    9DOPE  H17R 1109   1.656   4.384   5.314 -0.3472  0.1218  0.6812
    9DOPE  H17S 1110   1.572   4.222   5.336 -0.0398 -0.4989  0.1496
    9DOPE  C218 1111   1.782   4.210   5.293  0.8180 -0.3968  0.0553
    9DOPE  H18R 1112   1.878   4.260   5.315  1.5334 -2.5820  2.3307
    9DOPE  H18S 1113   1.754   4.205   5.185 -2.4321  1.4157  0.6869
    9DOPE  H18T 1114   1.788   4.106   5.332  0.2164 -0.3687  0.2358
    9DOPE   C33 1115   2.069   3.803   6.713 -0.1910  0.2044 -0.2193
    9DOPE   H3X 1116   2.127   3.898   6.713  1.2194 -0.6072 -1.4017
    9DOPE   H3Y 1117   1.963   3.829   6.696 -0.6108 -0.9502  0.4900
    9DOPE   C34 1118   2.111   3.698   6.604  0.2842 -0.4412 -0.3652
    9DOPE   H4X 1119   2.221   3.691   6.591  0.4338  1.0676 -0.1240
    9DOPE   H4Y 1120   2.069   3.611   6.659 -1.9909  0.7795 -0.0290
    9DOPE   C35 1121   2.043   3.721   6.470 -0.2578 -0.2947 -0.4552
    9DOPE   H5X 1122   2.065   3.826   6.442  1.4050 -0.0358  1.5796
    9DOPE   H5Y 1123   1.934   3.701   6.476 -0.1163 -0.7035  0.9136
    9DOPE   C36 1124   2.100   3.616   6.364 -0.2297  0.3824 -0.0929
    9DOPE   H6X 1125   2.211   3.612   6.366 -0.2255 -1.1197 -0.9858
    9DOPE   H6Y 1126   2.052   3.638   6.266 -0.1453  2.5719  0.3077
    9DOPE   C37 1127   2.054   3.477   6.399  0.1426  0.4077 -0.2394
    9DOPE   H7X 1128   2.119   3.436   6.479  1.1450  0.0416 -1.2114
    9DOPE   H7Y 1129   1.960   3.482   6.459 -0.3339  0.2968 -0.9633
    9DOPE   C38 1130   2.044   3.376   6.286  0.7256  0.2510 -0.9474
    9DOPE   H8X 1131   1.975   3.412   6.207  0.5649  2.2459  0.0432
    9DOPE   H8Y 1132   2.011   3.276   6.322  0.7142  0.6103  0.0662
    9DOPE   C39 1133   2.182   3.352   6.231  0.0605 -0.2348 -0.7193
    9DOPE   H9X 1134   2.243   3.276   6.283  0.7617  0.3110 -0.7216
    9DOPE  C310 1135   2.243   3.399   6.122 -0.0178 -0.4928  0.0101
    9DOPE  H10X 1136   2.349   3.373   6.108  0.2823  1.0890 -0.8710
    9DOPE  C311 1137   2.178   3.493   6.019  0.0722  0.7843  0.1130
    9DOPE  H11X 1138   2.077   3.518   6.057 -0.0281  1.0876 -0.3436
    9DOPE  H11Y 1139   2.237   3.586   6.004  1.4884 -0.1818 -0.5251
    9DOPE  C312 1140   2.164   3.442   5.869  0.3436  0.2889 -0.2954
    9DOPE  H12X 1141   2.102   3.507   5.804  0.7688 -0.9136 -1.9574
    9DOPE  H12Y 1142   2.109   3.347   5.887  0.5131  0.6343  2.6597
    9DOPE  C313 1143   2.299   3.421   5.796  0.0019 -0.3769  0.3574
    9DOPE  H13X 1144   2.356   3.516   5.798 -3.1471  1.6823  1.0123
    9DOPE  H13Y 1145   2.354   3.335   5.839  1.8068  1.5144  2.0328
    9DOPE  C314 1146   2.271   3.380   5.652  0.0714 -0.0269 -0.1739
    9DOPE  H14X 1147   2.241   3.467   5.589 -2.1173  0.0490  0.8929
    9DOPE  H14Y 1148   2.206   3.291   5.647  0.7752 -0.5483 -0.1602
    9DOPE  C315 1149   2.409   3.336   5.581 -0.2176 -0.1069 -0.3357
    9DOPE  H15X 1150   2.454   3.254   5.640  0.4103 -0.5966 -1.4493
    9DOPE  H15Y 1151   2.476   3.424   5.587 -1.4257  1.0105 -2.0298
    9DOPE  C316 1152   2.401   3.290   5.438  0.3048  0.5022 -0.4065
    9DOPE  H16X 1153   2.327   3.355   5.387 -0.2900 -1.5453 -2.3643
    9DOPE  H16Y 1154   2.345   3.194   5.438  0.5359  0.3576 -1.0506
    9DOPE  C317 1155   2.532   3.268   5.358  0.1582  0.2432  0.0487
    9DOPE  H17X 1156   2.497   3.249   5.255 -1.4750 -3.9849  1.1959
    9DOPE  H17Y 1157   2.599   3.356   5.373 -0.0970  0.2525  1.2615
    9DOPE  C318 1158   2.599   3.136   5.405 -0.0714 -0.5208 -0.5381
    9DOPE  H18X 1159   2.694   3.115   5.351  0.2525 -1.9592  0.5293
    9DOPE  H18Y 1160   2.629   3.146   5.511 -3.2203 -0.0898  0.4096
    9DOPE  H18Z 1161   2.530   3.049   5.405 -1.1834  0.2154  2.7025
   10DOPE     N 1162   1.444   5.129   6.861 -0.9673 -0.3752 -0.9087
   10DOPE   HN1 1163   1.412   5.044   6.811  2.8431 -2.1583 -0.6358
   10DOPE   HN2 1164   1.483   5.188   6.785 -1.7269 -0.3820 -1.3084
   10DOPE   HN3 1165   1.524   5.101   6.921 -0.6782 -0.4580 -1.3329
   10DOPE   C12 1166   1.352   5.215   6.941 -0.3063 -0.2286  0.2051
   10DOPE  H12A 1167   1.417   5.296   6.981 -1.7003  0.6545  0.7564
   10DOPE  H12B 1168   1.310   5.156   7.025  0.1614  0.2980  0.8174
   10DOPE   C11 1169   1.237   5.268   6.856  0.2503  0.3350 -0.1478
   10DOPE  H11A 1170   1.165   5.312   6.928  0.5219 -1.2947  1.1919
   10DOPE  H11B 1171   1.188   5.189   6.795 -0.4709  0.5481  0.1451
   10DOPE     P 1172   1.200   5.470   6.683 -0.1646 -0.1079  0.2262
   10DOPE   O13 1173   1.293   5.532   6.585  0.2575  0.2014 -0.2572
   10DOPE   O14 1174   1.132   5.569   6.771  0.1010 -0.0657  0.0612
   10DOPE   O11 1175   1.101   5.382   6.611  0.2204  0.2233  0.0450
   10DOPE   O12 1176   1.289   5.366   6.765 -0.4891 -0.0983 -0.2452
   10DOPE    C1 1177   0.956   5.392   6.623  0.9278  0.1755 -0.0801
   10DOPE    HA 1178   0.919   5.441   6.715 -0.8642 -1.4504  0.1392
   10DOPE    HB 1179   0.913   5.290   6.634 -0.4632  0.7645  0.2875
   10DOPE    C2 1180   0.883   5.461   6.501  0.0205 -0.5952  0.3594
   10DOPE    HS 1181   0.780   5.420   6.505  0.6721 -2.2756  1.7806
   10DOPE   O21 1182   0.954   5.440   6.372 -0.2476  0.6219  0.1775
   10DOPE   C21 1183   0.924   5.330   6.310  0.2975 -0.4439  0.2823
   10DOPE   O22 1184   0.844   5.245   6.343  0.1160 -0.5419 -0.1663
   10DOPE   C22 1185   1.021   5.327   6.187 -0.0201  0.1426  0.3561
   10DOPE   H2R 1186   1.128   5.334   6.216 -0.0475 -1.9165  1.1265
   10DOPE   H2S 1187   0.993   5.420   6.132 -0.8089  0.7873  1.8091
   10DOPE    C3 1188   0.881   5.609   6.532 -0.1524  0.6956 -0.6541
   10DOPE    HX 1189   0.986   5.640   6.554 -0.4326  1.0047  0.2922
   10DOPE    HY 1190   0.817   5.626   6.621 -0.6225  1.2438 -1.0859
   10DOPE   O31 1191   0.848   5.690   6.417  0.0490  1.6614  0.6834
   10DOPE   C31 1192   0.718   5.673   6.375  0.5828  0.4125  0.2234
   10DOPE   O32 1193   0.633   5.603   6.432 -0.2741  0.2762  0.6461
   10DOPE   C32 1194   0.698   5.739   6.242  0.0780  0.2200 -0.9067
   10DOPE   H2X 1195   0.727   5.846   6.241 -0.2463  0.3237  0.0384
   10DOPE   H2Y 1196   0.748   5.681   6.162 -0.1785 -2.3818  0.7097
   10DOPE   C23 1197   0.990   5.193   6.107 -0.0637 -0.1869  0.4043
   10DOPE   H3R 1198   0.882   5.189   6.081 -0.3440  2.9054  0.7661
   10DOPE   H3S 1199   1.014   5.110   6.176 -1.4166 -2.8527 -2.0920
   10DOPE   C24 1200   1.074   5.167   5.981 -0.4627 -0.3449  0.2707
   10DOPE   H4R 1201   1.136   5.080   6.010 -2.0359 -0.6025  3.2599
   10DOPE   H4S 1202   1.143   5.255   5.977 -1.4758  0.5002 -3.6975
   10DOPE   C25 1203   0.998   5.153   5.846  0.6152  0.3791 -0.3372
   10DOPE   H5R 1204   1.088   5.148   5.781  0.9172  1.0465  0.0200
   10DOPE   H5S 1205   0.931   5.242   5.836 -0.7396 -0.7849 -2.5032
   10DOPE   C26 1206   0.915   5.021   5.857 -0.2424  0.1710 -0.3941
   10DOPE   H6R 1207   0.851   5.022   5.948 -0.2817 -0.4180 -0.4153
   10DOPE   H6S 1208   0.987   4.941   5.883 -0.3053  0.1354 -0.3268
   10DOPE   C27 1209   0.836   4.978   5.739 -0.2764  0.6166  0.7575
   10DOPE   H7R 1210   0.894   5.018   5.653  1.4340  0.7238  1.9092
   10DOPE   H7S 1211   0.734   5.021   5.728 -1.4034 -1.7143  1.3693
   10DOPE   C28 1212   0.802   4.827   5.729  0.3233 -0.2360  0.2498
   10DOPE   H8R 1213   0.722   4.810   5.654  0.4670  0.2479 -0.0141
   10DOPE   H8S 1214   0.748   4.800   5.822 -0.4192  0.6523  0.0917
   10DOPE   C29 1215   0.913   4.735   5.686  0.1492  0.8499 -0.4249
   10DOPE   H9R 1216   0.952   4.677   5.771  0.3087  1.7367  0.1317
   10DOPE  C210 1217   0.966   4.735   5.559 -1.0962 -0.7303 -0.1192
   10DOPE  H10R 1218   1.061   4.682   5.546  0.1596  1.0443  1.2331
   10DOPE  C211 1219   0.930   4.827   5.449  0.0661 -0.2336  0.1860
   10DOPE  H11R 1220   0.953   4.934   5.465  0.0194  1.0310 -5.8807
   10DOPE  H11S 1221   0.820   4.830   5.433  0.1967 -0.2482 -0.8003
   10DOPE  C212 1222   0.993   4.791   5.312  0.1227 -0.5092 -0.3604
   10DOPE  H12R 1223   1.103   4.780   5.322 -0.2455 -2.4305  3.4177
   10DOPE  H12S 1224   0.974   4.877   5.243  0.7445  3.0628  3.4903
   10DOPE  C213 1225   0.933   4.659   5.261  0.1766 -0.0620  0.2368
   10DOPE  H13R 1226   0.823   4.666   5.270  0.1941  0.0770  0.3458
   10DOPE  H13S 1227   0.969   4.580   5.330  4.3177 -0.6798 -2.2853
   10DOPE  C214 1228   0.970   4.624   5.117 -0.3969 -0.3160  0.2297
   10DOPE  H14R 1229   1.078   4.596   5.119  0.2334  1.9149  0.4478
   10DOPE  H14S 1230   0.973   4.714   5.050  2.2865  0.3761  1.1445
   10DOPE  C215 1231   0.886   4.514   5.053 -0.5336  0.8143  0.1298
   10DOPE  H15R 1232   0.785   4.555   5.029 -0.8853 -0.4482 -0.6763
   10DOPE  H15S 1233   0.876   4.424   5.117 -3.6326  0.4490 -0.7112
   10DOPE  C216 1234   0.940   4.485   4.909 -0.0499  0.1802  0.7860
   10DOPE  H16R 1235   1.044   4.446   4.903  0.0203  0.4420  0.2743
   10DOPE  H16S 1236   0.934   4.584   4.859  0.3729  0.1742  0.7227
   10DOPE  C217 1237   0.861   4.384   4.834  0.2428  0.0291  0.0622
   10DOPE  H17R 1238   0.867   4.422   4.730 -0.1866  1.7151  0.6240
   10DOPE  H17S 1239   0.752   4.380   4.857  0.0709 -1.1948 -0.8144
   10DOPE  C218 1240   0.920   4.242   4.839  0.0092 -0.3184  0.1792
   10DOPE  H18R 1241   1.030   4.256   4.844 -0.0813 -0.0080  1.9596
   10DOPE  H18S 1242   0.900   4.186   4.745  1.1624 -0.5898  0.0900
   10DOPE  H18T 1243   0.881   4.184   4.925  0.7245  1.0682  1.4932
   10DOPE   C33 1244   0.554   5.734   6.199  0.7389 -0.5472  0.0712
   10DOPE   H3X 1245   0.507   5.796   6.279  0.8952 -0.9264  0.4623
   10DOPE   H3Y 1246   0.512   5.632   6.196  0.7620 -0.5381 -1.0573
   10DOPE   C34 1247   0.509   5.788   6.064 -0.7140  0.2584  0.0229
   10DOPE   H4X 1248   0.511   5.899   6.072 -0.0594  0.2709 -0.2226
   10DOPE   H4Y 1249   0.584   5.752   5.990 -0.1048  0.6823  0.4177
   10DOPE   C35 1250   0.367   5.751   6.024 -0.0185  0.2420 -0.7340
   10DOPE   H5X 1251   0.299   5.801   6.097  0.1091 -0.5086 -0.0855
   10DOPE   H5Y 1252   0.346   5.643   6.044 -0.6533  0.4799 -0.0909
   10DOPE   C36 1253   0.326   5.795   5.884 -0.7461 -0.1432  0.4078
   10DOPE   H6X 1254   0.327   5.906   5.887 -2.3718 -0.1183  0.7156
   10DOPE   H6Y 1255   0.222   5.759   5.869 -1.0960  0.4317  1.3721
   10DOPE   C37 1256   0.422   5.750   5.775 -0.0020 -0.1890 -0.2481
   10DOPE   H7X 1257   0.520   5.802   5.780 -0.5770  0.8492  0.4973
   10DOPE   H7Y 1258   0.431   5.639   5.783 -1.8232 -0.5141 -2.0175
   10DOPE   C38 1259   0.370   5.786   5.639 -0.0644 -0.4513 -0.4737
   10DOPE   H8X 1260   0.373   5.897   5.637  1.0251 -0.4415  0.6622
   10DOPE   H8Y 1261   0.263   5.758   5.628  0.1568 -0.8088 -1.8294
   10DOPE   C39 1262   0.457   5.727   5.529 -0.1731  0.3574 -0.0904
   10DOPE   H9X 1263   0.566   5.735   5.539  0.0922  0.0674 -2.2555
   10DOPE  C310 1264   0.414   5.671   5.418  0.4170  0.0240  0.3162
   10DOPE  H10X 1265   0.488   5.618   5.356  1.3236  1.4321  0.1393
   10DOPE  C311 1266   0.275   5.658   5.374  0.3079  0.2081 -0.3434
   10DOPE  H11X 1267   0.231   5.566   5.418 -0.6480 -0.1164 -1.8703
   10DOPE  H11Y 1268   0.213   5.748   5.392 -1.6887 -0.9425 -1.1793
   10DOPE  C312 1269   0.281   5.639   5.224  0.0218  0.7807  0.3293
   10DOPE  H12X 1270   0.352   5.560   5.192 -1.3170  0.0700 -0.9806
   10DOPE  H12Y 1271   0.307   5.727   5.162  0.3229  0.3820 -0.1210
   10DOPE  C313 1272   0.144   5.588   5.180  0.1061  0.2460 -0.2453
   10DOPE  H13X 1273   0.117   5.491   5.227  2.8349 -0.8261 -0.7092
   10DOPE  H13Y 1274   0.063   5.658   5.211 -0.8467 -0.5982 -0.7718
   10DOPE  C314 1275   0.142   5.581   5.025  0.4579 -0.2412  0.4918
   10DOPE  H14X 1276   0.227   5.518   4.991  0.4916  0.6665 -1.2037
   10DOPE  H14Y 1277   0.173   5.679   4.983  1.1093  1.1318  3.8487
   10DOPE  C315 1278   0.010   5.541   4.969  0.5122  0.2102  0.5390
   10DOPE  H15X 1279   0.020   5.548   4.859  0.6145  1.1309  0.6056
   10DOPE  H15Y 1280  -0.074   5.613   4.982  0.8848  0.8556 -0.5443
   10DOPE  C316 1281  -0.046   5.390   4.994  0.1049 -0.5082 -0.4687
   10DOPE  H16X 1282  -0.097   5.393   5.093 -1.0796  0.8349 -1.0708
   10DOPE  H16Y 1283   0.048   5.332   5.001  0.3110 -0.0401  0.9332
   10DOPE  C317 1284  -0.137   5.340   4.877 -0.1456  0.4038  0.3857
   10DOPE  H17X 1285  -0.079   5.341   4.783  0.5199 -1.7891  0.7339
   10DOPE  H17Y 1286  -0.158   5.232   4.890 -0.1981  0.3449 -0.1719
   10DOPE  C318 1287  -0.277   5.404   4.866  0.3089 -1.0000  0.1102
   10DOPE  H18X 1288  -0.262   5.512   4.845 -0.1368 -1.3785 -2.5945
   10DOPE  H18Y 1289  -0.340   5.359   4.786  0.8842  0.8401 -1.4650
   10DOPE  H18Z 1290  -0.327   5.393   4.964 -0.7990 -1.8981 -0.5272
   11DOPE     N 1291   1.277   2.942   6.832 -0.5633 -0.4083 -0.0648
   11DOPE   HN1 1292   1.232   2.899   6.916 -1.2151  0.9770  0.3109
   11DOPE   HN2 1293   1.213   2.953   6.752  2.1654 -0.9306 -2.4994
   11DOPE   HN3 1294   1.351   2.875   6.799  1.4647  0.4567  2.3912
   11DOPE   C12 1295   1.347   3.068   6.866 -0.1759 -1.0922  0.1887
   11DOPE  H12A 1296   1.456   3.058   6.848  0.1301 -0.9519  1.7957
   11DOPE  H12B 1297   1.318   3.104   6.967 -0.5735 -0.8364 -0.0129
   11DOPE   C11 1298   1.298   3.174   6.766  0.0621 -0.5628  0.3354
   11DOPE  H11A 1299   1.343   3.146   6.668 -1.5764 -2.8924  0.1674
   11DOPE  H11B 1300   1.328   3.273   6.804  0.8883 -0.2082 -1.1480
   11DOPE     P 1301   1.046   3.208   6.840  0.3837  0.2277  0.0656
   11DOPE   O13 1302   1.105   3.211   6.981  0.0369 -0.0811  0.6303
   11DOPE   O14 1303   0.920   3.129   6.822  0.0421  0.2458 -0.5246
   11DOPE   O11 1304   1.005   3.355   6.797  0.5039 -0.2010 -0.0852
   11DOPE   O12 1305   1.162   3.174   6.738  0.1634 -0.0997  0.5440
   11DOPE    C1 1306   1.108   3.443   6.746  0.5527 -0.2018  0.1240
   11DOPE    HA 1307   1.124   3.428   6.637  1.4482 -0.8905  0.3395
   11DOPE    HB 1308   1.208   3.435   6.793  0.1565 -0.5189  0.9224
   11DOPE    C2 1309   1.072   3.585   6.783  0.3929 -0.2894 -0.6457
   11DOPE    HS 1310   1.051   3.605   6.891  0.2805  1.5512 -0.9851
   11DOPE   O21 1311   0.958   3.629   6.706  0.0660 -0.6276 -0.0774
   11DOPE   C21 1312   0.902   3.740   6.739  0.2049 -0.4194 -0.2110
   11DOPE   O22 1313   0.912   3.796   6.846 -0.2389 -0.3358 -0.5927
   11DOPE   C22 1314   0.798   3.772   6.630 -0.5496  0.2164  0.7217
   11DOPE   H2R 1315   0.701   3.765   6.684 -0.2394 -0.2282  1.2268
   11DOPE   H2S 1316   0.802   3.699   6.546  2.5197  0.6659  0.3839
   11DOPE    C3 1317   1.195   3.681   6.761  0.0640  0.4167  0.0177
   11DOPE    HX 1318   1.273   3.641   6.829 -0.4254 -1.6884 -0.6011
   11DOPE    HY 1319   1.170   3.787   6.786  0.4807  0.6496 -0.5350
   11DOPE   O31 1320   1.254   3.666   6.631 -0.3656  0.8753  0.0959
   11DOPE   C31 1321   1.218   3.760   6.548 -0.1457  0.7264  0.9127
   11DOPE   O32 1322   1.154   3.859   6.575  0.3036 -0.5583  0.5374
   11DOPE   C32 1323   1.233   3.710   6.404  0.5627  0.1806 -0.2621
   11DOPE   H2X 1324   1.339   3.696   6.373  0.5248  0.9203 -0.7692
   11DOPE   H2Y 1325   1.172   3.618   6.400 -0.9125  1.0875  0.5166
   11DOPE   C23 1326   0.814   3.909   6.584  0.6082 -0.1581 -0.3161
   11DOPE   H3R 1327   0.920   3.924   6.554 -0.2224  2.3809 -2.2995
   11DOPE   H3S 1328   0.790   3.980   6.666 -0.7536  0.1027 -0.9194
   11DOPE   C24 1329   0.714   3.943   6.470  0.3990  0.6435 -0.1845
   11DOPE   H4R 1330   0.718   4.054   6.458  1.0165  0.9239  2.1635
   11DOPE   H4S 1331   0.612   3.920   6.506  0.5231  0.6581  0.1780
   11DOPE   C25 1332   0.748   3.873   6.327  0.4021 -0.2536 -0.6551
   11DOPE   H5R 1333   0.740   3.762   6.334 -0.6916 -0.1817 -0.6157
   11DOPE   H5S 1334   0.847   3.899   6.285  0.8001 -1.5728 -0.5824
   11DOPE   C26 1335   0.630   3.918   6.236 -0.4489  0.3017  0.3132
   11DOPE   H6R 1336   0.635   4.028   6.217  1.6481  0.0877 -0.7448
   11DOPE   H6S 1337   0.533   3.889   6.282 -0.4841  1.8430  1.2920
   11DOPE   C27 1338   0.638   3.858   6.097  0.0749  0.3625  0.0822
   11DOPE   H7R 1339   0.622   3.748   6.110 -1.2327  0.0798 -2.8952
   11DOPE   H7S 1340   0.734   3.856   6.042 -0.2831 -1.9516 -0.5769
   11DOPE   C28 1341   0.525   3.914   5.997  0.4371 -0.6040 -0.2649
   11DOPE   H8R 1342   0.567   3.998   5.937 -2.9654  1.0039 -0.6069
   11DOPE   H8S 1343   0.446   3.964   6.057  1.7127  1.7149 -0.3823
   11DOPE   C29 1344   0.465   3.803   5.914 -0.3901  0.0661  0.2658
   11DOPE   H9R 1345   0.418   3.716   5.961  0.5923 -1.2128 -1.0330
   11DOPE  C210 1346   0.487   3.790   5.778 -0.6867 -0.3424 -0.2543
   11DOPE  H10R 1347   0.449   3.699   5.730 -3.0113 -0.6281  1.8989
   11DOPE  C211 1348   0.553   3.882   5.678 -0.7550 -0.3724  0.1741
   11DOPE  H11R 1349   0.545   3.992   5.692  0.2763 -0.5903  3.2772
   11DOPE  H11S 1350   0.516   3.863   5.575 -1.1130  2.3950 -0.2908
   11DOPE  C212 1351   0.710   3.853   5.654 -0.1011  0.0177  0.1556
   11DOPE  H12R 1352   0.764   3.872   5.748  0.1534  0.9359 -0.1712
   11DOPE  H12S 1353   0.747   3.933   5.587 -1.9238  0.4861 -0.3645
   11DOPE  C213 1354   0.718   3.710   5.605 -0.0690  0.0115  0.1320
   11DOPE  H13R 1355   0.671   3.720   5.504  0.5563 -0.8209 -0.2538
   11DOPE  H13S 1356   0.661   3.634   5.662 -0.2884 -1.1811 -1.5905
   11DOPE  C214 1357   0.869   3.667   5.602  0.4755  1.0027  0.5174
   11DOPE  H14R 1358   0.905   3.666   5.707 -0.8989 -0.1060  1.0109
   11DOPE  H14S 1359   0.930   3.731   5.536 -0.6044 -0.1851 -1.7552
   11DOPE  C215 1360   0.891   3.520   5.560  0.3369  0.1099  0.0005
   11DOPE  H15R 1361   0.840   3.496   5.465 -2.3726 -0.6500  1.5169
   11DOPE  H15S 1362   0.847   3.450   5.635  1.7081 -1.8772 -0.9614
   11DOPE  C216 1363   1.043   3.486   5.566  0.1159  0.1635  0.3521
   11DOPE  H16R 1364   1.069   3.397   5.505  1.2815  0.6027  0.1862
   11DOPE  H16S 1365   1.067   3.457   5.670 -1.5295 -4.0228 -0.2383
   11DOPE  C217 1366   1.141   3.591   5.509  0.1419  0.7746  0.2450
   11DOPE  H17R 1367   1.143   3.684   5.571  2.1372  1.8765 -1.3622
   11DOPE  H17S 1368   1.114   3.615   5.404 -2.4669  2.5587  1.2013
   11DOPE  C218 1369   1.284   3.528   5.509  0.0876 -0.0465 -0.9093
   11DOPE  H18R 1370   1.289   3.420   5.482  1.1202 -0.3500  0.4111
   11DOPE  H18S 1371   1.324   3.527   5.613  0.0403 -0.4388 -0.8929
   11DOPE  H18T 1372   1.356   3.575   5.439 -1.3749  0.2736 -2.2462
   11DOPE   C33 1373   1.161   3.800   6.310 -0.3670 -0.6402  0.5850
   11DOPE   H3X 1374   1.195   3.904   6.328  0.8288 -1.1949  1.7191
   11DOPE   H3Y 1375   1.052   3.796   6.327 -0.4081  1.7657  1.1341
   11DOPE   C34 1376   1.191   3.752   6.172  1.1053 -0.2514  0.1674
   11DOPE   H4X 1377   1.298   3.726   6.165  1.3494  0.4738  0.9372
   11DOPE   H4Y 1378   1.126   3.665   6.149  1.6044 -0.2983 -1.0996
   11DOPE   C35 1379   1.179   3.852   6.061  0.1369 -0.3438 -0.0149
   11DOPE   H5X 1380   1.254   3.934   6.063 -1.0840  0.8251  2.4851
   11DOPE   H5Y 1381   1.073   3.884   6.063  0.0301 -0.7278  1.4758
   11DOPE   C36 1382   1.183   3.775   5.923 -0.7959  0.2780  0.4965
   11DOPE   H6X 1383   1.149   3.827   5.831  3.0018 -0.4469 -1.5161
   11DOPE   H6Y 1384   1.116   3.688   5.939 -0.2412 -0.1772  0.3833
   11DOPE   C37 1385   1.332   3.740   5.870  0.2377  0.2530  0.4469
   11DOPE   H7X 1386   1.321   3.744   5.760  2.0842  0.9680  0.2493
   11DOPE   H7Y 1387   1.402   3.815   5.914 -0.8261  0.5398  1.7064
   11DOPE   C38 1388   1.385   3.595   5.898  0.1592  0.2910  0.5383
   11DOPE   H8X 1389   1.319   3.519   5.851  1.2024 -0.2212 -0.1504
   11DOPE   H8Y 1390   1.387   3.578   6.008 -1.1438  0.1643  0.5575
   11DOPE   C39 1391   1.521   3.577   5.834 -0.1822  0.5234 -0.1457
   11DOPE   H9X 1392   1.531   3.523   5.738 -1.9247  0.0362 -0.0833
   11DOPE  C310 1393   1.639   3.575   5.902  0.0664  0.8081 -0.2969
   11DOPE  H10X 1394   1.725   3.573   5.833 -1.4153  0.3356 -2.2014
   11DOPE  C311 1395   1.662   3.620   6.044 -0.1726  0.0771  0.1737
   11DOPE  H11X 1396   1.767   3.656   6.055 -0.1704  0.4793 -0.9836
   11DOPE  H11Y 1397   1.592   3.703   6.064 -1.6180 -1.0627  0.0080
   11DOPE  C312 1398   1.639   3.516   6.157  0.0431 -0.7921  0.4148
   11DOPE  H12X 1399   1.709   3.431   6.143  0.4500 -0.8660  2.5601
   11DOPE  H12Y 1400   1.536   3.476   6.153 -0.0478 -0.4858 -1.2107
   11DOPE  C313 1401   1.669   3.583   6.294 -0.3309  0.2242  0.1280
   11DOPE  H13X 1402   1.776   3.613   6.294 -0.1604 -0.3184 -1.2672
   11DOPE  H13Y 1403   1.602   3.671   6.298  0.5423  0.9186 -0.1893
   11DOPE  C314 1404   1.629   3.500   6.419  0.1638 -0.1846 -0.6785
   11DOPE  H14X 1405   1.706   3.422   6.436  0.4043 -0.0462 -1.1098
   11DOPE  H14Y 1406   1.533   3.454   6.390  0.1797  0.5097 -1.8911
   11DOPE  C315 1407   1.601   3.581   6.551 -0.3173  0.2876  0.3610
   11DOPE  H15X 1408   1.522   3.657   6.532 -1.7341 -1.1052  0.5360
   11DOPE  H15Y 1409   1.694   3.637   6.576 -1.4464  1.0102  3.2627
   11DOPE  C316 1410   1.544   3.491   6.661 -0.2810  0.1995 -0.0652
   11DOPE  H16X 1411   1.445   3.447   6.639 -0.7607  0.9265  0.5802
   11DOPE  H16Y 1412   1.534   3.553   6.753 -2.8780 -0.0028 -0.1319
   11DOPE  C317 1413   1.642   3.381   6.698 -0.2581 -0.0957  0.2743
   11DOPE  H17X 1414   1.591   3.329   6.782 -0.7215 -0.7364 -0.3928
   11DOPE  H17Y 1415   1.659   3.304   6.620  0.8375 -0.5507  0.9436
   11DOPE  C318 1416   1.780   3.432   6.745 -0.1097 -0.0069 -0.3692
   11DOPE  H18X 1417   1.824   3.365   6.822 -0.8366 -1.1703 -0.9247
   11DOPE  H18Y 1418   1.852   3.425   6.661  2.7652 -2.2921  2.0621
   11DOPE  H18Z 1419   1.776   3.534   6.789 -0.5673  0.3059 -1.1217
   12DOPE     N 1420   2.777   6.010   6.909 -0.3267 -0.3262  0.4739
   12DOPE   HN1 1421   2.846   5.932   6.908  3.4854  2.6183  3.3916
   12DOPE   HN2 1422   2.711   5.992   6.830  1.4484  0.3541 -1.2567
   12DOPE   HN3 1423   2.838   6.090   6.883  0.9406 -1.5060 -0.3805
   12DOPE   C12 1424   2.715   6.020   7.046 -0.2455 -0.1831  0.1562
   12DOPE  H12A 1425   2.799   6.031   7.117 -0.6836 -0.6111  0.7448
   12DOPE  H12B 1426   2.654   5.930   7.066 -0.7235  0.5042  2.0092
   12DOPE   C11 1427   2.619   6.142   7.058 -0.3860 -0.0465 -0.5412
   12DOPE  H11A 1428   2.597   6.156   7.166 -0.3656 -1.6196 -0.3134
   12DOPE  H11B 1429   2.524   6.121   7.005  0.5068  1.5990 -2.9832
   12DOPE     P 1430   2.609   6.403   7.003 -0.0950  0.5987 -0.3320
   12DOPE   O13 1431   2.719   6.502   6.994 -0.4998 -1.0256  0.7356
   12DOPE   O14 1432   2.515   6.413   7.115 -0.5111 -0.5361 -0.1063
   12DOPE   O11 1433   2.534   6.412   6.868  0.4888  0.5101 -0.0438
   12DOPE   O12 1434   2.673   6.258   7.004 -0.6408 -0.8081  0.1366
   12DOPE    C1 1435   2.585   6.353   6.748 -0.8764 -0.0786  0.5909
   12DOPE    HA 1436   2.521   6.271   6.709  1.1348 -1.4058 -0.1374
   12DOPE    HB 1437   2.681   6.298   6.764  0.4131  1.9322  0.0839
   12DOPE    C2 1438   2.604   6.464   6.643  0.1655  0.2202 -0.5636
   12DOPE    HS 1439   2.672   6.541   6.685  1.2615 -1.4926  0.9669
   12DOPE   O21 1440   2.478   6.518   6.613  0.3014 -0.2095 -0.1969
   12DOPE   C21 1441   2.469   6.629   6.545  0.2105 -0.1573  0.4867
   12DOPE   O22 1442   2.560   6.706   6.525 -0.3470 -0.4577  0.2187
   12DOPE   C22 1443   2.320   6.655   6.493 -0.1308  0.0307 -1.1265
   12DOPE   H2R 1444   2.260   6.648   6.587  0.5004 -2.7358 -0.8404
   12DOPE   H2S 1445   2.282   6.571   6.431 -2.1751 -1.3203  1.7397
   12DOPE    C3 1446   2.672   6.412   6.515  0.7166  0.2729  0.3399
   12DOPE    HX 1447   2.598   6.354   6.456 -0.5516  0.4649  1.6809
   12DOPE    HY 1448   2.759   6.350   6.547  0.4548 -0.4777 -0.3646
   12DOPE   O31 1449   2.720   6.518   6.432  0.9540  0.1270 -0.4000
   12DOPE   C31 1450   2.829   6.575   6.474  0.0362 -0.7103 -0.2641
   12DOPE   O32 1451   2.880   6.537   6.576 -0.1278  0.0698 -0.2409
   12DOPE   C32 1452   2.883   6.670   6.372 -0.2836  0.4180 -1.0320
   12DOPE   H2X 1453   2.857   6.773   6.405  0.6587  0.2438  0.3024
   12DOPE   H2Y 1454   2.993   6.656   6.384 -0.1609  0.1952 -2.2588
   12DOPE   C23 1455   2.294   6.792   6.419  0.6316 -0.0012 -0.4226
   12DOPE   H3R 1456   2.369   6.873   6.428  1.1015 -0.2494 -1.7549
   12DOPE   H3S 1457   2.199   6.828   6.462  0.9258  0.6164 -0.2812
   12DOPE   C24 1458   2.272   6.778   6.266 -0.7138 -0.0196 -0.2009
   12DOPE   H4R 1459   2.239   6.880   6.238  1.9947  0.8926 -0.3358
   12DOPE   H4S 1460   2.196   6.701   6.242 -0.8366  0.3153 -0.8920
   12DOPE   C25 1461   2.406   6.734   6.201 -0.6311 -0.5070 -0.3382
   12DOPE   H5R 1462   2.434   6.635   6.244  1.6559 -0.2756 -1.1647
   12DOPE   H5S 1463   2.484   6.809   6.224 -0.5402  0.0175 -2.1828
   12DOPE   C26 1464   2.395   6.713   6.056  0.3621 -0.3287  0.5802
   12DOPE   H6R 1465   2.351   6.799   6.002  1.2983 -0.0934  0.1641
   12DOPE   H6S 1466   2.336   6.622   6.034  1.4377 -0.1659 -3.9057
   12DOPE   C27 1467   2.539   6.691   5.997  0.2087 -0.1062 -1.0493
   12DOPE   H7R 1468   2.573   6.590   6.028 -0.4061 -0.8220 -2.6115
   12DOPE   H7S 1469   2.613   6.765   6.034  4.3860 -3.0022 -2.8337
   12DOPE   C28 1470   2.542   6.689   5.848  0.7586  0.0786  0.8301
   12DOPE   H8R 1471   2.456   6.630   5.811  1.5716 -1.2357  0.9646
   12DOPE   H8S 1472   2.631   6.644   5.799  0.5226 -0.1407  0.6005
   12DOPE   C29 1473   2.522   6.830   5.804  0.7753 -0.5107  0.4459
   12DOPE   H9R 1474   2.418   6.861   5.791  1.1460  0.1839 -1.1423
   12DOPE  C210 1475   2.620   6.922   5.790  0.3757  0.1844 -0.2425
   12DOPE  H10R 1476   2.593   7.023   5.756 -1.7269 -0.2055  0.1906
   12DOPE  C211 1477   2.764   6.890   5.810 -0.9342  0.1945  0.6157
   12DOPE  H11R 1478   2.789   6.781   5.809 -0.2922  0.3099 -1.2877
   12DOPE  H11S 1479   2.803   6.929   5.906 -2.6602 -1.3964  2.0306
   12DOPE  C212 1480   2.855   6.950   5.700  0.2052 -0.1972 -0.1714
   12DOPE  H12R 1481   2.863   7.057   5.726 -1.2794 -0.4170  1.3895
   12DOPE  H12S 1482   2.799   6.944   5.604 -0.4737 -0.6332  0.2381
   12DOPE  C213 1483   2.988   6.884   5.681  0.6937 -0.1891 -0.1013
   12DOPE  H13R 1484   2.974   6.783   5.638  0.4374 -0.0585 -0.3243
   12DOPE  H13S 1485   3.015   6.859   5.786  2.4387 -0.5700 -0.6022
   12DOPE  C214 1486   3.109   6.952   5.615  0.5398 -0.5872  0.2622
   12DOPE  H14R 1487   3.122   7.055   5.654 -1.5339 -0.0136 -0.4045
   12DOPE  H14S 1488   3.093   6.959   5.506 -1.1050 -1.4484  0.4139
   12DOPE  C215 1489   3.241   6.876   5.641  0.1010  0.4437  0.0258
   12DOPE  H15R 1490   3.236   6.780   5.585 -1.6201  0.3538  0.2935
   12DOPE  H15S 1491   3.248   6.862   5.751 -0.4408  0.1953  0.0306
   12DOPE  C216 1492   3.362   6.944   5.584 -0.6238  0.1103  0.1404
   12DOPE  H16R 1493   3.447   6.874   5.597  1.2721  2.0390 -1.0856
   12DOPE  H16S 1494   3.396   7.032   5.643  0.5751  1.3546 -2.2275
   12DOPE  C217 1495   3.356   6.984   5.439 -0.2057 -0.6496  0.4818
   12DOPE  H17R 1496   3.285   7.070   5.434 -0.2825 -0.7709 -1.3868
   12DOPE  H17S 1497   3.317   6.901   5.376  0.9967 -2.2405  1.7767
   12DOPE  C218 1498   3.493   7.009   5.380 -0.0836  0.1355 -0.4193
   12DOPE  H18R 1499   3.486   7.036   5.272 -0.6488  1.2525 -0.1143
   12DOPE  H18S 1500   3.578   6.938   5.386 -0.2176  0.1156  2.6351
   12DOPE  H18T 1501   3.538   7.101   5.423  0.0288 -0.4624  0.7729
   12DOPE   C33 1502   2.838   6.648   6.225 -0.2390 -0.1371 -0.5023
   12DOPE   H3X 1503   2.730   6.654   6.201 -0.2260 -0.8686 -0.7889
   12DOPE   H3Y 1504   2.864   6.542   6.201 -0.1266 -0.6615  1.6735
   12DOPE   C34 1505   2.914   6.737   6.132  0.3576 -0.6470  0.2609
   12DOPE   H4X 1506   2.902   6.710   6.025 -0.9600 -1.5521  0.6265
   12DOPE   H4Y 1507   2.877   6.842   6.140  3.1531  0.3868  0.8321
   12DOPE   C35 1508   3.069   6.748   6.166 -0.0925 -0.5324 -0.3668
   12DOPE   H5X 1509   3.117   6.648   6.174 -1.2067 -1.0111  0.4443
   12DOPE   H5Y 1510   3.102   6.808   6.254 -2.0292 -0.8705  0.6364
   12DOPE   C36 1511   3.135   6.820   6.045 -0.4332  0.1445  0.3819
   12DOPE   H6X 1512   3.102   6.925   6.026 -1.7709 -0.5677 -1.6230
   12DOPE   H6Y 1513   3.105   6.763   5.954 -0.4633 -0.1578  0.5802
   12DOPE   C37 1514   3.288   6.832   6.045  0.0817 -0.6675  0.5019
   12DOPE   H7X 1515   3.321   6.754   6.118  0.0667  0.1647  1.4200
   12DOPE   H7Y 1516   3.321   6.811   5.941  1.0207  1.2393  0.3659
   12DOPE   C38 1517   3.342   6.965   6.104  0.1500 -0.2565  0.4786
   12DOPE   H8X 1518   3.286   6.965   6.200 -0.5728 -0.0732  0.0601
   12DOPE   H8Y 1519   3.292   7.047   6.049  0.1827 -0.8251 -0.4253
   12DOPE   C39 1520   3.495   6.970   6.111 -0.3450  0.4130  0.0134
   12DOPE   H9X 1521   3.529   6.906   6.194 -1.7173  0.9631  1.0262
   12DOPE  C310 1522   3.571   7.060   6.047  0.3529 -0.0060  0.4712
   12DOPE  H10X 1523   3.680   7.063   6.063  0.0718  1.1176  2.6452
   12DOPE  C311 1524   3.517   7.172   5.958 -0.0615 -0.2265  0.4836
   12DOPE  H11X 1525   3.422   7.133   5.915 -0.1025 -2.4103  2.3188
   12DOPE  H11Y 1526   3.490   7.266   6.011  1.2241  0.9341 -0.8545
   12DOPE  C312 1527   3.610   7.211   5.835  0.7436  0.5281 -0.0909
   12DOPE  H12X 1528   3.608   7.130   5.759 -2.3200 -0.2915  0.7475
   12DOPE  H12Y 1529   3.718   7.202   5.861  1.2474  0.8807 -1.8961
   12DOPE  C313 1530   3.576   7.341   5.773 -0.0828  0.0821 -0.1563
   12DOPE  H13X 1531   3.466   7.356   5.771 -0.0096  0.8749  0.7454
   12DOPE  H13Y 1532   3.619   7.411   5.849 -0.8645  1.5892 -1.0541
   12DOPE  C314 1533   3.651   7.360   5.645 -0.1540 -0.3170  0.1550
   12DOPE  H14X 1534   3.633   7.280   5.570  2.6512 -0.4094 -0.5096
   12DOPE  H14Y 1535   3.760   7.356   5.666 -0.3187 -0.4379  1.0172
   12DOPE  C315 1536   3.620   7.497   5.583 -0.3368  0.2328 -0.0747
   12DOPE  H15X 1537   3.663   7.571   5.653 -0.0020 -1.2710  1.3767
   12DOPE  H15Y 1538   3.510   7.516   5.580  0.0663  3.0255  0.2919
   12DOPE  C316 1539   3.672   7.512   5.444 -0.3408 -0.4989  0.2139
   12DOPE  H16X 1540   3.602   7.469   5.369 -0.6460  2.5573 -1.4189
   12DOPE  H16Y 1541   3.770   7.459   5.442  0.4099  0.8437  0.2917
   12DOPE  C317 1542   3.693   7.655   5.398  0.5595  0.3435  0.1298
   12DOPE  H17X 1543   3.704   7.661   5.287 -0.3069  0.1189  0.0258
   12DOPE  H17Y 1544   3.605   7.718   5.425 -0.0517 -1.1324  1.7590
   12DOPE  C318 1545   3.814   7.719   5.460  0.0386  0.0203 -0.1363
   12DOPE  H18X 1546   3.912   7.676   5.428  0.5795  0.8171  0.4090
   12DOPE  H18Y 1547   3.812   7.829   5.444 -1.0915  0.1030  0.4917
   12DOPE  H18Z 1548   3.807   7.690   5.567  2.1437 -2.4519 -0.5521
   13DOPE     N 1549   3.046   1.018   6.738  0.8247 -0.3066  0.4191
   13DOPE   HN1 1550   2.962   0.959   6.718  1.3814 -1.3500  1.0616
   13DOPE   HN2 1551   3.085   1.042   6.644 -2.1566  3.4525 -0.1131
   13DOPE   HN3 1552   3.105   0.954   6.794 -1.5305 -1.4118  1.7830
   13DOPE   C12 1553   3.012   1.151   6.802  0.2047 -0.1626  0.2161
   13DOPE  H12A 1554   2.959   1.212   6.726  0.2632 -0.0375  0.2736
   13DOPE  H12B 1555   3.110   1.200   6.826  1.4442 -2.0131 -0.8465
   13DOPE   C11 1556   2.924   1.116   6.916  0.2975 -0.4143 -0.1222
   13DOPE  H11A 1557   2.965   1.036   6.982 -2.0027 -1.1112  0.5723
   13DOPE  H11B 1558   2.839   1.065   6.867 -0.1027 -0.9408  1.0707
   13DOPE     P 1559   2.761   1.303   6.996  0.1226 -0.2955 -0.2589
   13DOPE   O13 1560   2.753   1.410   7.100 -0.2113  0.0252 -0.1245
   13DOPE   O14 1561   2.660   1.192   6.996 -0.4231  0.0290  0.4750
   13DOPE   O11 1562   2.764   1.380   6.862 -0.1715 -0.6974 -0.5211
   13DOPE   O12 1563   2.902   1.239   6.990  0.3324  0.4263 -0.2469
   13DOPE    C1 1564   2.868   1.477   6.827 -0.3957 -0.1224 -0.1450
   13DOPE    HA 1565   2.908   1.451   6.727 -1.0045 -2.3202  0.1209
   13DOPE    HB 1566   2.962   1.465   6.885 -0.1699  1.0760 -0.2340
   13DOPE    C2 1567   2.826   1.623   6.843  0.2509 -0.0131 -0.7270
   13DOPE    HS 1568   2.853   1.647   6.948  4.2558 -1.5163 -1.2306
   13DOPE   O21 1569   2.691   1.642   6.804  0.1660  0.0794  0.0510
   13DOPE   C21 1570   2.636   1.758   6.850 -0.5334  0.0888  0.9004
   13DOPE   O22 1571   2.694   1.846   6.900 -1.0112 -0.6356  0.1423
   13DOPE   C22 1572   2.495   1.765   6.798  0.5015 -0.0203 -0.1997
   13DOPE   H2R 1573   2.448   1.664   6.797 -0.3578  0.3496  0.4845
   13DOPE   H2S 1574   2.500   1.793   6.691 -1.5838  1.5096  0.0376
   13DOPE    C3 1575   2.923   1.724   6.770  0.2221 -0.2536  0.6672
   13DOPE    HX 1576   3.022   1.692   6.809 -0.0271  0.8452  2.3053
   13DOPE    HY 1577   2.892   1.828   6.792 -1.3966 -0.6262  0.3442
   13DOPE   O31 1578   2.912   1.701   6.626  0.8226 -0.2590  0.1928
   13DOPE   C31 1579   3.027   1.715   6.554  0.0015  0.0987  0.0265
   13DOPE   O32 1580   3.129   1.769   6.601 -0.3937  0.0560  0.6647
   13DOPE   C32 1581   3.006   1.679   6.405  0.1719 -0.9510 -0.2581
   13DOPE   H2X 1582   3.105   1.643   6.370 -1.0768 -2.2333 -2.6879
   13DOPE   H2Y 1583   2.930   1.598   6.403  0.4473 -1.2527  0.8936
   13DOPE   C23 1584   2.410   1.855   6.888 -0.2285  0.0290  0.3024
   13DOPE   H3R 1585   2.471   1.947   6.902  1.9887 -1.1693 -0.9565
   13DOPE   H3S 1586   2.395   1.809   6.988 -2.3930  0.4838  0.2512
   13DOPE   C24 1587   2.266   1.877   6.830  0.4747  0.4720  0.7800
   13DOPE   H4R 1588   2.217   1.944   6.904 -0.7161  1.1574 -0.5683
   13DOPE   H4S 1589   2.206   1.784   6.829  1.5532 -0.2876  2.4541
   13DOPE   C25 1590   2.276   1.955   6.695 -0.0590 -0.0517  0.2292
   13DOPE   H5R 1591   2.343   1.903   6.623 -0.9513  0.0875 -0.7279
   13DOPE   H5S 1592   2.331   2.048   6.721  1.4570 -1.4279  2.2500
   13DOPE   C26 1593   2.136   1.977   6.638  0.1652  0.8054  0.6710
   13DOPE   H6R 1594   2.088   2.053   6.704 -3.4341  0.2392 -1.1066
   13DOPE   H6S 1595   2.066   1.891   6.636 -1.8921  2.4056 -0.5289
   13DOPE   C27 1596   2.154   2.050   6.502 -0.1805 -0.0558  0.3456
   13DOPE   H7R 1597   2.200   1.977   6.431  0.9244  1.3602 -0.4619
   13DOPE   H7S 1598   2.223   2.136   6.518  1.6990 -1.5932  0.9246
   13DOPE   C28 1599   2.028   2.128   6.454 -0.3394  0.0553  0.0912
   13DOPE   H8R 1600   1.990   2.192   6.537 -0.2916  1.0802 -0.6605
   13DOPE   H8S 1601   1.966   2.040   6.425  1.1103  0.0306 -3.3917
   13DOPE   C29 1602   2.038   2.207   6.329 -0.6708 -0.0327  0.4059
   13DOPE   H9R 1603   1.951   2.180   6.268 -0.2036 -0.5141 -0.0574
   13DOPE  C210 1604   2.133   2.301   6.283  0.5962  0.7087  0.8296
   13DOPE  H10R 1605   2.121   2.356   6.188 -0.8230 -1.3732 -0.2692
   13DOPE  C211 1606   2.256   2.351   6.350 -0.2035 -0.0028  0.0235
   13DOPE  H11R 1607   2.246   2.339   6.460 -0.2822 -0.4299 -0.0271
   13DOPE  H11S 1608   2.270   2.459   6.328 -1.5767  0.1867 -0.0293
   13DOPE  C212 1609   2.390   2.283   6.300  0.0308 -0.2830  0.4672
   13DOPE  H12R 1610   2.387   2.293   6.190  0.6843  0.1034  0.4822
   13DOPE  H12S 1611   2.374   2.182   6.343 -0.5726 -0.3534  0.0926
   13DOPE  C213 1612   2.509   2.346   6.357 -0.5507 -0.1214 -0.1960
   13DOPE  H13R 1613   2.500   2.450   6.318  0.7534 -0.9246 -2.8356
   13DOPE  H13S 1614   2.599   2.296   6.317  1.6107  1.5658  2.2013
   13DOPE  C214 1615   2.522   2.351   6.508  0.1366 -0.3242 -0.5741
   13DOPE  H14R 1616   2.433   2.308   6.559  2.5039 -1.3397  3.0957
   13DOPE  H14S 1617   2.539   2.453   6.548  0.1735 -0.0165 -1.3419
   13DOPE  C215 1618   2.637   2.264   6.564 -0.1891 -0.4276  0.1135
   13DOPE  H15R 1619   2.649   2.303   6.667 -2.4831  1.8646 -0.3646
   13DOPE  H15S 1620   2.734   2.275   6.511 -0.4180 -0.8306 -0.4063
   13DOPE  C216 1621   2.607   2.116   6.573 -0.4713  0.5019  0.4399
   13DOPE  H16R 1622   2.584   2.087   6.468 -0.3694  2.6988 -0.2467
   13DOPE  H16S 1623   2.522   2.102   6.643 -1.0677 -2.5024 -0.7661
   13DOPE  C217 1624   2.722   2.036   6.627 -0.7856  1.0697 -0.4502
   13DOPE  H17R 1625   2.706   1.927   6.621  0.5552  0.7280  1.2441
   13DOPE  H17S 1626   2.733   2.056   6.736 -1.0338  2.5911 -0.6714
   13DOPE  C218 1627   2.869   2.075   6.575  0.8522  0.4744  0.1811
   13DOPE  H18R 1628   2.948   2.008   6.614  1.3922  1.0277  0.0452
   13DOPE  H18S 1629   2.891   2.178   6.611 -0.1805  0.6466  0.3537
   13DOPE  H18T 1630   2.857   2.075   6.465 -4.3642  2.3266  0.4619
   13DOPE   C33 1631   2.945   1.797   6.333 -0.2466 -0.4730 -0.6458
   13DOPE   H3X 1632   3.007   1.888   6.349  0.6940 -1.2008 -0.0610
   13DOPE   H3Y 1633   2.841   1.807   6.371 -0.1381 -1.7871  0.0534
   13DOPE   C34 1634   2.917   1.770   6.186 -0.0659 -0.2078  0.7300
   13DOPE   H4X 1635   3.008   1.747   6.128 -0.2563 -1.1933  0.8067
   13DOPE   H4Y 1636   2.852   1.682   6.168 -1.7101  0.9345  0.7475
   13DOPE   C35 1637   2.858   1.901   6.126 -0.7763 -0.2456 -0.4057
   13DOPE   H5X 1638   2.927   1.986   6.144 -1.0672 -0.0339 -0.2778
   13DOPE   H5Y 1639   2.772   1.935   6.188  1.6045  0.1234  2.9610
   13DOPE   C36 1640   2.826   1.890   5.977  0.0840  1.0670 -0.1231
   13DOPE   H6X 1641   2.729   1.839   5.962  0.2436  1.1848 -1.7309
   13DOPE   H6Y 1642   2.901   1.825   5.927 -0.6221  0.5178 -0.4726
   13DOPE   C37 1643   2.826   2.029   5.921  0.0192 -0.2145  0.2912
   13DOPE   H7X 1644   2.766   2.092   5.990 -0.2468 -0.3707  0.2022
   13DOPE   H7Y 1645   2.926   2.074   5.939 -1.0996  3.0342 -0.9554
   13DOPE   C38 1646   2.775   2.055   5.783 -0.1599 -0.0135 -0.2162
   13DOPE   H8X 1647   2.786   2.164   5.763 -0.4690  0.2523  0.9603
   13DOPE   H8Y 1648   2.670   2.020   5.775 -0.3355  0.7419 -1.4799
   13DOPE   C39 1649   2.851   1.974   5.671 -0.3465 -0.8255 -0.2613
   13DOPE   H9X 1650   2.955   1.952   5.701 -0.0047  3.1998  2.3785
   13DOPE  C310 1651   2.808   1.949   5.544  0.0068 -0.1599 -0.5943
   13DOPE  H10X 1652   2.881   1.899   5.479 -0.3606 -2.5476  0.7040
   13DOPE  C311 1653   2.673   1.990   5.489  0.8626  0.0431 -0.0503
   13DOPE  H11X 1654   2.617   2.058   5.556 -0.9207 -2.3377  1.0380
   13DOPE  H11Y 1655   2.682   2.045   5.394  0.6193  0.5591  0.2211
   13DOPE  C312 1656   2.581   1.863   5.476 -0.4261  0.3932  0.4952
   13DOPE  H12X 1657   2.626   1.787   5.409  0.2634  0.0982  1.2886
   13DOPE  H12Y 1658   2.489   1.899   5.425 -0.6189  0.7271  1.0663
   13DOPE  C313 1659   2.533   1.812   5.606  0.3353 -0.2768 -0.5212
   13DOPE  H13X 1660   2.618   1.807   5.677  0.6295  1.9118 -0.6256
   13DOPE  H13Y 1661   2.459   1.883   5.649  0.2276 -0.1591 -0.8955
   13DOPE  C314 1662   2.455   1.684   5.595 -0.2076  0.1798  0.0067
   13DOPE  H14X 1663   2.512   1.599   5.551 -1.5345 -1.4391  1.2978
   13DOPE  H14Y 1664   2.364   1.695   5.532 -1.0936  0.7243  1.3558
   13DOPE  C315 1665   2.411   1.625   5.726  0.2437 -0.1292  0.0002
   13DOPE  H15X 1666   2.333   1.550   5.703 -0.5754  0.9678 -0.9157
   13DOPE  H15Y 1667   2.358   1.704   5.784 -1.1329 -1.4524  0.6187
   13DOPE  C316 1668   2.522   1.565   5.805 -0.1413  0.2562 -0.1653
   13DOPE  H16X 1669   2.601   1.642   5.813  1.1910 -1.0084 -0.7958
   13DOPE  H16Y 1670   2.567   1.488   5.738 -1.3323  0.4775 -1.2481
   13DOPE  C317 1671   2.471   1.501   5.935 -0.5438 -0.3217  0.2435
   13DOPE  H17X 1672   2.391   1.564   5.979 -0.7788  0.7069 -1.5562
   13DOPE  H17Y 1673   2.409   1.413   5.905 -1.1329 -0.3513  1.4906
   13DOPE  C318 1674   2.580   1.451   6.021  0.3652 -0.0538  0.0286
   13DOPE  H18X 1675   2.645   1.537   6.049  0.7504 -0.6068  0.8952
   13DOPE  H18Y 1676   2.535   1.410   6.114  0.0012 -0.5981 -0.3869
   13DOPE  H18Z 1677   2.653   1.381   5.975 -0.0456  0.7857 -1.9936
   14DOPE     N 1678   6.159   5.612   7.683 -0.0539  0.0511 -0.5164
   14DOPE   HN1 1679   6.075   5.666   7.712  1.4166  1.3358  1.6683
   14DOPE   HN2 1680   6.195   5.563   7.767 -0.8395 -2.9726 -1.8243
   14DOPE   HN3 1681   6.230   5.678   7.644 -0.9884  0.8054 -0.9769
   14DOPE   C12 1682   6.119   5.515   7.576 -0.1339  0.4668  0.4254
   14DOPE  H12A 1683   6.029   5.459   7.610 -1.2777  0.6368 -2.0746
   14DOPE  H12B 1684   6.206   5.445   7.574 -0.8463 -0.4701  1.2196
   14DOPE   C11 1685   6.101   5.587   7.442 -0.6132  0.1425 -0.5359
   14DOPE  H11A 1686   6.102   5.515   7.357  0.8138 -0.2518 -0.2212
   14DOPE  H11B 1687   6.189   5.654   7.429 -1.2668  0.9563 -0.8533
   14DOPE     P 1688   5.854   5.655   7.376  0.0753 -0.1458  0.1228
   14DOPE   O13 1689   5.786   5.783   7.401 -0.1969  0.4030 -0.7218
   14DOPE   O14 1690   5.791   5.525   7.417 -0.3473  0.0690  0.1347
   14DOPE   O11 1691   5.892   5.642   7.226 -0.5114 -0.6295 -0.5664
   14DOPE   O12 1692   5.991   5.672   7.443  0.3523 -0.4511  0.0011
   14DOPE    C1 1693   5.970   5.747   7.169  0.3518 -0.3516 -0.2972
   14DOPE    HA 1694   6.077   5.720   7.152  1.2442  2.2262  0.6739
   14DOPE    HB 1695   5.973   5.844   7.224  2.6372 -1.2615  1.3654
   14DOPE    C2 1696   5.910   5.761   7.024 -0.2313 -0.7851  0.0374
   14DOPE    HS 1697   5.819   5.820   7.047  0.8326  1.1393 -0.3813
   14DOPE   O21 1698   5.877   5.636   6.966 -0.0770  0.4430 -0.2929
   14DOPE   C21 1699   5.760   5.627   6.901 -0.6816 -0.6251 -0.0042
   14DOPE   O22 1700   5.678   5.715   6.887  0.6465  0.2128  0.5496
   14DOPE   C22 1701   5.745   5.489   6.850 -1.0201  0.1162  0.3920
   14DOPE   H2R 1702   5.694   5.421   6.922 -0.8618 -1.6477 -1.1006
   14DOPE   H2S 1703   5.847   5.450   6.831  0.2790  3.1341  0.7036
   14DOPE    C3 1704   5.998   5.842   6.924 -0.4856  0.0870 -0.2132
   14DOPE    HX 1705   6.090   5.780   6.913  1.0344  2.2782 -0.4989
   14DOPE    HY 1706   6.028   5.938   6.971 -2.0357  0.9379 -0.8867
   14DOPE   O31 1707   5.929   5.862   6.803  0.0623  0.4010 -0.5828
   14DOPE   C31 1708   5.865   5.985   6.789  0.4361 -0.3994 -0.5799
   14DOPE   O32 1709   5.855   6.065   6.884 -0.1489  0.4895  0.0713
   14DOPE   C32 1710   5.807   5.997   6.648  0.1733 -0.3857  0.5914
   14DOPE   H2X 1711   5.751   5.906   6.617  1.1316 -1.7279  2.5035
   14DOPE   H2Y 1712   5.744   6.087   6.642 -0.7751 -1.1341 -1.4539
   14DOPE   C23 1713   5.662   5.478   6.709  0.1165  0.4162 -0.5629
   14DOPE   H3R 1714   5.555   5.495   6.731  0.0577 -0.5906  0.0094
   14DOPE   H3S 1715   5.671   5.368   6.699 -0.7306  0.4567 -1.9005
   14DOPE   C24 1716   5.725   5.564   6.599 -0.2495  0.4188 -0.2488
   14DOPE   H4R 1717   5.821   5.511   6.583 -0.1176  0.3507  0.7258
   14DOPE   H4S 1718   5.736   5.668   6.637 -2.8286  1.7103 -2.6546
   14DOPE   C25 1719   5.641   5.573   6.474 -0.2173 -0.0080 -0.5861
   14DOPE   H5R 1720   5.555   5.642   6.481 -2.0325 -2.0614 -1.6520
   14DOPE   H5S 1721   5.605   5.471   6.450 -1.9788  0.0908  1.3835
   14DOPE   C26 1722   5.735   5.624   6.362 -0.5137 -0.2077 -1.2197
   14DOPE   H6R 1723   5.791   5.535   6.325 -0.8635 -0.8890 -0.1412
   14DOPE   H6S 1724   5.789   5.716   6.393 -2.6125  0.9382 -0.8405
   14DOPE   C27 1725   5.659   5.679   6.247 -0.2578 -0.0573  0.3402
   14DOPE   H7R 1726   5.600   5.765   6.285  2.4483  1.4817  1.3682
   14DOPE   H7S 1727   5.584   5.602   6.220 -1.3372  0.5924  1.3803
   14DOPE   C28 1728   5.749   5.726   6.135  0.7704 -0.1542 -0.3266
   14DOPE   H8R 1729   5.809   5.639   6.101 -1.4636 -1.1293 -2.0024
   14DOPE   H8S 1730   5.814   5.807   6.174 -0.0910  0.7212 -0.6791
   14DOPE   C29 1731   5.671   5.786   6.018  0.2070 -0.0011  0.3441
   14DOPE   H9R 1732   5.584   5.841   6.057  0.8286  1.2196  0.0557
   14DOPE  C210 1733   5.696   5.761   5.883  1.0702 -0.1941 -0.1570
   14DOPE  H10R 1734   5.626   5.792   5.804 -0.5312  0.2242  1.3626
   14DOPE  C211 1735   5.796   5.674   5.814 -0.5942  0.1531 -0.8063
   14DOPE  H11R 1736   5.753   5.572   5.805 -1.5418  0.3599  0.9242
   14DOPE  H11S 1737   5.888   5.665   5.876 -2.3981 -1.5629  1.8187
   14DOPE  C212 1738   5.825   5.717   5.673  0.0459 -0.0841  0.5785
   14DOPE  H12R 1739   5.878   5.815   5.677 -0.5135  0.2435  0.1358
   14DOPE  H12S 1740   5.732   5.714   5.611  0.0213 -1.8476  0.6392
   14DOPE  C213 1741   5.923   5.632   5.590  0.5268  0.1933 -0.0774
   14DOPE  H13R 1742   5.870   5.537   5.571 -2.1215  1.5360  0.2000
   14DOPE  H13S 1743   6.026   5.621   5.631  0.9028  1.0091 -0.7604
   14DOPE  C214 1744   5.944   5.693   5.444 -0.3146 -0.5644  0.3344
   14DOPE  H14R 1745   5.849   5.695   5.386 -0.5464 -0.7208  0.7057
   14DOPE  H14S 1746   6.000   5.614   5.389  0.3323  0.5448 -0.6373
   14DOPE  C215 1747   6.017   5.827   5.424  0.2921 -0.4069 -0.5259
   14DOPE  H15R 1748   6.104   5.827   5.493  1.8574  2.9789 -2.2330
   14DOPE  H15S 1749   5.944   5.901   5.462  1.6598  0.5443  0.3357
   14DOPE  C216 1750   6.051   5.848   5.275 -0.8449 -0.0522  0.1971
   14DOPE  H16R 1751   5.965   5.804   5.219  0.1234 -3.0108  0.8504
   14DOPE  H16S 1752   6.137   5.785   5.244 -1.2383  0.0771 -1.2527
   14DOPE  C217 1753   6.080   5.994   5.224  0.6718  0.0655 -0.3125
   14DOPE  H17R 1754   5.996   6.058   5.260 -0.0865  0.6159 -2.8400
   14DOPE  H17S 1755   6.072   5.997   5.113  0.5587  0.6115 -0.2943
   14DOPE  C218 1756   6.222   6.044   5.264  0.7407  0.4833  0.1815
   14DOPE  H18R 1757   6.235   6.035   5.374 -1.2913 -0.0378  0.4189
   14DOPE  H18S 1758   6.233   6.149   5.230 -1.5555  0.2831 -1.4757
   14DOPE  H18T 1759   6.302   5.990   5.210  1.3086  0.1121  1.3539
   14DOPE   C33 1760   5.918   6.009   6.541 -0.3989  0.3649 -0.2081
   14DOPE   H3X 1761   5.986   5.922   6.554 -0.9819  0.0703  1.0180
   14DOPE   H3Y 1762   5.975   6.097   6.579  1.6433 -1.2577  0.7357
   14DOPE   C34 1763   5.873   6.036   6.397  0.0714  0.6152  0.1490
   14DOPE   H4X 1764   5.931   6.123   6.358 -1.5720  0.8406 -2.0076
   14DOPE   H4Y 1765   5.895   5.950   6.329  1.4611 -0.2051  1.5821
   14DOPE   C35 1766   5.729   6.085   6.387  0.0877 -0.2764  0.1166
   14DOPE   H5X 1767   5.715   6.168   6.460  0.0442  0.3840 -0.6253
   14DOPE   H5Y 1768   5.661   6.000   6.406  0.8491 -0.8558  0.3375
   14DOPE   C36 1769   5.684   6.133   6.244 -0.2388  0.1058 -0.1740
   14DOPE   H6X 1770   5.576   6.158   6.244 -0.0417  1.0367  0.9678
   14DOPE   H6Y 1771   5.693   6.041   6.183  0.6519 -0.5486  0.8878
   14DOPE   C37 1772   5.760   6.249   6.182  0.0245 -0.1285 -0.0679
   14DOPE   H7X 1773   5.744   6.339   6.246  0.1523 -0.2665  0.1613
   14DOPE   H7Y 1774   5.867   6.219   6.179 -0.1429 -0.9671  1.3982
   14DOPE   C38 1775   5.704   6.278   6.045  0.4704  0.4992  0.0574
   14DOPE   H8X 1776   5.600   6.315   6.057  0.0869 -0.4611 -0.2604
   14DOPE   H8Y 1777   5.702   6.185   5.985 -0.3066  1.4102 -1.4010
   14DOPE   C39 1778   5.781   6.387   5.982 -0.5803 -0.1309  0.2485
   14DOPE   H9X 1779   5.873   6.414   6.035  0.8992 -1.4876 -1.4719
   14DOPE  C310 1780   5.764   6.441   5.859  0.2428 -0.0337  0.4654
   14DOPE  H10X 1781   5.828   6.524   5.826 -2.4673  1.8191 -0.5396
   14DOPE  C311 1782   5.640   6.415   5.768 -0.8224 -0.2127  0.7200
   14DOPE  H11X 1783   5.668   6.341   5.690  3.1331  2.1391 -0.3613
   14DOPE  H11Y 1784   5.553   6.372   5.823 -3.8096  1.2878 -2.4412
   14DOPE  C312 1785   5.569   6.537   5.711  0.0742 -0.6383 -0.4330
   14DOPE  H12X 1786   5.649   6.595   5.659 -0.1456  0.6410  0.6167
   14DOPE  H12Y 1787   5.532   6.591   5.800 -1.5934 -2.7924  0.2804
   14DOPE  C313 1788   5.452   6.500   5.610 -0.7501 -0.2135 -0.2689
   14DOPE  H13X 1789   5.502   6.478   5.514 -1.8258  2.1715 -1.4667
   14DOPE  H13Y 1790   5.407   6.402   5.635 -1.0605  0.0141  0.0738
   14DOPE  C314 1791   5.331   6.595   5.589 -0.1687  0.4058 -0.1781
   14DOPE  H14X 1792   5.371   6.697   5.569  2.9863 -0.4700  1.1633
   14DOPE  H14Y 1793   5.272   6.595   5.684  0.3784  0.2388  0.1633
   14DOPE  C315 1794   5.231   6.549   5.482 -0.1526  0.3787 -0.6564
   14DOPE  H15X 1795   5.188   6.455   5.523 -1.2404  1.7238  1.4148
   14DOPE  H15Y 1796   5.277   6.529   5.382 -0.4718 -1.9894 -0.3851
   14DOPE  C316 1797   5.112   6.653   5.471 -0.3906 -0.5978  0.3663
   14DOPE  H16X 1798   5.058   6.623   5.379  0.1515  0.2744 -0.2560
   14DOPE  H16Y 1799   5.164   6.748   5.444  0.0137 -0.6872  0.8185
   14DOPE  C317 1800   5.014   6.671   5.582 -0.0074  0.4077  0.4485
   14DOPE  H17X 1801   5.077   6.665   5.673  0.5022  2.7299  0.3164
   14DOPE  H17Y 1802   4.964   6.770   5.584  1.0555  0.9472  0.8949
   14DOPE  C318 1803   4.912   6.556   5.584 -0.1413 -0.1745 -0.2375
   14DOPE  H18X 1804   4.838   6.582   5.505  0.4591  0.7104 -0.5308
   14DOPE  H18Y 1805   4.964   6.459   5.567  0.9316  0.1232  1.1563
   14DOPE  H18Z 1806   4.844   6.545   5.671  0.0935  0.3472  0.0207
   15DOPE     N 1807   1.062   2.328   7.051  0.3394  0.2713  0.1287
   15DOPE   HN1 1808   1.082   2.389   7.132  1.6803  0.7998 -0.5746
   15DOPE   HN2 1809   1.135   2.341   6.978 -0.4582  1.3029 -0.5047
   15DOPE   HN3 1810   0.980   2.364   6.999  0.4448  1.9499  1.0676
   15DOPE   C12 1811   1.041   2.187   7.112 -0.3975  0.0156  0.2347
   15DOPE  H12A 1812   0.981   2.199   7.205 -0.3151  0.5895  0.2125
   15DOPE  H12B 1813   1.145   2.157   7.137 -0.3859 -0.6295 -0.5482
   15DOPE   C11 1814   0.981   2.091   7.004  0.5622 -0.3199  0.2274
   15DOPE  H11A 1815   0.975   1.989   7.048 -2.5225  0.5325  2.1119
   15DOPE  H11B 1816   1.050   2.072   6.918  0.3690  1.3809 -0.3478
   15DOPE     P 1817   0.725   2.072   6.981 -0.2433 -0.1466 -0.1162
   15DOPE   O13 1818   0.667   2.107   7.112 -0.0825 -0.4552  0.1591
   15DOPE   O14 1819   0.745   1.929   6.964 -0.0305  0.2300  0.3665
   15DOPE   O11 1820   0.629   2.119   6.865 -0.5870 -0.4210  0.0866
   15DOPE   O12 1821   0.860   2.148   6.951 -0.2983  1.2573 -0.0500
   15DOPE    C1 1822   0.693   2.142   6.735 -0.1775 -0.2731 -0.1039
   15DOPE    HA 1823   0.801   2.118   6.730  0.0123  0.5066  0.0966
   15DOPE    HB 1824   0.679   2.250   6.712 -2.4694 -0.6141 -0.5995
   15DOPE    C2 1825   0.630   2.072   6.608  0.1671 -0.4198 -0.2414
   15DOPE    HS 1826   0.670   2.125   6.519 -0.9072  1.2539  0.2086
   15DOPE   O21 1827   0.484   2.080   6.618  0.2141  0.1936 -0.0159
   15DOPE   C21 1828   0.435   2.203   6.593 -0.5205 -0.5516 -0.0517
   15DOPE   O22 1829   0.507   2.293   6.553  0.1551  0.2590  0.2611
   15DOPE   C22 1830   0.289   2.211   6.619 -0.0821  0.6685  0.5434
   15DOPE   H2R 1831   0.274   2.167   6.720  2.9756  2.4032  1.8976
   15DOPE   H2S 1832   0.234   2.144   6.550 -3.7293  1.5742  2.3038
   15DOPE    C3 1833   0.662   1.922   6.585 -0.2133  0.1930  0.4742
   15DOPE    HX 1834   0.613   1.888   6.492 -0.2688  3.2688 -0.7443
   15DOPE    HY 1835   0.630   1.857   6.669 -0.9986 -0.0875 -0.0375
   15DOPE   O31 1836   0.800   1.892   6.567  0.7929 -0.0201 -0.7980
   15DOPE   C31 1837   0.851   1.888   6.440 -0.2477 -0.1797  0.1074
   15DOPE   O32 1838   0.786   1.917   6.344  0.2371  0.2344  0.0492
   15DOPE   C32 1839   0.994   1.847   6.438 -0.3731 -0.0251  0.1415
   15DOPE   H2X 1840   1.028   1.849   6.544 -1.3487  0.8012  0.4516
   15DOPE   H2Y 1841   0.994   1.740   6.408  0.5856  0.6532 -2.5435
   15DOPE   C23 1842   0.230   2.352   6.619  0.1635  0.1367  0.1491
   15DOPE   H3R 1843   0.232   2.407   6.522 -3.9868  0.4712  0.0437
   15DOPE   H3S 1844   0.287   2.412   6.693  1.7766  2.7487 -2.9320
   15DOPE   C24 1845   0.077   2.350   6.651 -0.5154 -0.4463  0.1154
   15DOPE   H4R 1846   0.042   2.455   6.649  1.2771  0.1960  0.2573
   15DOPE   H4S 1847   0.072   2.323   6.759 -0.7980  1.1610  0.5240
   15DOPE   C25 1848  -0.001   2.244   6.577  0.8515  0.4390  0.4729
   15DOPE   H5R 1849   0.044   2.147   6.606  2.9260  1.1176 -0.2868
   15DOPE   H5S 1850   0.011   2.253   6.467 -1.4992 -0.0416  0.1179
   15DOPE   C26 1851  -0.153   2.251   6.612 -0.0880 -0.7994  0.5312
   15DOPE   H6R 1852  -0.177   2.250   6.721  0.0212  3.0146  0.7262
   15DOPE   H6S 1853  -0.203   2.166   6.560 -3.1317  1.0509  0.1419
   15DOPE   C27 1854  -0.228   2.374   6.549  0.2249 -0.1397 -0.4313
   15DOPE   H7R 1855  -0.203   2.392   6.442  2.2176 -1.0328 -0.1580
   15DOPE   H7S 1856  -0.190   2.451   6.620 -1.3570 -1.7645  2.3186
   15DOPE   C28 1857  -0.386   2.368   6.559 -0.1635 -0.5631 -0.4540
   15DOPE   H8R 1858  -0.422   2.471   6.541  1.9739  0.1745 -0.6611
   15DOPE   H8S 1859  -0.401   2.346   6.667  0.0950 -0.5430 -0.4146
   15DOPE   C29 1860  -0.444   2.254   6.476  0.7263 -0.0881  0.1138
   15DOPE   H9R 1861  -0.476   2.165   6.532  1.8543 -0.3889  0.3177
   15DOPE  C210 1862  -0.477   2.272   6.343  0.7787  0.0140  0.0681
   15DOPE  H10R 1863  -0.516   2.190   6.282  2.9198 -0.3861 -0.8625
   15DOPE  C211 1864  -0.451   2.400   6.260  0.0289 -0.4432 -0.7918
   15DOPE  H11R 1865  -0.341   2.412   6.246 -0.3282  0.9708 -2.9086
   15DOPE  H11S 1866  -0.489   2.489   6.316  1.1237  0.1782 -0.9981
   15DOPE  C212 1867  -0.531   2.402   6.127  0.4677 -0.0984 -0.3497
   15DOPE  H12R 1868  -0.522   2.505   6.085  1.6310 -1.2905 -3.2214
   15DOPE  H12S 1869  -0.640   2.383   6.140  0.0141  0.3460 -2.9363
   15DOPE  C213 1870  -0.497   2.290   6.024  0.1078 -0.6887 -0.1500
   15DOPE  H13R 1871  -0.512   2.189   6.067 -3.0545 -1.6130 -3.0341
   15DOPE  H13S 1872  -0.391   2.307   5.994 -0.6695  0.2254 -2.6644
   15DOPE  C214 1873  -0.564   2.300   5.886 -0.2330 -0.4991  0.1940
   15DOPE  H14R 1874  -0.670   2.266   5.896 -0.2205 -0.3327  0.9778
   15DOPE  H14S 1875  -0.506   2.226   5.826 -0.5924 -1.8115  1.4150
   15DOPE  C215 1876  -0.543   2.434   5.811 -0.0499 -0.0847  0.2092
   15DOPE  H15R 1877  -0.436   2.465   5.821 -0.7554  2.7617 -0.1080
   15DOPE  H15S 1878  -0.594   2.512   5.872  1.3466 -1.7416  3.8242
   15DOPE  C216 1879  -0.582   2.431   5.663 -0.0817 -0.2857  0.7072
   15DOPE  H16R 1880  -0.691   2.435   5.639  0.5994  0.8084 -2.6663
   15DOPE  H16S 1881  -0.541   2.342   5.610 -0.6830  0.0672 -0.3845
   15DOPE  C217 1882  -0.542   2.557   5.596 -0.2247  0.5237 -0.0171
   15DOPE  H17R 1883  -0.443   2.590   5.633  0.9289 -1.7044 -0.9445
   15DOPE  H17S 1884  -0.614   2.630   5.641 -1.9564 -1.2647  0.2426
   15DOPE  C218 1885  -0.536   2.541   5.445 -0.2810 -0.7512 -0.3380
   15DOPE  H18R 1886  -0.472   2.451   5.439 -0.8465 -1.2619  0.9667
   15DOPE  H18S 1887  -0.481   2.624   5.395 -2.7354  0.1487 -1.7228
   15DOPE  H18T 1888  -0.632   2.535   5.390  1.5084  1.4453 -4.1126
   15DOPE   C33 1889   1.082   1.941   6.356 -0.6106 -0.7111  0.1913
   15DOPE   H3X 1890   1.184   1.956   6.396 -0.4144 -0.0141 -0.5197
   15DOPE   H3Y 1891   1.051   2.048   6.352  1.7271  0.0268  0.4725
   15DOPE   C34 1892   1.083   1.905   6.210 -0.4625  0.1787 -0.2704
   15DOPE   H4X 1893   1.130   1.805   6.197  0.1144  0.2740  0.9220
   15DOPE   H4Y 1894   0.976   1.900   6.181 -0.8463 -0.6854  1.1932
   15DOPE   C35 1895   1.159   2.015   6.136 -0.6506 -0.7118  0.6545
   15DOPE   H5X 1896   1.257   2.030   6.186 -1.2606 -0.8613  1.9447
   15DOPE   H5Y 1897   1.103   2.110   6.154 -1.9429 -1.1583 -0.7934
   15DOPE   C36 1898   1.167   1.987   5.987 -1.2798 -0.1403  0.5747
   15DOPE   H6X 1899   1.072   1.935   5.964 -1.0124 -0.6927  0.6928
   15DOPE   H6Y 1900   1.246   1.911   5.968  2.4052  3.2905  0.9207
   15DOPE   C37 1901   1.197   2.105   5.894 -0.4161 -0.5450  0.0846
   15DOPE   H7X 1902   1.102   2.161   5.880 -0.0314 -0.0924 -0.7103
   15DOPE   H7Y 1903   1.279   2.178   5.910 -1.0123  1.0043 -3.1743
   15DOPE   C38 1904   1.224   2.046   5.756 -0.0125 -0.6953  0.6390
   15DOPE   H8X 1905   1.133   1.985   5.738 -1.0036  0.1446  2.5965
   15DOPE   H8Y 1906   1.311   1.977   5.765  0.6756  0.0460 -0.1535
   15DOPE   C39 1907   1.233   2.166   5.659 -0.3919  0.5726 -0.5477
   15DOPE   H9X 1908   1.144   2.229   5.651 -2.4398 -2.0455  0.2897
   15DOPE  C310 1909   1.340   2.188   5.579  0.3178 -0.4476 -0.0511
   15DOPE  H10X 1910   1.320   2.255   5.494 -0.3924 -1.2018 -0.4850
   15DOPE  C311 1911   1.455   2.099   5.557  0.0230  0.3259  0.1525
   15DOPE  H11X 1912   1.423   1.994   5.575  0.7209  0.1949  0.6552
   15DOPE  H11Y 1913   1.472   2.100   5.448  2.9490 -1.5745  0.4782
   15DOPE  C312 1914   1.585   2.135   5.625  0.1796  0.0133  0.1366
   15DOPE  H12X 1915   1.603   2.243   5.642  2.7881 -0.5315  1.3243
   15DOPE  H12Y 1916   1.665   2.092   5.560 -1.1885 -0.5745 -1.2511
   15DOPE  C313 1917   1.606   2.060   5.752 -0.0409  0.3213 -0.3814
   15DOPE  H13X 1918   1.518   2.085   5.815  1.5185  0.8992  1.6515
   15DOPE  H13Y 1919   1.614   1.949   5.748 -0.8189 -0.1661  4.4942
   15DOPE  C314 1920   1.741   2.108   5.811 -0.0059  0.3564  0.9320
   15DOPE  H14X 1921   1.727   2.217   5.826  0.5937  0.6664 -0.5359
   15DOPE  H14Y 1922   1.822   2.098   5.735  2.4141  0.8976  3.3072
   15DOPE  C315 1923   1.771   2.041   5.943  0.0477 -0.2380  0.5586
   15DOPE  H15X 1924   1.853   2.108   5.976  0.1447  0.3479 -0.8320
   15DOPE  H15Y 1925   1.818   1.946   5.907 -0.1168  1.1437 -3.8041
   15DOPE  C316 1926   1.654   2.033   6.040  1.0048 -0.5339  0.0566
   15DOPE  H16X 1927   1.592   1.950   6.000  0.7459  0.0602 -0.8207
   15DOPE  H16Y 1928   1.594   2.126   6.052  0.4001 -1.1300  1.9793
   15DOPE  C317 1929   1.706   2.013   6.180 -0.5823 -0.0914 -0.2284
   15DOPE  H17X 1930   1.786   1.936   6.179  1.6389  1.9423  2.8337
   15DOPE  H17Y 1931   1.750   2.102   6.230  1.7822 -1.0718 -0.4319
   15DOPE  C318 1932   1.599   1.966   6.275  0.8315 -0.3159 -0.3158
   15DOPE  H18X 1933   1.531   2.053   6.284  0.4108 -0.4617 -1.9078
   15DOPE  H18Y 1934   1.541   1.882   6.230 -1.6191  0.7421  0.7080
   15DOPE  H18Z 1935   1.626   1.939   6.380  0.9438 -1.9556 -0.7340
   16DOPE     N 1936   1.037   3.956   7.036  0.6482 -1.0330  0.0264
   16DOPE   HN1 1937   1.003   3.998   7.125 -0.4661 -0.2065 -0.7725
   16DOPE   HN2 1938   0.970   3.891   6.991  0.0210 -0.6027  0.3391
   16DOPE   HN3 1939   1.123   3.903   7.064  1.2819  0.5523  1.2554
   16DOPE   C12 1940   1.073   4.069   6.941  0.0924 -0.0771  0.1124
   16DOPE  H12A 1941   0.984   4.081   6.876  1.7259 -1.6277 -2.6292
   16DOPE  H12B 1942   1.162   4.036   6.882  0.7270 -0.0780  1.0448
   16DOPE   C11 1943   1.108   4.206   7.007  0.4272  0.1707  0.2008
   16DOPE  H11A 1944   1.026   4.232   7.077 -0.6024  3.2512 -1.9142
   16DOPE  H11B 1945   1.116   4.287   6.931  2.4240  0.4894  0.6763
   16DOPE     P 1946   1.370   4.210   6.996 -0.2377  0.3428  0.0113
   16DOPE   O13 1947   1.454   4.093   7.034 -0.4955  0.0109 -0.2097
   16DOPE   O14 1948   1.412   4.348   7.035 -0.0857 -0.0880 -0.1114
   16DOPE   O11 1949   1.319   4.190   6.852 -0.2896  0.6210  0.3731
   16DOPE   O12 1950   1.236   4.189   7.073 -0.2900  0.0480  0.1994
   16DOPE    C1 1951   1.416   4.170   6.751 -0.6263 -0.5336 -0.0638
   16DOPE    HA 1952   1.490   4.092   6.777  2.6815  2.1304 -0.7729
   16DOPE    HB 1953   1.466   4.267   6.730 -0.9001 -0.4021 -0.1230
   16DOPE    C2 1954   1.360   4.129   6.615  0.2625 -0.6333  0.6654
   16DOPE    HS 1955   1.313   4.029   6.620 -0.2070 -0.3894  1.2933
   16DOPE   O21 1956   1.460   4.133   6.518 -0.1703  0.1806 -0.1786
   16DOPE   C21 1957   1.535   4.017   6.511 -0.7893  0.0990 -0.2020
   16DOPE   O22 1958   1.514   3.923   6.586 -0.0637 -0.2483  0.4232
   16DOPE   C22 1959   1.666   4.044   6.428  0.3372 -0.0949 -0.1625
   16DOPE   H2R 1960   1.755   4.012   6.487 -0.0520 -0.2610  0.3390
   16DOPE   H2S 1961   1.664   4.153   6.409 -1.5321  0.2815  1.8502
   16DOPE    C3 1962   1.237   4.217   6.572 -0.1721  0.7929  0.4612
   16DOPE    HX 1963   1.264   4.324   6.557  0.4746  0.3603 -1.7278
   16DOPE    HY 1964   1.164   4.228   6.655 -1.3869  2.4971 -0.7743
   16DOPE   O31 1965   1.176   4.161   6.456 -0.0644 -0.2664  0.5081
   16DOPE   C31 1966   1.092   4.242   6.383  0.0579 -0.2144  0.7142
   16DOPE   O32 1967   1.065   4.356   6.408 -0.2677 -0.0833 -0.7710
   16DOPE   C32 1968   1.060   4.163   6.263  0.1898  0.2071 -0.3114
   16DOPE   H2X 1969   1.154   4.159   6.204  0.5657  2.1263  0.0685
   16DOPE   H2Y 1970   1.027   4.060   6.288 -1.0425 -0.0564 -2.7788
   16DOPE   C23 1971   1.656   3.958   6.295  0.0793  0.1239  0.3255
   16DOPE   H3R 1972   1.552   3.955   6.254  0.5517 -1.5570 -0.8691
   16DOPE   H3S 1973   1.681   3.855   6.326 -2.0305  0.1976  2.5551
   16DOPE   C24 1974   1.750   4.017   6.179 -0.0448 -0.3695 -0.5273
   16DOPE   H4R 1975   1.853   4.019   6.221 -0.7836  1.7339  1.4005
   16DOPE   H4S 1976   1.712   4.121   6.174  0.0107  0.0651  3.8466
   16DOPE   C25 1977   1.743   3.947   6.041  0.2225 -0.8036 -0.1419
   16DOPE   H5R 1978   1.639   3.936   6.006  0.0049 -1.1366  0.5773
   16DOPE   H5S 1979   1.796   3.849   6.050  0.0045 -0.9090  0.0010
   16DOPE   C26 1980   1.817   4.031   5.933 -0.3599 -0.1959  0.7218
   16DOPE   H6R 1981   1.921   4.043   5.971 -0.2267  0.0357  0.2855
   16DOPE   H6S 1982   1.776   4.133   5.920  1.5108  0.2897 -2.5790
   16DOPE   C27 1983   1.802   3.974   5.787 -0.3004  0.7962 -0.3092
   16DOPE   H7R 1984   1.851   4.046   5.718  1.6371 -0.4962 -0.3535
   16DOPE   H7S 1985   1.694   3.953   5.770 -0.6205  1.2480  0.9931
   16DOPE   C28 1986   1.879   3.837   5.774  0.0596 -0.3730  0.7084
   16DOPE   H8R 1987   1.862   3.792   5.674 -0.7707  1.8587 -0.2152
   16DOPE   H8S 1988   1.836   3.758   5.839  0.3142 -0.3870  0.8609
   16DOPE   C29 1989   2.023   3.841   5.813 -0.8045  0.8841  0.0300
   16DOPE   H9R 1990   2.033   3.850   5.922 -0.4437  3.0433 -0.1376
   16DOPE  C210 1991   2.129   3.840   5.724  0.0762 -0.3477  0.3996
   16DOPE  H10R 1992   2.231   3.865   5.755 -0.0966  0.7636  0.1212
   16DOPE  C211 1993   2.112   3.819   5.572  0.0431 -0.0617  0.2318
   16DOPE  H11R 1994   2.008   3.803   5.536  0.1563 -0.1931 -0.0421
   16DOPE  H11S 1995   2.161   3.725   5.540 -0.2522 -0.4678  0.9463
   16DOPE  C212 1996   2.168   3.938   5.490  0.5776 -0.7437 -0.3510
   16DOPE  H12R 1997   2.118   4.035   5.511  2.1757  0.0697 -0.2419
   16DOPE  H12S 1998   2.146   3.906   5.386 -1.5976 -1.4798  0.2773
   16DOPE  C213 1999   2.324   3.966   5.500 -0.1447  0.2721 -0.9848
   16DOPE  H13R 2000   2.329   4.014   5.600  0.8551 -3.0942  0.7293
   16DOPE  H13S 2001   2.353   4.033   5.417  1.3743 -0.4163 -1.0332
   16DOPE  C214 2002   2.403   3.842   5.502  0.2850  0.1566 -0.2570
   16DOPE  H14R 2003   2.361   3.764   5.435  0.2008 -0.8783  0.9691
   16DOPE  H14S 2004   2.385   3.792   5.600 -3.5381  0.8596 -0.4293
   16DOPE  C215 2005   2.551   3.855   5.461 -0.2521 -0.7113  1.2396
   16DOPE  H15R 2006   2.605   3.924   5.529 -0.6275 -1.1040  1.9507
   16DOPE  H15S 2007   2.552   3.895   5.358  0.8216  1.3295  1.9826
   16DOPE  C216 2008   2.618   3.720   5.433  1.1485 -0.0258  0.0795
   16DOPE  H16R 2009   2.551   3.649   5.380 -0.2858  0.5189  1.0903
   16DOPE  H16S 2010   2.634   3.668   5.530  1.4657  0.8553  0.5181
   16DOPE  C217 2011   2.748   3.715   5.351  0.4814 -0.4158 -0.0953
   16DOPE  H17R 2012   2.821   3.791   5.387  1.0412 -0.0978 -1.8330
   16DOPE  H17S 2013   2.728   3.760   5.251  1.6739 -1.2889 -0.7530
   16DOPE  C218 2014   2.814   3.589   5.337 -0.1241 -0.0447  0.4642
   16DOPE  H18R 2015   2.841   3.551   5.438 -0.4437  0.0595  0.5891
   16DOPE  H18S 2016   2.907   3.595   5.277 -1.5356  1.4259 -1.7231
   16DOPE  H18T 2017   2.752   3.515   5.283 -0.5654  0.1849  0.6489
   16DOPE   C33 2018   0.960   4.234   6.178  0.0885 -0.5558 -0.0848
   16DOPE   H3X 2019   0.988   4.338   6.150  0.3418 -0.9077 -1.2119
   16DOPE   H3Y 2020   0.867   4.253   6.236  1.1168 -0.3006  1.5577
   16DOPE   C34 2021   0.940   4.156   6.047 -0.0414  0.2154 -0.5766
   16DOPE   H4X 2022   1.043   4.136   6.010  0.4937  0.0287  0.9588
   16DOPE   H4Y 2023   0.885   4.062   6.069 -0.0146  0.0825 -1.0657
   16DOPE   C35 2024   0.874   4.245   5.942 -0.3594  0.1698 -0.7228
   16DOPE   H5X 2025   0.943   4.328   5.918 -0.9595  1.2491  1.1402
   16DOPE   H5Y 2026   0.788   4.288   5.999  0.4462  0.1542  0.5310
   16DOPE   C36 2027   0.830   4.180   5.813  0.3166  0.7645  0.1014
   16DOPE   H6X 2028   0.742   4.112   5.824 -0.4232  2.0600  3.0582
   16DOPE   H6Y 2029   0.912   4.115   5.776 -0.1301 -0.0321  0.4716
   16DOPE   C37 2030   0.787   4.288   5.712 -0.1174  0.0147 -0.6216
   16DOPE   H7X 2031   0.705   4.344   5.761 -1.1688 -0.8257 -1.3813
   16DOPE   H7Y 2032   0.870   4.361   5.724  0.3841 -0.7870  0.9981
   16DOPE   C38 2033   0.756   4.222   5.574  0.7877 -0.1868 -0.1050
   16DOPE   H8X 2034   0.656   4.173   5.578 -0.4405  1.7702 -2.8380
   16DOPE   H8Y 2035   0.840   4.154   5.550  1.0001 -0.7123  1.9672
   16DOPE   C39 2036   0.745   4.329   5.470  0.3678 -0.1505 -0.2328
   16DOPE   H9X 2037   0.805   4.419   5.491 -0.0115  0.9508 -3.3819
   16DOPE  C310 2038   0.670   4.326   5.359  0.6933 -0.2885  0.4118
   16DOPE  H10X 2039   0.664   4.415   5.294  0.6209  0.0408  0.8616
   16DOPE  C311 2040   0.590   4.213   5.311  0.5013  0.4772 -0.0909
   16DOPE  H11X 2041   0.655   4.124   5.326 -1.0404 -0.9979 -1.7169
   16DOPE  H11Y 2042   0.494   4.198   5.366 -0.9602  0.2603 -2.5264
   16DOPE  C312 2043   0.554   4.222   5.163  0.4564  0.3300 -0.4924
   16DOPE  H12X 2044   0.643   4.198   5.101  1.2808 -0.5169  0.9637
   16DOPE  H12Y 2045   0.524   4.325   5.134 -1.7779 -0.6988 -2.1831
   16DOPE  C313 2046   0.432   4.134   5.122 -0.7923  0.9779  0.0284
   16DOPE  H13X 2047   0.454   4.028   5.147 -0.1057  1.7127  2.8630
   16DOPE  H13Y 2048   0.345   4.157   5.187  1.2933 -0.1971  3.5435
   16DOPE  C314 2049   0.390   4.165   4.975  0.2414  0.7246  0.4457
   16DOPE  H14X 2050   0.304   4.096   4.955  0.9540  0.1203 -0.6132
   16DOPE  H14Y 2051   0.467   4.141   4.900  0.4235 -1.4406  1.2575
   16DOPE  C315 2052   0.333   4.300   4.962  1.4434  0.0150 -0.3459
   16DOPE  H15X 2053   0.412   4.377   4.977  0.8339  0.0900  3.3342
   16DOPE  H15Y 2054   0.256   4.322   5.038  0.1404  0.9302 -1.8555
   16DOPE  C316 2055   0.274   4.326   4.824  0.3551  0.0280 -0.5926
   16DOPE  H16X 2056   0.179   4.269   4.815  0.5771 -0.5029  0.2498
   16DOPE  H16Y 2057   0.348   4.271   4.762  0.6143 -0.6186  0.2585
   16DOPE  C317 2058   0.264   4.476   4.797 -0.7687 -0.1860  0.8245
   16DOPE  H17X 2059   0.193   4.523   4.868 -0.0752  1.5651  0.4138
   16DOPE  H17Y 2060   0.360   4.522   4.829 -0.8286  1.4916 -1.1331
   16DOPE  C318 2061   0.230   4.508   4.647 -0.3217 -0.4532 -0.1853
   16DOPE  H18X 2062   0.222   4.618   4.628  0.4077 -0.2779  0.4987
   16DOPE  H18Y 2063   0.319   4.480   4.587  0.0041  0.7836 -0.3026
   16DOPE  H18Z 2064   0.135   4.464   4.610 -0.2895 -0.2271 -0.5485
   17DOPE     N 2065   1.555   5.588   6.618 -0.1064 -0.1049  0.3353
   17DOPE   HN1 2066   1.634   5.528   6.586 -1.5616 -2.2505  0.5061
   17DOPE   HN2 2067   1.460   5.567   6.580  0.5727 -0.4818 -1.2504
   17DOPE   HN3 2068   1.585   5.685   6.596  1.4083 -0.4772  0.6689
   17DOPE   C12 2069   1.564   5.556   6.768 -0.8262 -0.4976 -1.0215
   17DOPE  H12A 2070   1.576   5.446   6.778  2.8445 -0.0809  1.2630
   17DOPE  H12B 2071   1.474   5.599   6.816  0.1973  1.9654 -1.1967
   17DOPE   C11 2072   1.691   5.620   6.826  0.4428  0.1171 -0.1409
   17DOPE  H11A 2073   1.787   5.607   6.772  0.9455 -3.3732  1.3073
   17DOPE  H11B 2074   1.715   5.561   6.917  2.8803 -0.6463 -1.1954
   17DOPE     P 2075   1.737   5.872   6.779  0.3622  0.1231 -0.3194
   17DOPE   O13 2076   1.877   5.839   6.761 -0.1739  0.6441 -0.2821
   17DOPE   O14 2077   1.706   6.007   6.832  0.0256  0.5006  0.2173
   17DOPE   O11 2078   1.658   5.855   6.641 -0.3089  0.0632  0.1036
   17DOPE   O12 2079   1.665   5.755   6.854 -0.1479 -0.1172 -0.2194
   17DOPE    C1 2080   1.547   5.927   6.599  0.3695 -0.2425 -0.8828
   17DOPE    HA 2081   1.547   6.034   6.632  3.3114 -0.6787  0.8842
   17DOPE    HB 2082   1.454   5.886   6.645  0.6808 -0.4614 -0.4425
   17DOPE    C2 2083   1.540   5.937   6.445  0.8425 -0.4777  1.1310
   17DOPE    HS 2084   1.462   6.012   6.420  1.7292  0.1822  0.2739
   17DOPE   O21 2085   1.517   5.808   6.394 -0.3037  0.0854 -0.2722
   17DOPE   C21 2086   1.389   5.771   6.388  0.0099  0.2929  0.5070
   17DOPE   O22 2087   1.296   5.829   6.442 -0.9121  0.6928  0.9261
   17DOPE   C22 2088   1.367   5.652   6.296 -0.0483 -0.4561  0.1363
   17DOPE   H2R 2089   1.259   5.631   6.308  0.1654 -0.7463  1.7093
   17DOPE   H2S 2090   1.424   5.563   6.331  0.9962  0.1047 -0.1025
   17DOPE    C3 2091   1.671   5.994   6.381  0.3266  0.2617 -0.9246
   17DOPE    HX 2092   1.760   5.931   6.402 -0.1358 -0.5031 -1.2190
   17DOPE    HY 2093   1.698   6.092   6.427 -0.7577  1.5492 -2.8911
   17DOPE   O31 2094   1.646   6.017   6.239 -0.5976  0.3626 -0.3425
   17DOPE   C31 2095   1.687   5.917   6.163  0.3386 -0.6807  0.3886
   17DOPE   O32 2096   1.731   5.811   6.204  0.2891 -0.3946 -0.5074
   17DOPE   C32 2097   1.647   5.954   6.016  0.0496  1.4258  0.9490
   17DOPE   H2X 2098   1.537   5.970   6.005  0.0584  0.5942 -0.7913
   17DOPE   H2Y 2099   1.689   6.056   5.998  0.6427  0.9713 -0.4030
   17DOPE   C23 2100   1.401   5.678   6.147 -0.3094 -0.6153 -0.4819
   17DOPE   H3R 2101   1.511   5.680   6.131 -0.2134 -1.5589  0.0012
   17DOPE   H3S 2102   1.361   5.780   6.130  1.5795  0.5197  1.3676
   17DOPE   C24 2103   1.354   5.574   6.048  0.7301  0.7456  0.2894
   17DOPE   H4R 2104   1.268   5.521   6.095  1.0958  1.2843  1.6177
   17DOPE   H4S 2105   1.434   5.500   6.027  0.8110  0.6969  0.7514
   17DOPE   C25 2106   1.305   5.645   5.923 -0.1920  0.1743  0.5768
   17DOPE   H5R 2107   1.379   5.720   5.888 -0.5593  0.6214  0.7458
   17DOPE   H5S 2108   1.221   5.714   5.943  0.6832  1.5988 -0.5050
   17DOPE   C26 2109   1.269   5.566   5.795 -0.2448  0.1730 -0.0897
   17DOPE   H6R 2110   1.247   5.635   5.712  1.2320 -0.3768 -0.9775
   17DOPE   H6S 2111   1.178   5.505   5.816  1.4860 -2.5244  0.0397
   17DOPE   C27 2112   1.371   5.468   5.742 -0.5209 -0.1706  0.3180
   17DOPE   H7R 2113   1.389   5.390   5.819  1.9447  0.7304  0.7597
   17DOPE   H7S 2114   1.469   5.520   5.732 -0.7879  0.1842 -0.6495
   17DOPE   C28 2115   1.324   5.403   5.611  0.1533  0.3213  0.9533
   17DOPE   H8R 2116   1.221   5.363   5.626  0.7947 -2.4185 -1.2028
   17DOPE   H8S 2117   1.393   5.319   5.586  0.0156  0.1500  1.1468
   17DOPE   C29 2118   1.312   5.505   5.500  0.7402  0.4996  0.4995
   17DOPE   H9R 2119   1.252   5.594   5.524  0.2804  0.2468  0.2981
   17DOPE  C210 2120   1.363   5.500   5.377  0.4597  0.2516 -1.0562
   17DOPE  H10R 2121   1.373   5.594   5.320  0.0708  1.2546  0.4553
   17DOPE  C211 2122   1.452   5.394   5.319 -0.3451 -0.5555 -0.1208
   17DOPE  H11R 2123   1.400   5.357   5.228 -0.5846 -1.7418  0.4795
   17DOPE  H11S 2124   1.464   5.307   5.387  0.4504  0.5528  1.1794
   17DOPE  C212 2125   1.596   5.443   5.283  0.1481  0.1454  0.3342
   17DOPE  H12R 2126   1.588   5.543   5.235 -0.3258  0.2380  0.5961
   17DOPE  H12S 2127   1.643   5.367   5.217 -1.6132 -1.2636  0.6143
   17DOPE  C213 2128   1.689   5.482   5.399 -0.2096  0.9380 -0.0647
   17DOPE  H13R 2129   1.640   5.560   5.462  2.1579  1.7211  0.9085
   17DOPE  H13S 2130   1.782   5.532   5.366 -0.3919  2.3971  1.5163
   17DOPE  C214 2131   1.736   5.356   5.488  0.7419 -0.4200  0.0748
   17DOPE  H14R 2132   1.787   5.285   5.419  1.0209  1.4782 -1.7724
   17DOPE  H14S 2133   1.646   5.315   5.538  0.2179  2.4866  1.7118
   17DOPE  C215 2134   1.830   5.417   5.592 -0.5041 -0.3455  0.2225
   17DOPE  H15R 2135   1.866   5.522   5.578 -1.7401  0.0355 -0.2252
   17DOPE  H15S 2136   1.916   5.349   5.607 -0.6609 -0.1739  2.3146
   17DOPE  C216 2137   1.769   5.413   5.735 -0.1510 -0.0836 -0.1094
   17DOPE  H16R 2138   1.754   5.305   5.758  0.8440 -1.0351 -3.3406
   17DOPE  H16S 2139   1.667   5.457   5.731 -0.7330 -1.4957 -1.6241
   17DOPE  C217 2140   1.857   5.482   5.839 -0.1056  0.0750 -0.4570
   17DOPE  H17R 2141   1.884   5.585   5.804  1.7898 -0.0238  0.5529
   17DOPE  H17S 2142   1.953   5.426   5.845 -0.5504 -0.8574 -1.7712
   17DOPE  C218 2143   1.795   5.490   5.982  0.2045 -0.8154 -0.6259
   17DOPE  H18R 2144   1.687   5.464   5.991  0.8979 -3.9813 -0.5343
   17DOPE  H18S 2145   1.809   5.597   6.010  0.7417 -1.8275  3.6077
   17DOPE  H18T 2146   1.853   5.444   6.065 -1.1365 -1.6874 -0.1439
   17DOPE   C33 2147   1.701   5.856   5.917  0.0629 -0.2921 -0.6789
   17DOPE   H3X 2148   1.649   5.758   5.921 -0.3110 -0.0606  0.5281
   17DOPE   H3Y 2149   1.808   5.835   5.938 -0.0163 -1.7432 -1.5907
   17DOPE   C34 2150   1.690   5.912   5.779 -0.3921  0.3222  0.5042
   17DOPE   H4X 2151   1.594   5.965   5.763  0.7622  2.1205 -0.7647
   17DOPE   H4Y 2152   1.770   5.985   5.756  0.0318 -1.0575 -2.9963
   17DOPE   C35 2153   1.709   5.796   5.678  0.1527 -0.7919 -0.5403
   17DOPE   H5X 2154   1.616   5.735   5.671  0.8907 -1.9599 -0.5259
   17DOPE   H5Y 2155   1.801   5.736   5.694  0.2008 -0.3289  1.0563
   17DOPE   C36 2156   1.728   5.836   5.527 -0.8865 -0.1023 -0.2412
   17DOPE   H6X 2157   1.776   5.752   5.474 -2.4022 -2.3574  1.7393
   17DOPE   H6Y 2158   1.791   5.927   5.521 -1.0126  0.1322  1.5403
   17DOPE   C37 2159   1.602   5.852   5.444 -0.3769  0.4113  0.1914
   17DOPE   H7X 2160   1.557   5.752   5.427  0.4216 -0.1250  1.0825
   17DOPE   H7Y 2161   1.527   5.908   5.503 -0.1992  0.2891  0.5356
   17DOPE   C38 2162   1.640   5.928   5.309  0.5400  0.0562  0.7106
   17DOPE   H8X 2163   1.695   6.014   5.350  1.7777 -0.4340  0.1262
   17DOPE   H8Y 2164   1.554   5.974   5.255  1.7792  3.0744  1.1338
   17DOPE   C39 2165   1.729   5.850   5.218  0.6035  1.0635 -0.0600
   17DOPE   H9X 2166   1.782   5.763   5.260  0.3361  0.5535 -0.7551
   17DOPE  C310 2167   1.758   5.866   5.090 -0.0437 -0.3009  0.4258
   17DOPE  H10X 2168   1.838   5.800   5.054  1.3225  0.9651  1.0840
   17DOPE  C311 2169   1.710   5.977   5.003  0.7110 -0.4056  0.8987
   17DOPE  H11X 2170   1.649   5.932   4.921  1.2724  0.0663  0.2231
   17DOPE  H11Y 2171   1.632   6.034   5.057  0.8553 -1.2349  2.0209
   17DOPE  C312 2172   1.814   6.077   4.949 -0.0059  0.1042  0.1131
   17DOPE  H12X 2173   1.852   6.129   5.039 -1.5355  0.6097  0.4919
   17DOPE  H12Y 2174   1.774   6.156   4.881  0.5344  0.1745 -0.1302
   17DOPE  C313 2175   1.928   6.017   4.865 -0.0580 -0.2005 -0.1721
   17DOPE  H13X 2176   1.987   5.943   4.924  1.5521  1.1689  0.0104
   17DOPE  H13Y 2177   1.878   5.959   4.785 -0.8312  1.9762 -1.3515
   17DOPE  C314 2178   2.014   6.107   4.779 -0.0238 -0.0546 -0.0537
   17DOPE  H14X 2179   2.072   6.179   4.841  1.9042 -1.4430 -0.1691
   17DOPE  H14Y 2180   1.945   6.175   4.725 -0.2084  0.4996  0.8667
   17DOPE  C315 2181   2.109   6.035   4.676 -0.2103 -0.8152  0.4595
   17DOPE  H15X 2182   2.045   6.019   4.586 -0.6474  1.1248  0.3952
   17DOPE  H15Y 2183   2.162   5.944   4.712  2.7773  0.8116  0.5090
   17DOPE  C316 2184   2.228   6.116   4.622 -0.9885 -0.5146  0.9429
   17DOPE  H16X 2185   2.292   6.154   4.704  0.6577 -0.2926 -0.3899
   17DOPE  H16Y 2186   2.205   6.210   4.567  2.4342  0.8842  1.6630
   17DOPE  C317 2187   2.318   6.049   4.513  0.0131 -0.3478 -0.5077
   17DOPE  H17X 2188   2.371   5.965   4.563 -0.5923 -0.2987  0.2254
   17DOPE  H17Y 2189   2.256   5.996   4.438  1.9661 -1.0112 -1.7375
   17DOPE  C318 2190   2.415   6.143   4.460  0.3196 -0.1363  0.6800
   17DOPE  H18X 2191   2.490   6.176   4.535  1.8941 -0.5101 -0.6886
   17DOPE  H18Y 2192   2.487   6.099   4.388  0.4262  0.5192  0.3779
   17DOPE  H18Z 2193   2.378   6.240   4.419  1.8832 -0.0698 -0.6625
   18DOPE     N 2194   0.098   3.837   7.315  0.3580 -0.1096 -0.1717
   18DOPE   HN1 2195   0.009   3.797   7.351  0.2408  0.8412  0.6511
   18DOPE   HN2 2196   0.157   3.755   7.288 -0.3759 -0.1487 -1.7227
   18DOPE   HN3 2197   0.150   3.886   7.391 -2.6209 -0.5835  2.3473
   18DOPE   C12 2198   0.069   3.921   7.188 -0.3497 -0.3699 -0.2738
   18DOPE  H12A 2199   0.164   3.934   7.132 -0.1002  0.9268  0.4057
   18DOPE  H12B 2200   0.026   4.016   7.225  2.3283  1.0496 -0.5800
   18DOPE   C11 2201  -0.052   3.850   7.116 -0.6571 -0.6276 -0.3706
   18DOPE  H11A 2202  -0.068   3.916   7.029 -0.4054 -0.3836 -0.2332
   18DOPE  H11B 2203  -0.145   3.860   7.176  0.4509 -0.5146  1.4192
   18DOPE     P 2204  -0.136   3.628   7.024 -0.1346 -0.3564  0.2241
   18DOPE   O13 2205  -0.267   3.656   7.089  0.5162 -0.0612  0.1174
   18DOPE   O14 2206  -0.096   3.486   7.026  0.9755 -0.4344 -0.1635
   18DOPE   O11 2207  -0.131   3.670   6.872 -0.2902 -0.3766 -0.1284
   18DOPE   O12 2208  -0.022   3.716   7.092  0.2126 -0.3654  0.2048
   18DOPE    C1 2209  -0.018   3.730   6.800 -0.2508  0.3300 -0.2756
   18DOPE    HA 2210   0.077   3.738   6.858  1.0896 -5.4189 -1.0994
   18DOPE    HB 2211  -0.042   3.835   6.771  0.0057  0.8255  1.2188
   18DOPE    C2 2212   0.019   3.648   6.675 -0.1603 -0.1239  0.2868
   18DOPE    HS 2213   0.112   3.682   6.625 -1.2818  1.4457 -0.7967
   18DOPE   O21 2214  -0.092   3.658   6.583  0.4235  0.0688  0.4680
   18DOPE   C21 2215  -0.112   3.776   6.523  1.1311 -0.5565 -0.1441
   18DOPE   O22 2216  -0.039   3.871   6.530  0.0240 -0.6274 -1.4635
   18DOPE   C22 2217  -0.241   3.775   6.442 -0.7872  0.1318 -0.1715
   18DOPE   H2R 2218  -0.321   3.831   6.495 -0.8093 -2.1193  2.4151
   18DOPE   H2S 2219  -0.272   3.671   6.420 -1.8407  0.8798 -2.4536
   18DOPE    C3 2220   0.035   3.499   6.715  0.6059 -0.5784  0.1240
   18DOPE    HX 2221  -0.068   3.462   6.738  0.9254 -2.2911 -0.9855
   18DOPE    HY 2222   0.103   3.484   6.802  3.8271  0.2300 -2.0799
   18DOPE   O31 2223   0.088   3.425   6.604 -0.2318 -0.4939  0.5043
   18DOPE   C31 2224   0.112   3.294   6.629 -0.3631 -0.0624 -0.3325
   18DOPE   O32 2225   0.084   3.237   6.732  0.7046  0.0702 -0.0631
   18DOPE   C32 2226   0.146   3.235   6.491 -0.2329 -0.0196  0.7342
   18DOPE   H2X 2227   0.094   3.304   6.420 -1.0427 -2.0104 -0.6890
   18DOPE   H2Y 2228   0.255   3.240   6.468 -1.1623  0.7991 -4.7476
   18DOPE   C23 2229  -0.210   3.838   6.307 -0.1590 -0.0871 -0.5015
   18DOPE   H3R 2230  -0.112   3.808   6.264 -0.1269  2.0655 -2.1671
   18DOPE   H3S 2231  -0.204   3.949   6.317  0.6712 -0.1974  0.3846
   18DOPE   C24 2232  -0.331   3.810   6.215 -1.0787  0.0189  0.1118
   18DOPE   H4R 2233  -0.428   3.834   6.263  0.3172 -0.4627  3.4491
   18DOPE   H4S 2234  -0.341   3.699   6.221 -0.5176 -0.0012  0.9317
   18DOPE   C25 2235  -0.325   3.887   6.089  0.4200  0.1683 -0.6993
   18DOPE   H5R 2236  -0.237   3.859   6.028  1.8068  0.6736  0.9808
   18DOPE   H5S 2237  -0.324   3.997   6.096  0.3375  0.0694  1.4236
   18DOPE   C26 2238  -0.450   3.852   6.000 -0.5321  0.5519  0.2720
   18DOPE   H6R 2239  -0.484   3.752   6.033  0.6096 -0.0234 -0.2333
   18DOPE   H6S 2240  -0.419   3.840   5.894 -2.6162 -1.3917 -0.1930
   18DOPE   C27 2241  -0.570   3.948   6.003 -1.2235 -0.2081 -0.0007
   18DOPE   H7R 2242  -0.537   4.051   5.980 -1.8476  0.3894  1.6501
   18DOPE   H7S 2243  -0.614   3.950   6.105  0.7642 -1.7953  0.9642
   18DOPE   C28 2244  -0.670   3.912   5.891 -0.3871  0.0060  0.1987
   18DOPE   H8R 2245  -0.613   3.871   5.805  1.9142  1.0568  1.1435
   18DOPE   H8S 2246  -0.704   4.013   5.860  1.6370  0.6587 -0.0410
   18DOPE   C29 2247  -0.784   3.822   5.936  1.4187 -0.3797  1.2630
   18DOPE   H9R 2248  -0.748   3.723   5.966  0.5924 -1.4550 -1.0498
   18DOPE  C210 2249  -0.917   3.853   5.939  0.2313  0.0755  0.5388
   18DOPE  H10R 2250  -0.980   3.768   5.967  1.2697 -0.4394  1.3390
   18DOPE  C211 2251  -0.984   3.984   5.893 -0.5635  0.2889 -0.3097
   18DOPE  H11R 2252  -0.924   4.058   5.834 -1.1265  0.0555 -1.1910
   18DOPE  H11S 2253  -1.021   4.035   5.984  0.7706 -1.3029  1.1934
   18DOPE  C212 2254  -1.101   3.958   5.801 -0.4974  0.0721 -0.5564
   18DOPE  H12R 2255  -1.163   4.050   5.795 -3.7428 -2.0282 -1.8185
   18DOPE  H12S 2256  -1.156   3.873   5.848  3.0171 -3.0418 -1.5338
   18DOPE  C213 2257  -1.060   3.931   5.655  0.1483 -0.8897 -0.2347
   18DOPE  H13R 2258  -1.150   3.890   5.604 -1.7477  0.2928  1.9327
   18DOPE  H13S 2259  -0.996   3.841   5.649  0.5471 -0.5286 -1.8997
   18DOPE  C214 2260  -1.002   4.049   5.582  0.4595 -0.1335 -0.0045
   18DOPE  H14R 2261  -0.943   4.001   5.501  0.9644 -0.6707  0.6649
   18DOPE  H14S 2262  -0.936   4.108   5.649  0.4533 -0.7117  0.5299
   18DOPE  C215 2263  -1.116   4.136   5.527 -0.2170 -0.3507  0.0745
   18DOPE  H15R 2264  -1.184   4.160   5.611 -1.4408  0.6914 -1.1608
   18DOPE  H15S 2265  -1.177   4.083   5.450  1.4598  0.8270 -2.1937
   18DOPE  C216 2266  -1.063   4.271   5.459 -0.7498 -0.2121  0.1216
   18DOPE  H16R 2267  -1.125   4.299   5.371 -1.3354  0.5816  0.7778
   18DOPE  H16S 2268  -0.957   4.248   5.434 -1.1963 -2.2449 -0.0315
   18DOPE  C217 2269  -1.061   4.398   5.560 -0.5030  0.1416  0.4250
   18DOPE  H17R 2270  -0.980   4.385   5.635  0.6522 -0.6048 -0.9197
   18DOPE  H17S 2271  -1.154   4.401   5.621 -0.1747 -1.2077  1.0123
   18DOPE  C218 2272  -1.058   4.529   5.482 -0.0785 -0.4623  0.3605
   18DOPE  H18R 2273  -1.040   4.608   5.558  1.4912 -0.7321  0.3073
   18DOPE  H18S 2274  -1.154   4.549   5.432  1.6214  3.6324 -1.7822
   18DOPE  H18T 2275  -0.989   4.536   5.395 -0.9836  1.7972 -0.2657
   18DOPE   C33 2276   0.117   3.086   6.466  0.6545  0.2985 -0.5010
   18DOPE   H3X 2277   0.013   3.060   6.498  0.8204  2.1720  1.8182
   18DOPE   H3Y 2278   0.181   3.023   6.531 -1.8154 -0.9936  0.8216
   18DOPE   C34 2279   0.135   3.030   6.330 -0.1319 -0.1039 -0.7323
   18DOPE   H4X 2280   0.240   3.039   6.293 -0.3092  3.0463 -0.6911
   18DOPE   H4Y 2281   0.117   2.920   6.336 -0.6302 -0.0485 -1.1232
   18DOPE   C35 2282   0.034   3.105   6.231 -0.0657  0.4009 -0.0625
   18DOPE   H5X 2283   0.066   3.211   6.221  4.0451 -0.7069 -0.4159
   18DOPE   H5Y 2284  -0.064   3.095   6.284  0.9251 -1.1413  1.5882
   18DOPE   C36 2285   0.020   3.047   6.094 -0.0624 -0.4823 -0.1342
   18DOPE   H6X 2286  -0.040   3.113   6.028  0.4939 -0.4824 -0.6574
   18DOPE   H6Y 2287  -0.029   2.948   6.097 -0.9152 -0.0546  0.1808
   18DOPE   C37 2288   0.160   3.024   6.023  0.2569 -0.3930  0.5092
   18DOPE   H7X 2289   0.241   3.099   6.036  0.2074  0.3393 -2.6193
   18DOPE   H7Y 2290   0.197   2.938   6.084  0.3911  0.0580  1.0690
   18DOPE   C38 2291   0.157   2.975   5.876  0.0981  0.3645  0.3860
   18DOPE   H8X 2292   0.087   2.889   5.873  3.1037 -2.2785  1.1950
   18DOPE   H8Y 2293   0.258   2.938   5.848 -0.1092  1.5226 -2.1753
   18DOPE   C39 2294   0.105   3.088   5.789  0.2665  0.2742 -0.5045
   18DOPE   H9X 2295  -0.004   3.084   5.774  0.5049 -1.2875 -2.2420
   18DOPE  C310 2296   0.179   3.175   5.718 -0.2915  0.3741 -0.2724
   18DOPE  H10X 2297   0.127   3.247   5.653 -2.0010  0.4751  1.1387
   18DOPE  C311 2298   0.328   3.186   5.712  0.3463  0.3179 -0.2729
   18DOPE  H11X 2299   0.379   3.115   5.781 -0.2995  0.7206  0.6330
   18DOPE  H11Y 2300   0.364   3.159   5.610 -0.4497  0.7001 -0.6672
   18DOPE  C312 2301   0.385   3.324   5.731 -0.2979  0.6314  0.1897
   18DOPE  H12X 2302   0.401   3.338   5.840  1.3274  1.3073 -0.1138
   18DOPE  H12Y 2303   0.319   3.406   5.694  1.6941  1.5452 -1.4998
   18DOPE  C313 2304   0.532   3.341   5.676  0.3348 -0.4008 -1.1702
   18DOPE  H13X 2305   0.534   3.346   5.565  0.4144 -1.5393 -1.2268
   18DOPE  H13Y 2306   0.572   3.436   5.717 -1.8409 -0.4265  1.2773
   18DOPE  C314 2307   0.626   3.229   5.727  0.7719  0.4373 -0.7104
   18DOPE  H14X 2308   0.714   3.231   5.658  0.8793 -0.5942 -0.6126
   18DOPE  H14Y 2309   0.585   3.128   5.710  2.5625 -0.4223 -0.2100
   18DOPE  C315 2310   0.665   3.245   5.876 -0.0213  0.4873 -0.3488
   18DOPE  H15X 2311   0.726   3.168   5.928 -2.5457 -2.9081 -1.9892
   18DOPE  H15Y 2312   0.572   3.253   5.937 -0.2982 -0.0129 -0.6987
   18DOPE  C316 2313   0.735   3.378   5.911 -0.1933 -0.5670  0.0763
   18DOPE  H16X 2314   0.667   3.462   5.884  0.1859 -0.4503 -0.5565
   18DOPE  H16Y 2315   0.827   3.385   5.849 -0.5192 -0.4711 -0.4035
   18DOPE  C317 2316   0.774   3.400   6.055 -0.0529  0.6180 -0.8776
   18DOPE  H17X 2317   0.678   3.401   6.110  1.5466 -0.2076  2.2042
   18DOPE  H17Y 2318   0.838   3.320   6.098  2.0222  2.9799  0.7565
   18DOPE  C318 2319   0.849   3.530   6.086 -0.3564 -0.4134  0.0888
   18DOPE  H18X 2320   0.958   3.509   6.081 -0.8041 -2.9359 -0.9178
   18DOPE  H18Y 2321   0.820   3.618   6.025  0.4371  2.1422  3.1312
   18DOPE  H18Z 2322   0.847   3.567   6.190 -1.0998 -0.9507  0.2729
   19DOPE     N 2323   7.250   4.676   6.953  0.1388 -0.3392  0.3502
   19DOPE   HN1 2324   7.327   4.731   6.997 -0.1642 -0.1542  0.6504
   19DOPE   HN2 2325   7.223   4.736   6.872  2.8522  1.5879  0.7245
   19DOPE   HN3 2326   7.168   4.666   7.015 -0.8890 -0.6610 -1.0186
   19DOPE   C12 2327   7.292   4.538   6.905  0.0245  0.0455  0.6612
   19DOPE  H12A 2328   7.343   4.485   6.988  0.9905 -0.8457 -0.4626
   19DOPE  H12B 2329   7.364   4.551   6.821  2.0397 -0.7871  2.1753
   19DOPE   C11 2330   7.169   4.452   6.859  0.3556 -0.2830 -0.0512
   19DOPE  H11A 2331   7.203   4.360   6.808  1.6477  1.1611 -1.9319
   19DOPE  H11B 2332   7.106   4.508   6.787  1.2755 -1.8005 -2.1253
   19DOPE     P 2333   7.104   4.337   7.097  0.2137 -0.0090  0.2718
   19DOPE   O13 2334   6.976   4.318   7.175 -0.4752 -0.0024 -0.1081
   19DOPE   O14 2335   7.220   4.388   7.184  0.4146 -0.3922  0.0730
   19DOPE   O11 2336   7.139   4.196   7.042  0.3143 -0.3838  0.0359
   19DOPE   O12 2337   7.088   4.436   6.974  0.3701  1.0732  0.5392
   19DOPE    C1 2338   7.067   4.128   6.941 -0.1787 -0.2126 -0.4572
   19DOPE    HA 2339   7.011   4.200   6.877  1.6408  0.8491 -0.9427
   19DOPE    HB 2340   7.008   4.052   6.996  0.8183 -0.8092 -0.1865
   19DOPE    C2 2341   7.147   4.046   6.831 -0.3206 -0.0321  0.4884
   19DOPE    HS 2342   7.193   3.968   6.894 -0.2466 -0.3452  0.0493
   19DOPE   O21 2343   7.255   4.117   6.764 -0.0778  0.4317 -0.2620
   19DOPE   C21 2344   7.345   4.040   6.709 -0.1703  0.0966  0.3828
   19DOPE   O22 2345   7.361   3.923   6.726 -0.1325  0.7189 -0.3180
   19DOPE   C22 2346   7.441   4.129   6.625 -0.0506  0.1813 -0.2415
   19DOPE   H2R 2347   7.430   4.089   6.522 -1.1081 -0.0271 -0.0615
   19DOPE   H2S 2348   7.546   4.113   6.656  1.1592  1.8025 -3.1674
   19DOPE    C3 2349   7.052   3.979   6.732 -0.0756 -0.3400 -0.6195
   19DOPE    HX 2350   6.998   3.912   6.802  1.6407  0.8977  2.0817
   19DOPE    HY 2351   7.109   3.915   6.661  0.7593 -0.3268  0.0169
   19DOPE   O31 2352   6.967   4.075   6.661  0.4144 -0.0752 -0.4323
   19DOPE   C31 2353   7.013   4.117   6.547  0.1440  0.2897  0.4449
   19DOPE   O32 2354   7.111   4.075   6.484  0.1606  0.6075  0.0925
   19DOPE   C32 2355   6.923   4.234   6.509  0.0559  0.1016 -0.2535
   19DOPE   H2X 2356   6.829   4.179   6.486 -0.4991  0.5710  0.8337
   19DOPE   H2Y 2357   6.905   4.297   6.598 -2.7216 -0.9544  0.0279
   19DOPE   C23 2358   7.416   4.277   6.615  0.4600  0.8037  0.7251
   19DOPE   H3R 2359   7.460   4.332   6.701  1.6017 -0.0528  0.7025
   19DOPE   H3S 2360   7.308   4.297   6.598  0.2900 -0.3408  0.3862
   19DOPE   C24 2361   7.487   4.348   6.490 -0.4248  0.1956 -0.1538
   19DOPE   H4R 2362   7.460   4.294   6.396 -1.9390 -3.0801  2.0027
   19DOPE   H4S 2363   7.597   4.341   6.507 -0.4452 -1.7459 -0.6329
   19DOPE   C25 2364   7.447   4.496   6.463  0.0702  1.0462 -0.3274
   19DOPE   H5R 2365   7.509   4.529   6.377  0.1018 -0.7273 -1.0243
   19DOPE   H5S 2366   7.468   4.558   6.553  2.7224 -1.0923  0.6434
   19DOPE   C26 2367   7.299   4.513   6.419  0.0635  0.4379  0.6502
   19DOPE   H6R 2368   7.235   4.449   6.483 -0.4748 -0.6925 -0.9540
   19DOPE   H6S 2369   7.285   4.484   6.313  2.8329 -0.5209  0.4680
   19DOPE   C27 2370   7.259   4.659   6.432  0.1651 -0.6048 -0.6508
   19DOPE   H7R 2371   7.297   4.705   6.338 -1.3372 -0.4689 -1.2283
   19DOPE   H7S 2372   7.302   4.704   6.524 -3.1765  1.5365  0.0353
   19DOPE   C28 2373   7.108   4.687   6.441  0.1842 -0.3570  0.2126
   19DOPE   H8R 2374   7.064   4.654   6.538 -0.0908  0.4032  0.3522
   19DOPE   H8S 2375   7.061   4.611   6.375 -3.9383  0.6802  1.6693
   19DOPE   C29 2376   7.068   4.828   6.420 -0.2321 -1.0923  0.4741
   19DOPE   H9R 2377   7.074   4.893   6.509 -0.2026  1.6494 -1.3917
   19DOPE  C210 2378   7.014   4.877   6.305 -0.2988 -0.4379 -0.1070
   19DOPE  H10R 2379   7.002   4.987   6.300  0.2487 -0.3689  0.0448
   19DOPE  C211 2380   7.006   4.793   6.178  0.1209 -0.3085 -0.3789
   19DOPE  H11R 2381   6.899   4.769   6.161  0.4951 -0.3376 -3.1166
   19DOPE  H11S 2382   7.062   4.698   6.188  2.4355  1.2038  2.4206
   19DOPE  C212 2383   7.068   4.870   6.055  0.0376 -0.6135 -0.0390
   19DOPE  H12R 2384   7.176   4.873   6.077 -0.1747  0.4111  0.9336
   19DOPE  H12S 2385   7.023   4.971   6.061 -0.7520 -0.9420 -0.1534
   19DOPE  C213 2386   7.034   4.808   5.922  0.1203  0.4458 -1.1534
   19DOPE  H13R 2387   6.928   4.775   5.930  0.4121 -0.1617  0.4261
   19DOPE  H13S 2388   7.107   4.725   5.913 -0.0909  0.2173 -0.7556
   19DOPE  C214 2389   7.058   4.902   5.801 -0.1273 -0.3276  0.0308
   19DOPE  H14R 2390   7.155   4.956   5.804  0.5508 -1.5654  1.1307
   19DOPE  H14S 2391   6.977   4.977   5.791  0.0994  0.1574  1.5273
   19DOPE  C215 2392   7.063   4.835   5.665 -0.3862 -0.4053  0.5671
   19DOPE  H15R 2393   6.971   4.778   5.640  0.4669 -0.6998 -2.2704
   19DOPE  H15S 2394   7.147   4.763   5.653  0.1684  0.3371 -0.0748
   19DOPE  C216 2395   7.077   4.946   5.560 -0.0899  0.3843 -0.6795
   19DOPE  H16R 2396   7.162   5.011   5.588 -0.0932  0.9425 -1.9087
   19DOPE  H16S 2397   6.988   5.010   5.575  0.6548  1.0111  1.4027
   19DOPE  C217 2398   7.098   4.899   5.413 -0.1006 -0.7520  0.1470
   19DOPE  H17R 2399   7.187   4.834   5.426  0.7940  0.7172  1.9294
   19DOPE  H17S 2400   7.125   4.985   5.347 -2.5108  0.8019  1.0825
   19DOPE  C218 2401   6.983   4.831   5.339  0.1253  1.1072  0.2119
   19DOPE  H18R 2402   6.959   4.733   5.385 -0.5389 -0.6406 -3.4759
   19DOPE  H18S 2403   7.023   4.823   5.235 -0.3951  0.7514  0.0296
   19DOPE  H18T 2404   6.893   4.895   5.333  0.5894  1.6836 -1.3439
   19DOPE   C33 2405   6.957   4.316   6.377  0.3703 -0.8202  0.0890
   19DOPE   H3X 2406   7.067   4.327   6.366  0.4586 -0.6875  1.0655
   19DOPE   H3Y 2407   6.907   4.414   6.389 -0.7722 -1.4845  0.9524
   19DOPE   C34 2408   6.902   4.244   6.251  0.8735 -0.4140  0.7778
   19DOPE   H4X 2409   6.931   4.137   6.248  1.9824 -0.1139  0.6792
   19DOPE   H4Y 2410   6.791   4.245   6.264  0.7878 -1.6395  0.3185
   19DOPE   C35 2411   6.930   4.317   6.126 -0.8049  0.4986 -0.0560
   19DOPE   H5X 2412   7.033   4.287   6.095 -1.2728 -2.0418  0.6375
   19DOPE   H5Y 2413   6.930   4.425   6.152  1.8755  1.1500 -2.2601
   19DOPE   C36 2414   6.843   4.278   6.012 -0.2838  0.3274  0.1301
   19DOPE   H6X 2415   6.737   4.293   6.043 -0.8551 -0.6232 -1.2578
   19DOPE   H6Y 2416   6.847   4.168   5.993 -0.4134 -0.0311  1.9431
   19DOPE   C37 2417   6.869   4.352   5.880 -1.1667  0.4110  0.2451
   19DOPE   H7X 2418   6.773   4.340   5.825 -2.6814  1.6238  2.4498
   19DOPE   H7Y 2419   6.878   4.459   5.907 -0.4627  0.8538 -1.6201
   19DOPE   C38 2420   6.991   4.309   5.803  0.4683 -0.2457  0.1076
   19DOPE   H8X 2421   6.975   4.209   5.756 -0.7302 -1.1627  2.2868
   19DOPE   H8Y 2422   7.076   4.295   5.873  0.2529 -3.3175 -0.0774
   19DOPE   C39 2423   7.022   4.409   5.694  0.3195 -0.2050 -0.2148
   19DOPE   H9X 2424   7.042   4.507   5.739 -0.8611 -0.3783  0.7420
   19DOPE  C310 2425   7.047   4.387   5.564 -0.1730 -0.2600  0.6510
   19DOPE  H10X 2426   7.060   4.478   5.503 -1.8520  1.5445  2.7834
   19DOPE  C311 2427   7.035   4.257   5.489  0.0952  0.2732  0.7445
   19DOPE  H11X 2428   6.957   4.196   5.539 -1.0363  0.0126 -1.2004
   19DOPE  H11Y 2429   6.997   4.283   5.387 -0.2284 -0.7270  0.5925
   19DOPE  C312 2430   7.165   4.176   5.472 -0.6173  0.2538 -0.0455
   19DOPE  H12X 2431   7.232   4.250   5.422 -2.7218  0.9677 -1.9801
   19DOPE  H12Y 2432   7.142   4.094   5.401  0.6642  0.9300 -1.2983
   19DOPE  C313 2433   7.225   4.131   5.605 -0.8229  0.3761 -0.0590
   19DOPE  H13X 2434   7.216   4.206   5.687 -0.5616 -0.3544  0.6591
   19DOPE  H13Y 2435   7.156   4.054   5.647 -0.9591  0.7702  0.4536
   19DOPE  C314 2436   7.361   4.056   5.592  0.5772 -0.3677  0.2069
   19DOPE  H14X 2437   7.417   4.119   5.520  0.3472  0.7620  0.9853
   19DOPE  H14Y 2438   7.349   3.951   5.559 -0.4733 -0.5840  1.2188
   19DOPE  C315 2439   7.438   4.057   5.721  0.4093  0.8094  0.1483
   19DOPE  H15X 2440   7.383   4.007   5.803  1.7895  0.3782  0.8399
   19DOPE  H15Y 2441   7.452   4.164   5.746 -2.3207  1.0103  1.1541
   19DOPE  C316 2442   7.565   3.972   5.707  0.5098 -0.2533  0.0815
   19DOPE  H16X 2443   7.622   4.007   5.618 -0.5843  2.6661  0.4079
   19DOPE  H16Y 2444   7.536   3.867   5.687 -0.7252 -0.0845  0.8710
   19DOPE  C317 2445   7.648   3.989   5.833  0.4372 -0.0864 -0.3134
   19DOPE  H17X 2446   7.674   4.097   5.833  0.2410 -0.0385 -0.3614
   19DOPE  H17Y 2447   7.596   3.959   5.927 -0.6105  1.2593 -0.4307
   19DOPE  C318 2448   7.773   3.909   5.819  0.2595 -0.3879 -1.0132
   19DOPE  H18X 2449   7.752   3.802   5.844 -0.5434  0.2541  1.2332
   19DOPE  H18Y 2450   7.808   3.901   5.714 -1.5425 -0.8833 -1.6164
   19DOPE  H18Z 2451   7.853   3.958   5.879 -0.7796  0.3938 -0.2312
   20DOPE     N 2452   4.342   0.155   6.738 -0.2697 -0.1317  0.2083
   20DOPE   HN1 2453   4.405   0.075   6.759  2.2156  1.6365 -0.0855
   20DOPE   HN2 2454   4.260   0.144   6.675 -1.0610  1.3807  0.9154
   20DOPE   HN3 2455   4.404   0.222   6.687 -0.3833 -1.7011 -2.1665
   20DOPE   C12 2456   4.306   0.226   6.867  0.4235  0.4873  0.5970
   20DOPE  H12A 2457   4.389   0.210   6.939 -0.5904 -0.2323  1.6414
   20DOPE  H12B 2458   4.216   0.172   6.905  1.9278 -2.1151  0.6655
   20DOPE   C11 2459   4.264   0.369   6.830  0.3596  0.4057 -0.3442
   20DOPE  H11A 2460   4.227   0.423   6.919 -2.6186 -0.5805 -0.8585
   20DOPE  H11B 2461   4.174   0.370   6.764 -0.0654  1.9181  0.2105
   20DOPE     P 2462   4.386   0.588   6.745 -0.2106  0.8257 -0.1659
   20DOPE   O13 2463   4.527   0.624   6.750 -0.6655 -0.1549 -0.2349
   20DOPE   O14 2464   4.296   0.651   6.839 -0.7620  0.2004 -0.3711
   20DOPE   O11 2465   4.326   0.625   6.602  0.2451  0.3618  0.0134
   20DOPE   O12 2466   4.376   0.430   6.765  0.1125 -0.0632  0.1498
   20DOPE    C1 2467   4.196   0.587   6.560  0.4630  0.5382  0.2529
   20DOPE    HA 2468   4.146   0.676   6.516 -1.0769 -1.0903 -1.4868
   20DOPE    HB 2469   4.135   0.542   6.642  0.4349  0.0812 -0.0126
   20DOPE    C2 2470   4.214   0.488   6.447 -0.0354  0.5834  0.1762
   20DOPE    HS 2471   4.296   0.422   6.482 -0.2735  0.9924  1.5349
   20DOPE   O21 2472   4.253   0.561   6.324  0.3708 -0.3376  0.4562
   20DOPE   C21 2473   4.358   0.510   6.265 -0.5349  0.8098  0.6306
   20DOPE   O22 2474   4.407   0.399   6.290 -0.5537 -0.1670 -0.1725
   20DOPE   C22 2475   4.402   0.601   6.155  0.3972 -0.9928 -0.2718
   20DOPE   H2R 2476   4.331   0.584   6.072  0.7836  0.5064 -0.9427
   20DOPE   H2S 2477   4.497   0.559   6.116  0.8834  0.4114 -0.6880
   20DOPE    C3 2478   4.079   0.403   6.416  0.4650 -0.1011  0.1095
   20DOPE    HX 2479   4.002   0.469   6.370  1.1876 -0.1678 -1.2496
   20DOPE    HY 2480   4.042   0.355   6.509  1.3697 -2.1182 -0.5307
   20DOPE   O31 2481   4.101   0.304   6.312 -0.0492 -0.0853 -0.0736
   20DOPE   C31 2482   4.171   0.199   6.354 -0.4399 -0.4771 -0.2540
   20DOPE   O32 2483   4.226   0.188   6.466 -0.6266 -0.1314 -0.3093
   20DOPE   C32 2484   4.182   0.094   6.247 -0.1138 -0.3539  0.5742
   20DOPE   H2X 2485   4.097   0.023   6.255 -0.1673 -0.2403  1.0031
   20DOPE   H2Y 2486   4.182   0.140   6.146  0.8293  0.9958  1.1635
   20DOPE   C23 2487   4.409   0.747   6.192 -0.5285  0.0845  0.9945
   20DOPE   H3R 2488   4.467   0.774   6.283  0.4157  1.0396  0.1449
   20DOPE   H3S 2489   4.301   0.772   6.206 -0.5387  0.2249  0.6779
   20DOPE   C24 2490   4.467   0.840   6.076  0.7326  0.9366  0.1198
   20DOPE   H4R 2491   4.408   0.826   5.982  0.9673 -3.2696  0.3915
   20DOPE   H4S 2492   4.566   0.795   6.054 -0.8737 -3.1822  0.3212
   20DOPE   C25 2493   4.487   0.991   6.111 -0.3512 -0.3099  0.5133
   20DOPE   H5R 2494   4.546   0.994   6.206  1.2175  0.8901 -0.4482
   20DOPE   H5S 2495   4.381   1.021   6.120 -1.1538 -0.7224 -4.5991
   20DOPE   C26 2496   4.546   1.072   5.991 -0.0234  0.5295  0.6859
   20DOPE   H6R 2497   4.536   1.180   6.013 -2.0177  1.0256 -2.0642
   20DOPE   H6S 2498   4.510   1.054   5.887  0.1806 -0.2839  0.7443
   20DOPE   C27 2499   4.698   1.056   5.974  0.7498 -0.3647  0.2012
   20DOPE   H7R 2500   4.740   1.032   6.074 -1.5664  1.5326  1.7443
   20DOPE   H7S 2501   4.742   1.147   5.928 -0.6732  0.5660  0.5987
   20DOPE   C28 2502   4.746   0.935   5.884  0.4547 -0.3354 -0.0850
   20DOPE   H8R 2503   4.704   0.838   5.918 -0.1955 -0.1005 -0.2037
   20DOPE   H8S 2504   4.852   0.929   5.916  0.6960  0.3127 -0.7558
   20DOPE   C29 2505   4.731   0.962   5.741 -0.2624  0.4232  0.6112
   20DOPE   H9R 2506   4.789   1.047   5.702 -0.8182  0.4947 -0.0791
   20DOPE  C210 2507   4.645   0.900   5.657  0.2501  0.1954  0.1362
   20DOPE  H10R 2508   4.647   0.919   5.548 -0.0133  1.5852  0.3439
   20DOPE  C211 2509   4.555   0.791   5.690  0.2542 -0.4484  0.0486
   20DOPE  H11R 2510   4.549   0.778   5.801  0.8946  0.1181  0.1513
   20DOPE  H11S 2511   4.580   0.694   5.643  0.0844 -2.0113  2.9506
   20DOPE  C212 2512   4.404   0.815   5.633  0.7504 -0.5292 -0.4975
   20DOPE  H12R 2513   4.407   0.858   5.531  1.4198 -0.3610 -0.4134
   20DOPE  H12S 2514   4.347   0.882   5.701 -1.1046 -1.7634 -0.7754
   20DOPE  C213 2515   4.329   0.678   5.622  0.4166 -0.0432  0.3243
   20DOPE  H13R 2516   4.392   0.605   5.568 -0.6493  0.3015 -1.4836
   20DOPE  H13S 2517   4.235   0.695   5.565 -1.0071 -2.3774  1.7891
   20DOPE  C214 2518   4.285   0.625   5.761 -0.2375  0.1877  0.2795
   20DOPE  H14R 2519   4.251   0.712   5.821 -0.0140 -0.7264  1.8013
   20DOPE  H14S 2520   4.375   0.593   5.818  1.7340  1.5606 -1.8873
   20DOPE  C215 2521   4.174   0.519   5.765  0.4838 -0.1909 -0.2498
   20DOPE  H15R 2522   4.197   0.423   5.715  1.0500 -0.7756  1.0819
   20DOPE  H15S 2523   4.086   0.566   5.716  0.9562  1.9788  0.8618
   20DOPE  C216 2524   4.125   0.483   5.909 -0.2078 -0.4659 -0.1738
   20DOPE  H16R 2525   4.110   0.575   5.970 -1.3536 -0.7130 -0.0567
   20DOPE  H16S 2526   4.201   0.416   5.954  0.3217 -0.5435 -1.1361
   20DOPE  C217 2527   3.997   0.402   5.909 -0.5684  0.6723  0.2464
   20DOPE  H17R 2528   4.029   0.296   5.900 -1.7011  0.4818 -2.8844
   20DOPE  H17S 2529   3.924   0.422   5.828  0.4240 -1.2354 -1.1830
   20DOPE  C218 2530   3.929   0.421   6.041  0.0902  0.8862  0.1073
   20DOPE  H18R 2531   3.826   0.382   6.034  0.8473 -1.2210  0.0047
   20DOPE  H18S 2532   3.931   0.530   6.064  0.3548  0.7743  0.6448
   20DOPE  H18T 2533   3.987   0.372   6.122  2.5530 -0.7862 -2.4678
   20DOPE   C33 2534   4.316   0.011   6.262  1.1477  0.2803  0.2955
   20DOPE   H3X 2535   4.336  -0.033   6.362  4.8499  0.0253 -0.4129
   20DOPE   H3Y 2536   4.398   0.080   6.235  0.3656  1.1006 -0.0243
   20DOPE   C34 2537   4.313  -0.093   6.148  0.1533  0.8586  0.0169
   20DOPE   H4X 2538   4.241  -0.069   6.067 -0.8815 -3.0491 -0.4296
   20DOPE   H4Y 2539   4.419  -0.099   6.114 -0.6141 -0.8837 -2.3357
   20DOPE   C35 2540   4.281  -0.236   6.199  0.3776  0.7548  0.0442
   20DOPE   H5X 2541   4.176  -0.242   6.233  1.4505 -2.4012  3.3728
   20DOPE   H5Y 2542   4.348  -0.268   6.281  1.0771  0.5455 -0.5966
   20DOPE   C36 2543   4.303  -0.358   6.101 -0.2634  0.4625  0.2244
   20DOPE   H6X 2544   4.242  -0.340   6.010  0.3739  2.5687  0.1652
   20DOPE   H6Y 2545   4.270  -0.453   6.149  1.2293 -0.6604 -0.8523
   20DOPE   C37 2546   4.454  -0.375   6.068 -0.2043  0.6132  0.3454
   20DOPE   H7X 2547   4.488  -0.293   6.001 -1.6776 -0.4460 -1.8390
   20DOPE   H7Y 2548   4.516  -0.379   6.159 -0.9630  0.7047  0.8792
   20DOPE   C38 2549   4.475  -0.510   5.993 -0.2237  1.0770  0.4346
   20DOPE   H8X 2550   4.417  -0.499   5.899  0.3791  0.2277 -0.0456
   20DOPE   H8Y 2551   4.427  -0.592   6.051  1.3163  0.6582  1.1691
   20DOPE   C39 2552   4.613  -0.546   5.969  0.0936  0.1774  0.1322
   20DOPE   H9X 2553   4.666  -0.574   6.062  0.5750  1.5666  0.3008
   20DOPE  C310 2554   4.680  -0.557   5.859 -0.0942 -0.2633  0.6595
   20DOPE  H10X 2555   4.765  -0.626   5.850 -1.2555 -2.0791  2.6626
   20DOPE  C311 2556   4.625  -0.528   5.720  0.3205  0.4931 -0.1291
   20DOPE  H11X 2557   4.692  -0.551   5.634  1.8114  0.5752  0.9711
   20DOPE  H11Y 2558   4.522  -0.570   5.714  0.0935  0.7868  1.3635
   20DOPE  C312 2559   4.606  -0.379   5.707  0.3244  0.2113 -0.2790
   20DOPE  H12X 2560   4.692  -0.312   5.729  0.0458  0.0510  1.4841
   20DOPE  H12Y 2561   4.524  -0.355   5.779  1.3991 -0.3394  1.1893
   20DOPE  C313 2562   4.549  -0.338   5.569 -0.9408 -0.8844  0.7622
   20DOPE  H13X 2563   4.471  -0.415   5.550  0.4841 -2.2190  0.1596
   20DOPE  H13Y 2564   4.492  -0.242   5.575 -0.4587 -0.4730 -0.6746
   20DOPE  C314 2565   4.648  -0.327   5.454  1.3864 -0.0829 -0.9718
   20DOPE  H14X 2566   4.600  -0.345   5.355 -0.7372  1.0002 -0.1930
   20DOPE  H14Y 2567   4.731  -0.397   5.476  1.5249  0.5426  0.5808
   20DOPE  C315 2568   4.704  -0.185   5.447  0.3116  0.4120 -0.1492
   20DOPE  H15X 2569   4.790  -0.194   5.517 -0.3336 -0.4673  0.5632
   20DOPE  H15Y 2570   4.629  -0.109   5.477  1.2718  0.8996  1.0749
   20DOPE  C316 2571   4.754  -0.139   5.309 -0.0442 -0.0949 -0.3804
   20DOPE  H16X 2572   4.664  -0.137   5.244  0.1789  3.1235 -0.7711
   20DOPE  H16Y 2573   4.826  -0.213   5.270 -2.9349 -3.0726 -0.5165
   20DOPE  C317 2574   4.808   0.005   5.318 -0.1570 -0.6852  0.4320
   20DOPE  H17X 2575   4.738   0.063   5.382 -0.9378 -0.5079 -0.5584
   20DOPE  H17Y 2576   4.908  -0.002   5.366 -0.9525 -2.0020  2.0260
   20DOPE  C318 2577   4.825   0.065   5.174 -0.0703 -0.4019 -0.2980
   20DOPE  H18X 2578   4.864   0.169   5.179 -0.1416 -0.4219  1.0435
   20DOPE  H18Y 2579   4.895   0.003   5.115  0.8908 -0.2432  0.6515
   20DOPE  H18Z 2580   4.722   0.072   5.133 -0.4885  1.2604  0.9002
   21DOPE     N 2581   1.762   7.538   6.942 -0.7579  0.4276  0.1535
   21DOPE   HN1 2582   1.663   7.508   6.938 -0.4786 -0.4221 -0.7017
   21DOPE   HN2 2583   1.768   7.596   7.029  0.7041  0.3430  0.1358
   21DOPE   HN3 2584   1.778   7.597   6.858  1.8290 -1.3128 -0.7029
   21DOPE   C12 2585   1.855   7.429   6.938 -0.2188 -0.1380 -0.7428
   21DOPE  H12A 2586   1.827   7.359   6.856  0.5851  0.3755 -1.4698
   21DOPE  H12B 2587   1.837   7.378   7.035  0.5150  1.4535  0.2656
   21DOPE   C11 2588   2.001   7.482   6.941  1.0257  0.2482 -0.7665
   21DOPE  H11A 2589   2.014   7.520   6.838 -0.6954  0.7659 -0.8188
   21DOPE  H11B 2590   2.065   7.392   6.956 -0.5080 -0.6281  0.9325
   21DOPE     P 2591   2.159   7.658   7.047 -0.1051 -0.5494 -0.2060
   21DOPE   O13 2592   2.248   7.587   7.139 -0.0639 -0.0693 -0.0797
   21DOPE   O14 2593   2.135   7.801   7.071  0.2247  0.4661  0.0516
   21DOPE   O11 2594   2.217   7.641   6.903  0.2556 -0.0671 -0.0017
   21DOPE   O12 2595   2.025   7.581   7.043 -0.0288  0.3114 -0.3038
   21DOPE    C1 2596   2.356   7.660   6.882 -0.6267 -0.0093 -0.3658
   21DOPE    HA 2597   2.417   7.579   6.927  1.0284  1.7808  0.7928
   21DOPE    HB 2598   2.387   7.755   6.932 -2.3078  0.2195  0.3026
   21DOPE    C2 2599   2.394   7.675   6.732  0.1457 -0.5596  0.2255
   21DOPE    HS 2600   2.505   7.673   6.729  0.4235  2.1327  3.0816
   21DOPE   O21 2601   2.345   7.798   6.686 -0.5263 -0.3216 -0.7466
   21DOPE   C21 2602   2.421   7.857   6.604 -0.2835  0.0546  0.3349
   21DOPE   O22 2603   2.536   7.826   6.569 -0.8876 -0.1147  0.6591
   21DOPE   C22 2604   2.359   8.001   6.577 -0.3497  0.1739 -0.0818
   21DOPE   H2R 2605   2.330   8.044   6.675  0.6013 -0.9398  0.7120
   21DOPE   H2S 2606   2.268   7.973   6.520 -0.5078 -1.0090  0.7053
   21DOPE    C3 2607   2.322   7.569   6.643  0.0674  0.1619 -0.4351
   21DOPE    HX 2608   2.214   7.572   6.670  0.4288 -3.6970  2.3518
   21DOPE    HY 2609   2.356   7.472   6.685  0.2856  1.2438  2.0632
   21DOPE   O31 2610   2.344   7.580   6.501  0.0350 -0.1485 -0.0912
   21DOPE   C31 2611   2.457   7.542   6.452  0.2807  0.0435  0.6342
   21DOPE   O32 2612   2.539   7.467   6.497  0.5785 -0.6408  0.6780
   21DOPE   C32 2613   2.457   7.585   6.306  0.2222 -0.2970  0.0257
   21DOPE   H2X 2614   2.401   7.504   6.253  0.9868 -0.3029 -0.7879
   21DOPE   H2Y 2615   2.410   7.685   6.305 -0.2726 -0.5112  0.6912
   21DOPE   C23 2616   2.458   8.091   6.497  0.5430  0.1565  0.7221
   21DOPE   H3R 2617   2.510   8.034   6.417  1.0844  0.8479  0.5735
   21DOPE   H3S 2618   2.531   8.127   6.572  1.2027 -1.2455  0.7855
   21DOPE   C24 2619   2.381   8.200   6.422 -0.9126  0.4534 -0.3844
   21DOPE   H4R 2620   2.289   8.219   6.482  0.3676 -1.1180  2.2720
   21DOPE   H4S 2621   2.345   8.142   6.334  1.2369 -1.3958 -0.1323
   21DOPE   C25 2622   2.465   8.311   6.365 -0.0383 -0.2330 -0.0936
   21DOPE   H5R 2623   2.515   8.366   6.448  0.1485 -1.2736  0.5083
   21DOPE   H5S 2624   2.399   8.382   6.310  0.0130  0.5364  0.8032
   21DOPE   C26 2625   2.573   8.271   6.266 -0.2205  0.3099 -0.1246
   21DOPE   H6R 2626   2.664   8.226   6.312  0.5957  1.3260 -0.7134
   21DOPE   H6S 2627   2.609   8.367   6.225 -1.4132  1.3478  1.1592
   21DOPE   C27 2628   2.531   8.168   6.153 -0.0920 -0.1753 -0.2680
   21DOPE   H7R 2629   2.427   8.193   6.123 -0.8853  0.7210  2.8734
   21DOPE   H7S 2630   2.540   8.067   6.199  1.1098  0.6308  1.3700
   21DOPE   C28 2631   2.620   8.183   6.031 -0.1684  0.8539  0.2017
   21DOPE   H8R 2632   2.722   8.150   6.063 -0.3567  0.5330  0.4775
   21DOPE   H8S 2633   2.627   8.292   6.011 -1.5647  0.8678 -0.2706
   21DOPE   C29 2634   2.592   8.102   5.907 -0.0045  0.7783 -0.3950
   21DOPE   H9R 2635   2.590   7.992   5.915  0.9309  0.7565 -0.2507
   21DOPE  C210 2636   2.539   8.153   5.790 -0.3615  0.2469 -0.2995
   21DOPE  H10R 2637   2.502   8.074   5.722  1.9586 -1.6045  0.4188
   21DOPE  C211 2638   2.500   8.299   5.763  0.8345  0.4983 -0.2806
   21DOPE  H11R 2639   2.536   8.340   5.666  0.2900 -1.2093 -1.2458
   21DOPE  H11S 2640   2.545   8.360   5.845  1.9006  1.4819 -1.5529
   21DOPE  C212 2641   2.352   8.307   5.748  0.3351 -0.6733  0.1570
   21DOPE  H12R 2642   2.315   8.223   5.686 -0.1738 -0.5735  0.3177
   21DOPE  H12S 2643   2.331   8.397   5.686  0.8227 -0.8562 -0.2791
   21DOPE  C213 2644   2.270   8.330   5.876  0.0557 -0.7648 -0.1232
   21DOPE  H13R 2645   2.296   8.433   5.909  1.0126 -1.7951  2.5454
   21DOPE  H13S 2646   2.307   8.260   5.954  2.1088  0.9252  0.5068
   21DOPE  C214 2647   2.122   8.314   5.854  0.6830  0.7481 -0.5709
   21DOPE  H14R 2648   2.091   8.208   5.852  1.1624  0.4613  2.2600
   21DOPE  H14S 2649   2.103   8.368   5.759  2.4848  0.6366 -1.0380
   21DOPE  C215 2650   2.043   8.378   5.970  0.2700  0.2144  0.2951
   21DOPE  H15R 2651   1.936   8.355   5.949  1.0619 -2.0405 -1.6458
   21DOPE  H15S 2652   2.052   8.489   5.962 -2.7341  0.6747  1.6874
   21DOPE  C216 2653   2.074   8.330   6.114  0.3240 -0.2619  0.3535
   21DOPE  H16R 2654   2.180   8.342   6.142  0.6712 -1.9134 -0.1286
   21DOPE  H16S 2655   2.051   8.222   6.122 -0.7410  0.0612  2.0305
   21DOPE  C217 2656   1.973   8.382   6.224 -0.4419 -0.3452 -0.1765
   21DOPE  H17R 2657   1.867   8.377   6.193  0.4008 -0.2894 -3.4856
   21DOPE  H17S 2658   1.993   8.491   6.231  1.0160 -0.6749  1.9489
   21DOPE  C218 2659   1.994   8.319   6.366 -0.1793 -0.7067  0.4787
   21DOPE  H18R 2660   2.092   8.353   6.406  0.4400 -0.0399 -1.5178
   21DOPE  H18S 2661   1.984   8.208   6.366  1.7172 -0.9437  2.5018
   21DOPE  H18T 2662   1.913   8.341   6.439  1.5669  3.4580  1.4167
   21DOPE   C33 2663   2.591   7.610   6.243 -0.8119  0.0300 -0.7533
   21DOPE   H3X 2664   2.636   7.509   6.257  0.3478  0.6407  0.0669
   21DOPE   H3Y 2665   2.651   7.679   6.305 -0.3141 -0.1255 -1.0519
   21DOPE   C34 2666   2.594   7.654   6.100 -0.1731 -0.2746  0.1909
   21DOPE   H4X 2667   2.511   7.606   6.043 -1.6140  2.9259 -0.6292
   21DOPE   H4Y 2668   2.569   7.762   6.090  0.6035 -0.2574 -2.0801
   21DOPE   C35 2669   2.734   7.634   6.036 -0.4585  0.7883 -0.3844
   21DOPE   H5X 2670   2.767   7.530   6.056 -0.5861  0.7621 -0.3030
   21DOPE   H5Y 2671   2.808   7.698   6.088 -1.4011  2.8243 -1.4292
   21DOPE   C36 2672   2.735   7.665   5.888  0.4066  0.3779  0.3762
   21DOPE   H6X 2673   2.841   7.677   5.857 -0.3152  1.1582 -1.9906
   21DOPE   H6Y 2674   2.685   7.761   5.864 -1.6763 -0.9675 -1.0004
   21DOPE   C37 2675   2.658   7.561   5.816  0.3489 -0.4850  0.2498
   21DOPE   H7X 2676   2.694   7.460   5.845  0.5389 -0.1561  1.1717
   21DOPE   H7Y 2677   2.550   7.566   5.842  0.8208 -1.8207  2.7675
   21DOPE   C38 2678   2.687   7.579   5.668  0.3615 -0.0930  0.0900
   21DOPE   H8X 2679   2.796   7.578   5.649  0.3750  1.0494  0.0773
   21DOPE   H8Y 2680   2.651   7.675   5.626  1.7310  0.0573 -0.8124
   21DOPE   C39 2681   2.630   7.462   5.588  0.2460 -0.3840 -0.1985
   21DOPE   H9X 2682   2.520   7.467   5.579  0.2604 -0.3246 -0.3562
   21DOPE  C310 2683   2.689   7.342   5.548 -0.4689  0.1894  0.1549
   21DOPE  H10X 2684   2.630   7.262   5.501  2.0506 -0.8858 -1.3541
   21DOPE  C311 2685   2.835   7.310   5.558 -0.0285  0.5386  0.9335
   21DOPE  H11X 2686   2.892   7.352   5.643  1.0815  0.4902  0.2206
   21DOPE  H11Y 2687   2.851   7.200   5.570  0.1672  0.5294  0.5808
   21DOPE  C312 2688   2.900   7.358   5.423 -0.1267  0.1214  0.1522
   21DOPE  H12X 2689   2.909   7.469   5.420  0.7384  0.0973  1.2025
   21DOPE  H12Y 2690   2.853   7.317   5.331  1.3099  0.2823 -0.6774
   21DOPE  C313 2691   3.045   7.312   5.437  0.1774  0.0246  0.2572
   21DOPE  H13X 2692   3.087   7.327   5.539  1.2560  0.9287 -0.3000
   21DOPE  H13Y 2693   3.059   7.203   5.425  0.3549  0.1674 -0.9692
   21DOPE  C314 2694   3.137   7.387   5.334 -0.2807 -0.1251  0.4054
   21DOPE  H14X 2695   3.149   7.493   5.364  0.9803  1.1045 -3.7671
   21DOPE  H14Y 2696   3.077   7.375   5.242  0.2261 -4.9225  0.4515
   21DOPE  C315 2697   3.271   7.322   5.295 -0.5536  0.3999 -0.2334
   21DOPE  H15X 2698   3.247   7.215   5.276 -0.9649  0.7132 -1.6161
   21DOPE  H15Y 2699   3.345   7.337   5.376 -0.3289  1.4167 -0.6066
   21DOPE  C316 2700   3.325   7.371   5.159  0.3714 -0.1609 -0.1694
   21DOPE  H16X 2701   3.350   7.479   5.167 -2.4617  0.5148  0.9089
   21DOPE  H16Y 2702   3.261   7.361   5.070  0.1426  0.0884 -0.0368
   21DOPE  C317 2703   3.461   7.305   5.130 -0.2563 -0.0786 -0.7257
   21DOPE  H17X 2704   3.529   7.323   5.216 -1.3292  3.2032 -0.4254
   21DOPE  H17Y 2705   3.429   7.198   5.133 -0.2684 -0.0589  1.2703
   21DOPE  C318 2706   3.513   7.347   4.993 -0.0414  0.0281 -0.4126
   21DOPE  H18X 2707   3.598   7.280   4.969 -1.0031 -1.8711  1.2029
   21DOPE  H18Y 2708   3.442   7.329   4.910  0.5680 -1.7401 -0.6005
   21DOPE  H18Z 2709   3.538   7.455   4.983 -1.1739  0.1222 -2.7089
   22DOPE     N 2710   0.667   4.793   6.804 -0.3687 -0.4108  0.3653
   22DOPE   HN1 2711   0.676   4.692   6.780  4.8610 -0.5471  1.6404
   22DOPE   HN2 2712   0.756   4.816   6.854 -0.2306 -0.6084  0.2078
   22DOPE   HN3 2713   0.599   4.806   6.882 -0.5686 -0.0169  0.1266
   22DOPE   C12 2714   0.645   4.895   6.692 -1.0007 -0.3692  0.1809
   22DOPE  H12A 2715   0.737   4.892   6.629 -1.8588  0.6287 -1.1708
   22DOPE  H12B 2716   0.652   4.991   6.748  0.0802 -1.4578  1.9706
   22DOPE   C11 2717   0.510   4.883   6.626  0.0415 -0.7681 -0.2178
   22DOPE  H11A 2718   0.513   4.802   6.550 -1.5886 -1.2503  0.1747
   22DOPE  H11B 2719   0.500   4.976   6.566  2.3456 -0.6546 -0.4936
   22DOPE     P 2720   0.320   4.975   6.793 -0.3428 -0.2224 -0.0349
   22DOPE   O13 2721   0.416   5.062   6.857  0.3167  0.2765 -0.2020
   22DOPE   O14 2722   0.217   4.920   6.888 -0.1324  0.1729  0.2961
   22DOPE   O11 2723   0.253   5.046   6.663  0.7128  0.0837  0.3467
   22DOPE   O12 2724   0.399   4.865   6.722  0.4354  0.0176  0.1249
   22DOPE    C1 2725   0.193   4.978   6.551  0.7958 -0.1517 -0.2274
   22DOPE    HA 2726   0.265   4.918   6.491  0.0156 -2.3872  0.9497
   22DOPE    HB 2727   0.139   5.052   6.489 -3.0049 -0.9904  1.7844
   22DOPE    C2 2728   0.068   4.899   6.601  0.0853  0.5157  1.0491
   22DOPE    HS 2729   0.105   4.823   6.673  2.1381  0.5784  0.1363
   22DOPE   O21 2730  -0.006   4.833   6.489 -0.3546  0.4523  0.2930
   22DOPE   C21 2731   0.065   4.758   6.408  0.1662 -0.3339  0.6837
   22DOPE   O22 2732   0.177   4.713   6.433 -0.2175  0.4035  0.0355
   22DOPE   C22 2733  -0.014   4.741   6.280  0.4274  0.4534  0.0202
   22DOPE   H2R 2734  -0.125   4.748   6.286  0.4766  2.1963 -0.5970
   22DOPE   H2S 2735   0.003   4.634   6.253 -1.1350 -0.0392  0.8550
   22DOPE    C3 2736  -0.038   4.986   6.683 -0.2432 -0.2347  0.3422
   22DOPE    HX 2737   0.023   5.054   6.747 -0.9043 -1.2732  2.1352
   22DOPE    HY 2738  -0.102   4.927   6.752  0.4426  0.3868  1.5447
   22DOPE   O31 2739  -0.108   5.083   6.600  0.0378 -0.0537 -0.2902
   22DOPE   C31 2740  -0.219   5.056   6.542  0.1163  0.2757  0.3766
   22DOPE   O32 2741  -0.290   4.959   6.559  0.1513 -0.1269  0.4731
   22DOPE   C32 2742  -0.248   5.164   6.431  0.1362  0.3389 -0.1051
   22DOPE   H2X 2743  -0.298   5.253   6.475 -0.0390 -0.3611  1.1750
   22DOPE   H2Y 2744  -0.146   5.199   6.406  1.2757 -1.6902  1.4046
   22DOPE   C23 2745   0.045   4.828   6.161 -0.1906  0.1201 -0.1515
   22DOPE   H3R 2746   0.155   4.825   6.152 -0.3060  0.5545 -1.9848
   22DOPE   H3S 2747   0.017   4.931   6.194 -1.2110 -0.8489  2.2117
   22DOPE   C24 2748  -0.035   4.816   6.030 -0.5597 -0.9192 -0.5371
   22DOPE   H4R 2749  -0.141   4.835   6.058 -0.0649 -0.6007  1.2624
   22DOPE   H4S 2750  -0.020   4.718   5.981 -1.2610 -1.9637  1.2313
   22DOPE   C25 2751   0.015   4.923   5.932  0.1293 -0.5524  1.4398
   22DOPE   H5R 2752   0.125   4.910   5.916 -0.1383 -1.5694  0.2008
   22DOPE   H5S 2753   0.020   5.030   5.961 -0.7901  0.0871 -0.5692
   22DOPE   C26 2754  -0.058   4.902   5.793  0.6889  0.4207  0.3352
   22DOPE   H6R 2755  -0.168   4.909   5.806  0.6366  1.7530 -0.5522
   22DOPE   H6S 2756  -0.029   4.798   5.771 -1.5839 -0.5855  1.7225
   22DOPE   C27 2757  -0.022   5.003   5.680  0.5318 -0.3059 -0.2927
   22DOPE   H7R 2758   0.089   5.004   5.676  0.7358  3.4637  2.0844
   22DOPE   H7S 2759  -0.060   5.097   5.726 -0.7806 -1.2930  0.7396
   22DOPE   C28 2760  -0.094   4.975   5.550 -0.3402 -0.2229  0.7647
   22DOPE   H8R 2761  -0.197   5.010   5.572 -0.0535  0.7277  0.6014
   22DOPE   H8S 2762  -0.098   4.865   5.534  0.4964 -0.3817  1.5633
   22DOPE   C29 2763  -0.041   5.050   5.437 -0.4153 -0.1300  0.2872
   22DOPE   H9R 2764   0.068   5.044   5.423 -0.2688  0.6418  1.0230
   22DOPE  C210 2765  -0.114   5.135   5.364  0.0019  0.1427  0.2151
   22DOPE  H10R 2766  -0.052   5.188   5.290  0.3575  1.0095  1.1211
   22DOPE  C211 2767  -0.263   5.148   5.357 -0.5438 -0.3660 -0.1442
   22DOPE  H11R 2768  -0.272   5.246   5.409 -1.8887 -0.2199 -0.5873
   22DOPE  H11S 2769  -0.313   5.074   5.423  0.1997  0.4537  1.3867
   22DOPE  C212 2770  -0.321   5.144   5.221  0.5126  0.1575  0.2988
   22DOPE  H12R 2771  -0.269   5.207   5.146 -1.2812  0.4804 -0.7302
   22DOPE  H12S 2772  -0.426   5.180   5.219  0.7338  0.8776  1.1021
   22DOPE  C213 2773  -0.294   5.003   5.164  0.0104  0.3893  0.0245
   22DOPE  H13R 2774  -0.346   4.923   5.221 -0.0593  0.8003  0.5436
   22DOPE  H13S 2775  -0.186   4.977   5.155  0.2516  0.6359  1.8085
   22DOPE  C214 2776  -0.347   5.004   5.017  0.1825  0.5981  0.5942
   22DOPE  H14R 2777  -0.296   4.921   4.963 -0.3359  0.5412  0.1875
   22DOPE  H14S 2778  -0.321   5.103   4.974 -0.2402  0.6857  0.5315
   22DOPE  C215 2779  -0.497   4.986   5.018  0.5722 -0.0880 -0.6465
   22DOPE  H15R 2780  -0.547   5.070   5.071 -1.0857 -1.1064 -0.5135
   22DOPE  H15S 2781  -0.511   4.891   5.073  0.6559  0.7349  0.8549
   22DOPE  C216 2782  -0.553   4.971   4.877  0.2288 -0.1083  0.5131
   22DOPE  H16R 2783  -0.495   4.886   4.834  0.4667  0.4742 -0.3530
   22DOPE  H16S 2784  -0.541   5.063   4.816 -0.7308  0.4247  1.1128
   22DOPE  C217 2785  -0.706   4.945   4.872 -0.3128  0.1590  0.0625
   22DOPE  H17R 2786  -0.749   5.047   4.875  0.6489  0.6605 -1.6386
   22DOPE  H17S 2787  -0.737   4.907   4.972  1.4327  0.5614  0.8009
   22DOPE  C218 2788  -0.760   4.855   4.762 -0.3873 -0.2899 -0.2674
   22DOPE  H18R 2789  -0.732   4.749   4.781 -0.9044 -0.3437  0.2178
   22DOPE  H18S 2790  -0.735   4.891   4.660  2.2269 -1.9115 -0.3216
   22DOPE  H18T 2791  -0.871   4.851   4.759 -0.3768 -2.8309  0.5316
   22DOPE   C33 2792  -0.302   5.104   6.308 -0.3075  0.0939  0.1864
   22DOPE   H3X 2793  -0.411   5.087   6.315 -0.3222  0.1609  0.1274
   22DOPE   H3Y 2794  -0.260   5.004   6.285 -1.6327 -0.3736 -0.2613
   22DOPE   C34 2795  -0.274   5.193   6.191  0.1424  0.0264  0.4592
   22DOPE   H4X 2796  -0.314   5.290   6.227 -2.5614 -1.7719  2.7992
   22DOPE   H4Y 2797  -0.168   5.188   6.159 -0.5850 -0.0427 -2.2132
   22DOPE   C35 2798  -0.353   5.147   6.064  0.8814 -0.8344 -0.1735
   22DOPE   H5X 2799  -0.460   5.156   6.089  0.5652  0.7211 -1.8446
   22DOPE   H5Y 2800  -0.326   5.042   6.038 -0.2054 -1.6259  1.6893
   22DOPE   C36 2801  -0.322   5.243   5.952 -0.7684  0.0258 -0.6505
   22DOPE   H6X 2802  -0.213   5.237   5.935 -0.4435 -0.1549  1.2809
   22DOPE   H6Y 2803  -0.355   5.345   5.981 -3.2691 -0.7279 -0.6076
   22DOPE   C37 2804  -0.391   5.204   5.821 -0.5298 -1.0651 -0.9962
   22DOPE   H7X 2805  -0.351   5.107   5.783  0.4752 -0.7621 -0.7463
   22DOPE   H7Y 2806  -0.498   5.194   5.849  0.2419 -0.2879  2.8191
   22DOPE   C38 2807  -0.360   5.309   5.713  0.0033  0.4489  0.2762
   22DOPE   H8X 2808  -0.387   5.269   5.613 -3.7633  1.4149  0.7285
   22DOPE   H8Y 2809  -0.250   5.322   5.709  0.0702  0.7637  2.3685
   22DOPE   C39 2810  -0.426   5.440   5.727 -0.4628 -0.9426  0.6476
   22DOPE   H9X 2811  -0.439   5.471   5.831 -0.1474 -0.3367  0.5099
   22DOPE  C310 2812  -0.467   5.518   5.624  0.7089  0.6858  0.3833
   22DOPE  H10X 2813  -0.498   5.623   5.636  2.1101  1.1428  0.1025
   22DOPE  C311 2814  -0.480   5.480   5.477 -0.5370  0.1038  0.9521
   22DOPE  H11X 2815  -0.471   5.371   5.455 -0.8541  0.3618 -0.6047
   22DOPE  H11Y 2816  -0.587   5.504   5.462 -0.7435 -1.4312 -0.3651
   22DOPE  C312 2817  -0.384   5.547   5.374  0.1765 -0.1943 -0.4801
   22DOPE  H12X 2818  -0.276   5.529   5.396  0.1972 -0.0478 -0.4594
   22DOPE  H12Y 2819  -0.396   5.656   5.386 -0.0191 -0.1915 -0.7011
   22DOPE  C313 2820  -0.409   5.498   5.234 -0.2691  0.5571  0.0662
   22DOPE  H13X 2821  -0.368   5.570   5.160  0.1135  1.1817  0.8738
   22DOPE  H13Y 2822  -0.352   5.405   5.216 -0.3886  0.2383  1.2461
   22DOPE  C314 2823  -0.557   5.478   5.183  0.2552  0.2643  0.6266
   22DOPE  H14X 2824  -0.616   5.569   5.210  1.7401  1.6342 -0.5269
   22DOPE  H14Y 2825  -0.615   5.396   5.230 -1.9345  1.6683  0.5350
   22DOPE  C315 2826  -0.579   5.460   5.032 -0.1581 -0.0579 -0.5155
   22DOPE  H15X 2827  -0.539   5.364   4.992  3.6302  0.3518  1.8399
   22DOPE  H15Y 2828  -0.533   5.547   4.982 -0.9972 -0.8588 -2.8144
   22DOPE  C316 2829  -0.728   5.461   4.980  0.0496 -0.2029 -0.2685
   22DOPE  H16X 2830  -0.787   5.553   5.003  0.3116 -0.0310 -0.2710
   22DOPE  H16Y 2831  -0.776   5.375   5.031 -0.2094 -0.5482 -1.0821
   22DOPE  C317 2832  -0.734   5.432   4.833  0.4021 -0.6099  0.3852
   22DOPE  H17X 2833  -0.681   5.510   4.774  0.8510 -1.1114  0.1119
   22DOPE  H17Y 2834  -0.670   5.342   4.818  1.7685  0.5066 -0.8067
   22DOPE  C318 2835  -0.873   5.401   4.770  0.0385 -0.4145 -0.6625
   22DOPE  H18X 2836  -0.877   5.357   4.668 -2.1276 -0.4163 -0.6232
   22DOPE  H18Y 2837  -0.919   5.327   4.838 -0.4159  1.8248  1.6118
   22DOPE  H18Z 2838  -0.938   5.491   4.776  2.2593  1.2182  0.9103
   23DOPE     N 2839   3.630   1.694   7.129 -0.4569 -0.2605 -0.1214
   23DOPE   HN1 2840   3.601   1.594   7.125  0.0519 -0.4025 -0.2750
   23DOPE   HN2 2841   3.628   1.720   7.230 -0.9376 -1.1927  0.1238
   23DOPE   HN3 2842   3.559   1.740   7.068 -1.8513 -1.2395  0.6793
   23DOPE   C12 2843   3.767   1.700   7.052 -0.8214 -0.8975 -0.3466
   23DOPE  H12A 2844   3.836   1.633   7.107  0.2714 -0.1011 -0.7177
   23DOPE  H12B 2845   3.803   1.805   7.062  1.6692 -1.8184  1.4565
   23DOPE   C11 2846   3.765   1.654   6.910  0.1405 -0.2223 -0.2977
   23DOPE  H11A 2847   3.868   1.643   6.868  0.0193 -0.6990 -0.4804
   23DOPE  H11B 2848   3.707   1.727   6.850  0.5400  0.9400  0.6969
   23DOPE     P 2849   3.782   1.390   6.924 -0.2782  0.1150 -0.1729
   23DOPE   O13 2850   3.711   1.282   6.858 -0.0321 -0.6182 -0.4443
   23DOPE   O14 2851   3.824   1.365   7.062  0.2033 -0.1320 -0.2382
   23DOPE   O11 2852   3.919   1.420   6.842  0.2659 -0.0760  0.3505
   23DOPE   O12 2853   3.700   1.528   6.909 -0.3299 -0.2958 -0.4078
   23DOPE    C1 2854   3.917   1.416   6.702  0.5410  0.1601  0.3562
   23DOPE    HA 2855   3.858   1.499   6.659  1.6532 -0.1534 -1.9304
   23DOPE    HB 2856   3.869   1.326   6.659  1.7638  0.0256 -0.8171
   23DOPE    C2 2857   4.061   1.430   6.644 -0.5739 -0.2062 -0.0790
   23DOPE    HS 2858   4.124   1.349   6.687  1.9508  1.7970  0.2111
   23DOPE   O21 2859   4.113   1.554   6.690 -0.0044  0.0627 -0.1877
   23DOPE   C21 2860   4.233   1.556   6.731 -0.0634 -0.0233 -0.9949
   23DOPE   O22 2861   4.314   1.464   6.719 -0.1021 -0.3441  0.6854
   23DOPE   C22 2862   4.250   1.687   6.807  0.2781  0.3615 -0.3119
   23DOPE   H2R 2863   4.350   1.676   6.854  0.6459 -1.6679 -1.4597
   23DOPE   H2S 2864   4.176   1.684   6.891 -0.3357 -0.9543 -0.8789
   23DOPE    C3 2865   4.060   1.437   6.485  0.2920  0.4911 -0.1747
   23DOPE    HX 2866   4.168   1.448   6.459  0.1278  0.5367 -0.8420
   23DOPE    HY 2867   3.995   1.518   6.445 -0.8569 -0.1761  0.3125
   23DOPE   O31 2868   3.998   1.321   6.428 -0.2463 -0.4724  0.1332
   23DOPE   C31 2869   4.060   1.208   6.428  0.4873  0.0439  0.1107
   23DOPE   O32 2870   4.180   1.193   6.444 -0.5127 -0.1138  0.7794
   23DOPE   C32 2871   3.961   1.097   6.384 -0.3962  0.3250 -0.0084
   23DOPE   H2X 2872   3.884   1.089   6.464  0.3759  1.2614  0.8494
   23DOPE   H2Y 2873   3.911   1.127   6.290 -0.7907 -2.1861 -0.6566
   23DOPE   C23 2874   4.238   1.804   6.707 -0.7812  0.7018  0.4610
   23DOPE   H3R 2875   4.231   1.895   6.771 -2.8040  1.2460 -0.4710
   23DOPE   H3S 2876   4.138   1.806   6.659 -1.7674  0.1490  2.4236
   23DOPE   C24 2877   4.365   1.804   6.614 -0.2498 -0.3665  0.3317
   23DOPE   H4R 2878   4.344   1.725   6.538  2.9573 -2.2633  1.2158
   23DOPE   H4S 2879   4.460   1.759   6.652 -0.3276 -2.1621 -1.3967
   23DOPE   C25 2880   4.393   1.937   6.539 -1.0267 -0.5000 -0.6514
   23DOPE   H5R 2881   4.405   2.012   6.620 -1.9257  1.5925 -2.3512
   23DOPE   H5S 2882   4.303   1.960   6.479 -0.4515 -0.2169 -1.4350
   23DOPE   C26 2883   4.515   1.942   6.439  0.2156 -0.1976  0.0102
   23DOPE   H6R 2884   4.601   1.891   6.486  1.7235  1.3464 -0.9922
   23DOPE   H6S 2885   4.532   2.050   6.423 -0.8319  0.2470  1.6456
   23DOPE   C27 2886   4.495   1.876   6.299 -0.3901 -0.3545  0.3547
   23DOPE   H7R 2887   4.422   1.929   6.233 -0.2569  0.3167  0.7428
   23DOPE   H7S 2888   4.445   1.781   6.324  0.9298 -0.3524  3.3666
   23DOPE   C28 2889   4.628   1.839   6.234 -1.3771 -0.9270  0.3652
   23DOPE   H8R 2890   4.613   1.759   6.158 -2.2764  0.7645 -1.3400
   23DOPE   H8S 2891   4.692   1.809   6.320 -2.0424 -1.0500  0.8225
   23DOPE   C29 2892   4.690   1.954   6.161 -0.2416 -0.5914 -0.0732
   23DOPE   H9R 2893   4.722   2.034   6.230  0.3115  0.1347 -1.1487
   23DOPE  C210 2894   4.741   1.954   6.036  0.1503  0.0561  0.1608
   23DOPE  H10R 2895   4.805   2.039   6.008 -0.0092  1.0294  2.5560
   23DOPE  C211 2896   4.708   1.856   5.930 -0.2038  0.3480 -0.1305
   23DOPE  H11R 2897   4.749   1.757   5.960  0.3549  1.3654  2.8369
   23DOPE  H11S 2898   4.764   1.889   5.840  1.4783  0.1756  0.8034
   23DOPE  C212 2899   4.561   1.817   5.886 -0.8116 -0.4064  0.0085
   23DOPE  H12R 2900   4.523   1.886   5.807  0.1432  1.8911  1.4544
   23DOPE  H12S 2901   4.500   1.834   5.977 -1.8923 -0.3672 -0.7021
   23DOPE  C213 2902   4.552   1.678   5.823  0.1590  0.4308  0.3873
   23DOPE  H13R 2903   4.588   1.598   5.891  0.1420 -0.2668 -0.4091
   23DOPE  H13S 2904   4.616   1.671   5.732 -1.0480 -0.8744 -0.4025
   23DOPE  C214 2905   4.407   1.644   5.776  0.3716  0.3448 -0.6957
   23DOPE  H14R 2906   4.389   1.729   5.706 -1.1946 -0.0070 -0.7670
   23DOPE  H14S 2907   4.339   1.662   5.862  0.9791  1.1646 -0.3718
   23DOPE  C215 2908   4.391   1.503   5.711  0.1382 -0.1718 -0.0898
   23DOPE  H15R 2909   4.404   1.426   5.790 -0.4772 -1.0768 -0.8633
   23DOPE  H15S 2910   4.479   1.493   5.644 -1.1200 -1.2632 -1.6411
   23DOPE  C216 2911   4.272   1.473   5.618 -0.5624 -0.3252 -0.2065
   23DOPE  H16R 2912   4.259   1.552   5.541 -1.5526 -0.9090 -0.6642
   23DOPE  H16S 2913   4.182   1.473   5.684 -0.6862  1.0745 -0.3299
   23DOPE  C217 2914   4.287   1.341   5.543 -0.4180  0.6698 -0.3006
   23DOPE  H17R 2915   4.380   1.350   5.482 -0.6693  1.6854 -0.5410
   23DOPE  H17S 2916   4.201   1.317   5.477  1.8227 -2.2582 -2.4424
   23DOPE  C218 2917   4.317   1.224   5.636 -0.2179  0.0311 -0.2400
   23DOPE  H18R 2918   4.328   1.124   5.587 -1.9398  0.9478 -2.6782
   23DOPE  H18S 2919   4.237   1.210   5.712  0.5451  1.3787  0.8614
   23DOPE  H18T 2920   4.413   1.234   5.691  0.0531 -0.3401 -0.6325
   23DOPE   C33 2921   4.032   0.953   6.366  0.1023 -0.2572  0.4686
   23DOPE   H3X 2922   4.097   0.931   6.453 -2.2752 -2.7969  1.7415
   23DOPE   H3Y 2923   4.097   0.961   6.276  0.7276 -1.8255  0.7490
   23DOPE   C34 2924   3.932   0.839   6.342 -0.2667  0.8002 -0.5310
   23DOPE   H4X 2925   3.990   0.748   6.317 -2.4846 -0.4526 -1.3744
   23DOPE   H4Y 2926   3.871   0.818   6.433 -0.8490  0.7404 -0.9321
   23DOPE   C35 2927   3.832   0.860   6.222  0.0782 -0.6286  0.5917
   23DOPE   H5X 2928   3.766   0.949   6.231  0.0822 -0.2543 -2.3407
   23DOPE   H5Y 2929   3.775   0.765   6.219  0.8573 -1.0768 -0.0652
   23DOPE   C36 2930   3.900   0.857   6.085 -0.6810 -0.1367  0.2665
   23DOPE   H6X 2931   3.957   0.763   6.073 -0.0533  0.3321 -0.5366
   23DOPE   H6Y 2932   3.979   0.935   6.086 -1.0585  0.2816  2.3868
   23DOPE   C37 2933   3.807   0.868   5.961  0.4402  0.2403  0.6056
   23DOPE   H7X 2934   3.757   0.769   5.949 -0.0592  0.2873  2.0677
   23DOPE   H7Y 2935   3.727   0.945   5.958 -0.0174 -0.2366  0.1091
   23DOPE   C38 2936   3.890   0.888   5.830 -0.1243  0.1346 -0.0543
   23DOPE   H8X 2937   3.969   0.810   5.819 -0.4863 -0.1373 -0.8349
   23DOPE   H8Y 2938   3.951   0.979   5.849  0.0253 -0.4174  2.3770
   23DOPE   C39 2939   3.807   0.914   5.702  0.0811 -0.3619 -0.3883
   23DOPE   H9X 2940   3.705   0.947   5.724  0.4330 -0.4440  1.5471
   23DOPE  C310 2941   3.843   0.875   5.581 -0.1276  0.1365 -0.1334
   23DOPE  H10X 2942   3.781   0.902   5.493 -0.8119  2.4658  0.9661
   23DOPE  C311 2943   3.970   0.815   5.535 -0.7421  0.7083 -0.0634
   23DOPE  H11X 2944   4.030   0.790   5.626  0.5930  0.4698 -0.9800
   23DOPE  H11Y 2945   3.950   0.711   5.499 -2.6560 -0.3403  3.5442
   23DOPE  C312 2946   4.059   0.892   5.445  0.6243 -0.4090  0.4183
   23DOPE  H12X 2947   4.158   0.841   5.446  0.0214 -1.6986 -0.8837
   23DOPE  H12Y 2948   4.057   1.001   5.465 -2.1156 -0.0063 -1.4954
   23DOPE  C313 2949   4.009   0.890   5.301  0.7503  0.5526 -0.2656
   23DOPE  H13X 2950   3.946   0.804   5.272 -1.0362  1.8660 -0.5051
   23DOPE  H13Y 2951   3.950   0.982   5.281 -1.3158 -0.2631  1.6985
   23DOPE  C314 2952   4.121   0.910   5.200  0.2007  0.7290  0.4368
   23DOPE  H14X 2953   4.196   0.974   5.251  0.1308  1.9954 -0.9658
   23DOPE  H14Y 2954   4.075   0.956   5.109  0.4840 -1.2924 -0.7885
   23DOPE  C315 2955   4.196   0.771   5.173 -0.0243 -0.5154  0.2043
   23DOPE  H15X 2956   4.126   0.704   5.120  0.6297  1.3488 -3.3089
   23DOPE  H15Y 2957   4.211   0.726   5.274 -2.2499 -0.8357  0.4379
   23DOPE  C316 2958   4.329   0.796   5.101 -0.3235  0.2192  0.2945
   23DOPE  H16X 2959   4.393   0.862   5.164 -1.3387  2.1911 -0.6223
   23DOPE  H16Y 2960   4.299   0.844   5.006  1.1621  1.1873  0.2716
   23DOPE  C317 2961   4.401   0.664   5.063 -0.2111 -0.6947  0.4309
   23DOPE  H17X 2962   4.435   0.617   5.158 -1.3517 -3.2269 -0.3283
   23DOPE  H17Y 2963   4.336   0.585   5.021  0.4220 -1.0227  0.0455
   23DOPE  C318 2964   4.518   0.681   4.972 -0.2683 -0.1097  0.6401
   23DOPE  H18X 2965   4.487   0.717   4.871 -2.7610 -0.3610  1.2553
   23DOPE  H18Y 2966   4.605   0.732   5.020  0.5895 -0.4399 -0.5227
   23DOPE  H18Z 2967   4.560   0.584   4.940  1.7835  0.9799 -0.1851
   24DOPE     N 2968   6.991   6.408   7.533  0.0332  0.1400 -0.2298
   24DOPE   HN1 2969   7.088   6.409   7.495  0.7982 -0.9149  1.5427
   24DOPE   HN2 2970   6.946   6.501   7.536 -3.3239 -1.3658  0.2786
   24DOPE   HN3 2971   7.013   6.392   7.633 -0.6859  0.5498 -0.0022
   24DOPE   C12 2972   6.903   6.298   7.471  0.0731 -0.2941  0.6630
   24DOPE  H12A 2973   6.942   6.204   7.515  1.8092 -0.7539 -1.6817
   24DOPE  H12B 2974   6.924   6.292   7.362 -0.9718 -0.0380  0.4267
   24DOPE   C11 2975   6.753   6.332   7.512 -0.4503  0.0777 -0.3046
   24DOPE  H11A 2976   6.739   6.338   7.622  0.0961 -2.4013 -0.0437
   24DOPE  H11B 2977   6.696   6.237   7.500 -3.7274  1.7551  0.7260
   24DOPE     P 2978   6.542   6.437   7.400  0.6586 -0.1612  0.1326
   24DOPE   O13 2979   6.508   6.561   7.330  0.0652  0.1393 -0.0902
   24DOPE   O14 2980   6.460   6.406   7.514  0.6502 -0.7152 -0.2112
   24DOPE   O11 2981   6.542   6.302   7.312 -0.2203 -0.1623 -0.3991
   24DOPE   O12 2982   6.694   6.441   7.443  0.3245 -0.5514 -0.2543
   24DOPE    C1 2983   6.470   6.276   7.190 -0.3816 -1.1140  0.1961
   24DOPE    HA 2984   6.557   6.248   7.126  0.2975 -0.9738  1.0397
   24DOPE    HB 2985   6.419   6.367   7.154 -0.9942 -1.0118  1.2799
   24DOPE    C2 2986   6.364   6.170   7.211  0.0996  0.8083 -0.5386
   24DOPE    HS 2987   6.337   6.179   7.318  2.0522  0.0491  0.0669
   24DOPE   O21 2988   6.427   6.041   7.192  0.0898  0.6767 -1.1382
   24DOPE   C21 2989   6.380   5.934   7.250  0.2581 -0.1268  0.4257
   24DOPE   O22 2990   6.275   5.922   7.315 -0.0731  0.0350 -0.3960
   24DOPE   C22 2991   6.478   5.820   7.234 -0.3867 -0.3469 -0.0292
   24DOPE   H2R 2992   6.483   5.762   7.330  0.6060 -1.0920 -0.5147
   24DOPE   H2S 2993   6.581   5.859   7.220 -0.4856 -0.5532 -1.4693
   24DOPE    C3 2994   6.238   6.179   7.130  0.0133 -0.5227 -0.6967
   24DOPE    HX 2995   6.203   6.282   7.110 -1.0656 -0.8722 -0.6716
   24DOPE    HY 2996   6.154   6.134   7.186 -1.9823  2.9935 -0.6364
   24DOPE   O31 2997   6.252   6.109   7.003  0.1093 -0.3456  0.2790
   24DOPE   C31 2998   6.306   6.179   6.905  0.0822 -0.2447 -0.3104
   24DOPE   O32 2999   6.345   6.292   6.906  0.0578 -0.1691  0.5543
   24DOPE   C32 3000   6.278   6.100   6.776 -0.4292  0.3767 -0.1210
   24DOPE   H2X 3001   6.358   6.023   6.778 -1.6325 -0.9101  1.1852
   24DOPE   H2Y 3002   6.184   6.041   6.784 -0.7504  0.4817 -2.4056
   24DOPE   C23 3003   6.439   5.721   7.124  0.9544  0.3516 -0.1724
   24DOPE   H3R 3004   6.329   5.705   7.130  0.8385  0.9842 -0.5103
   24DOPE   H3S 3005   6.487   5.621   7.134  0.1839  0.1679  2.7054
   24DOPE   C24 3006   6.486   5.782   6.994 -0.0893 -0.2292 -0.0412
   24DOPE   H4R 3007   6.593   5.810   7.006 -0.7431  1.5828  2.0667
   24DOPE   H4S 3008   6.444   5.885   6.984  1.5781  0.4594 -0.2230
   24DOPE   C25 3009   6.463   5.696   6.872 -0.2710  0.2793 -0.6006
   24DOPE   H5R 3010   6.358   5.665   6.856 -0.6373  0.9877  0.3070
   24DOPE   H5S 3011   6.519   5.602   6.889  0.8179  0.7951 -1.2347
   24DOPE   C26 3012   6.515   5.750   6.739  0.5664 -0.5496 -0.2224
   24DOPE   H6R 3013   6.626   5.746   6.745  0.6976 -0.0846 -1.8362
   24DOPE   H6S 3014   6.475   5.851   6.714 -0.6774 -1.3831 -1.7441
   24DOPE   C27 3015   6.467   5.663   6.618 -0.7936  0.0354 -0.8255
   24DOPE   H7R 3016   6.357   5.677   6.622 -0.9047 -0.8597 -0.4038
   24DOPE   H7S 3017   6.495   5.558   6.645  0.4246  0.7226  0.8072
   24DOPE   C28 3018   6.523   5.707   6.481  0.2371  0.8352  0.2210
   24DOPE   H8R 3019   6.468   5.797   6.447  1.2967  1.4067 -0.0390
   24DOPE   H8S 3020   6.492   5.628   6.410  1.5103 -1.5027  2.1261
   24DOPE   C29 3021   6.673   5.729   6.474  0.1294  0.0381 -0.7469
   24DOPE   H9R 3022   6.714   5.820   6.519  0.9038 -0.0550 -1.2500
   24DOPE  C210 3023   6.756   5.653   6.400  0.2046 -0.5815 -0.1198
   24DOPE  H10R 3024   6.862   5.678   6.413  0.2091 -0.7184  0.1011
   24DOPE  C211 3025   6.717   5.540   6.306  0.5987 -0.8867 -0.1187
   24DOPE  H11R 3026   6.609   5.516   6.308  0.0997  1.2851  1.1590
   24DOPE  H11S 3027   6.766   5.451   6.352  0.1135 -2.1958 -2.0293
   24DOPE  C212 3028   6.757   5.566   6.153  0.0708  0.8649 -0.1088
   24DOPE  H12R 3029   6.684   5.517   6.084 -1.3162  0.4536  1.5866
   24DOPE  H12S 3030   6.858   5.522   6.136  0.3522  1.6852 -0.5809
   24DOPE  C213 3031   6.754   5.711   6.107 -0.1977 -0.9266 -0.6970
   24DOPE  H13R 3032   6.851   5.760   6.133 -0.2753 -0.1093 -1.8862
   24DOPE  H13S 3033   6.672   5.771   6.151 -1.3191 -1.6947 -1.6686
   24DOPE  C214 3034   6.737   5.724   5.952 -0.1405  0.4615 -0.2139
   24DOPE  H14R 3035   6.685   5.820   5.933  2.6194  1.8174 -1.3534
   24DOPE  H14S 3036   6.672   5.637   5.924  2.2207 -1.7815  0.8974
   24DOPE  C215 3037   6.872   5.729   5.882 -0.2267  0.4570 -0.5232
   24DOPE  H15R 3038   6.940   5.646   5.911  1.0789  1.6267 -0.1318
   24DOPE  H15S 3039   6.928   5.821   5.908 -0.2898  0.2964  0.2112
   24DOPE  C216 3040   6.867   5.711   5.727 -0.1894  0.4111 -1.3330
   24DOPE  H16R 3041   6.811   5.619   5.701  0.4136 -0.0618 -0.9969
   24DOPE  H16S 3042   6.974   5.705   5.695  0.6903  4.0608  0.3679
   24DOPE  C217 3043   6.792   5.822   5.652  0.4011 -0.7421 -0.3726
   24DOPE  H17R 3044   6.683   5.828   5.670  0.8246 -0.9972  2.8055
   24DOPE  H17S 3045   6.808   5.794   5.545  0.9788 -1.2965 -0.1492
   24DOPE  C218 3046   6.856   5.959   5.673  0.5818 -0.1543  0.1253
   24DOPE  H18R 3047   6.830   6.009   5.769 -0.5000  3.4977 -1.8793
   24DOPE  H18S 3048   6.817   6.032   5.599 -2.7968 -2.2432 -0.3473
   24DOPE  H18T 3049   6.967   5.964   5.666  0.5531  0.1729 -0.1256
   24DOPE   C33 3050   6.286   6.168   6.644  0.2014 -0.9674 -0.2198
   24DOPE   H3X 3051   6.378   6.231   6.650 -0.0361 -0.6839  0.5647
   24DOPE   H3Y 3052   6.197   6.233   6.637  1.6338  1.6064  2.7811
   24DOPE   C34 3053   6.299   6.081   6.514 -0.1743 -0.6667  0.2310
   24DOPE   H4X 3054   6.399   6.035   6.504  0.2461  0.2911 -0.1531
   24DOPE   H4Y 3055   6.226   5.998   6.522 -2.2934  1.1098  0.6513
   24DOPE   C35 3056   6.276   6.162   6.389  0.0443 -0.6611  0.7272
   24DOPE   H5X 3057   6.345   6.248   6.373  1.5798 -2.1839 -1.6341
   24DOPE   H5Y 3058   6.170   6.194   6.400 -0.9390 -3.5242  0.4087
   24DOPE   C36 3059   6.285   6.077   6.258  0.3084  0.3028 -0.0024
   24DOPE   H6X 3060   6.224   6.125   6.179  0.2584  1.8403  0.9268
   24DOPE   H6Y 3061   6.235   5.979   6.264  0.8442 -0.1139 -1.7335
   24DOPE   C37 3062   6.424   6.041   6.204 -0.2828 -0.4069  0.1529
   24DOPE   H7X 3063   6.470   5.967   6.273 -0.1143 -1.2920 -0.8897
   24DOPE   H7Y 3064   6.398   5.997   6.106  1.9130  2.0356 -1.6780
   24DOPE   C38 3065   6.514   6.166   6.174  0.2729 -0.2445  0.1041
   24DOPE   H8X 3066   6.544   6.206   6.273 -0.6211  0.9880 -0.1023
   24DOPE   H8Y 3067   6.464   6.241   6.109  1.0556 -0.5666 -0.8905
   24DOPE   C39 3068   6.631   6.112   6.098  0.2100 -0.0464  0.1985
   24DOPE   H9X 3069   6.674   6.023   6.147 -0.8007 -1.0177 -0.6525
   24DOPE  C310 3070   6.690   6.145   5.975  0.2182  0.0367  0.1429
   24DOPE  H10X 3071   6.775   6.080   5.950  0.2977  0.1974 -0.0040
   24DOPE  C311 3072   6.642   6.245   5.870 -1.4903 -0.0670 -0.8807
   24DOPE  H11X 3073   6.572   6.319   5.915 -3.1616 -1.2840 -1.3458
   24DOPE  H11Y 3074   6.737   6.289   5.834 -1.6673  1.6787  0.6530
   24DOPE  C312 3075   6.559   6.191   5.753 -0.3804 -0.0776  0.0644
   24DOPE  H12X 3076   6.623   6.117   5.701  1.2090  1.7406 -0.6568
   24DOPE  H12Y 3077   6.534   6.281   5.692 -1.9599  0.6637  1.7002
   24DOPE  C313 3078   6.424   6.131   5.799 -0.1247 -0.0258  0.3069
   24DOPE  H13X 3079   6.452   6.034   5.844  2.4880  1.9363  3.3342
   24DOPE  H13Y 3080   6.382   6.189   5.885 -1.1529 -0.9092  0.4165
   24DOPE  C314 3081   6.329   6.123   5.675  0.8797  1.1700  0.1755
   24DOPE  H14X 3082   6.373   6.057   5.597  1.3680 -0.4168  1.7060
   24DOPE  H14Y 3083   6.312   6.225   5.636  1.7431  1.1078 -0.3994
   24DOPE  C315 3084   6.193   6.060   5.719  0.2460  0.4842 -0.3742
   24DOPE  H15X 3085   6.211   5.963   5.771 -0.1808  1.4523  1.6589
   24DOPE  H15Y 3086   6.130   6.044   5.628 -1.1383 -2.0174  0.9097
   24DOPE  C316 3087   6.119   6.168   5.806  0.4906  0.6286  0.2515
   24DOPE  H16X 3088   6.129   6.263   5.750 -0.7351 -0.7305 -2.4545
   24DOPE  H16Y 3089   6.166   6.169   5.907 -1.7683  0.8415  1.3588
   24DOPE  C317 3090   5.966   6.138   5.817 -0.5911  0.3227 -0.8214
   24DOPE  H17X 3091   5.927   6.240   5.837  1.0050  0.3860  2.5082
   24DOPE  H17Y 3092   5.923   6.116   5.717 -0.4462 -1.6106 -0.4997
   24DOPE  C318 3093   5.927   6.036   5.922 -0.3222  0.3581  0.4604
   24DOPE  H18X 3094   5.980   5.939   5.910 -1.6054 -0.1833 -1.3871
   24DOPE  H18Y 3095   5.936   6.071   6.027  1.9468 -0.0590  0.4615
   24DOPE  H18Z 3096   5.819   6.012   5.913 -0.0603 -1.0526  0.7473
   25DOPE     N 3097   7.231   6.690   6.899  0.3968 -0.4566 -0.3168
   25DOPE   HN1 3098   7.182   6.708   6.989  0.4974  0.2357 -0.4000
   25DOPE   HN2 3099   7.334   6.686   6.914  0.9479  1.9167 -2.7028
   25DOPE   HN3 3100   7.224   6.778   6.844  0.3765  0.8286  1.6627
   25DOPE   C12 3101   7.175   6.573   6.819 -0.0209 -0.3513  0.5799
   25DOPE  H12A 3102   7.071   6.598   6.789  0.0304 -0.1798  0.5447
   25DOPE  H12B 3103   7.177   6.489   6.891  0.1383  1.0669  2.3141
   25DOPE   C11 3104   7.259   6.554   6.697 -0.6124  0.1500  0.6270
   25DOPE  H11A 3105   7.291   6.648   6.646 -0.2213 -0.9226 -1.1675
   25DOPE  H11B 3106   7.206   6.492   6.623  0.4574 -0.3252  0.2405
   25DOPE     P 3107   7.388   6.328   6.740 -0.1746  0.5044  0.1054
   25DOPE   O13 3108   7.290   6.258   6.823  0.1240 -0.2427  0.1587
   25DOPE   O14 3109   7.530   6.293   6.754 -0.3586 -0.1509  0.1564
   25DOPE   O11 3110   7.349   6.292   6.593 -0.2622 -0.0436 -0.5129
   25DOPE   O12 3111   7.376   6.487   6.746 -0.3045  0.1686 -0.2595
   25DOPE    C1 3112   7.417   6.332   6.477 -0.8701 -0.1957  0.3031
   25DOPE    HA 3113   7.467   6.431   6.485  0.2805 -0.6134 -1.2301
   25DOPE    HB 3114   7.334   6.337   6.403 -1.5503 -3.0284  0.7546
   25DOPE    C2 3115   7.507   6.212   6.430 -0.1930 -0.3026  0.3408
   25DOPE    HS 3116   7.583   6.200   6.511  1.7182 -1.6518 -1.5155
   25DOPE   O21 3117   7.556   6.243   6.301  0.0577 -0.3331  0.4101
   25DOPE   C21 3118   7.688   6.236   6.291 -0.0514 -0.5442 -0.1266
   25DOPE   O22 3119   7.766   6.238   6.387  0.0010 -0.5495  0.5792
   25DOPE   C22 3120   7.730   6.228   6.147 -0.4740 -0.1294  0.5915
   25DOPE   H2R 3121   7.838   6.253   6.142 -0.5258 -0.1373 -0.8491
   25DOPE   H2S 3122   7.673   6.306   6.093 -2.2177 -0.6470  1.6202
   25DOPE    C3 3123   7.435   6.083   6.412  0.0995  1.0521  0.1214
   25DOPE    HX 3124   7.357   6.079   6.333  0.6804 -1.0341 -0.4073
   25DOPE    HY 3125   7.388   6.069   6.512  1.3787  0.5806  0.6827
   25DOPE   O31 3126   7.531   5.978   6.384  0.3800 -0.5571  0.5175
   25DOPE   C31 3127   7.493   5.858   6.418 -0.9714  0.6946 -0.4873
   25DOPE   O32 3128   7.415   5.825   6.502 -0.0452  0.4391  0.2229
   25DOPE   C32 3129   7.581   5.757   6.341  0.0805 -0.3334 -0.6034
   25DOPE   H2X 3130   7.561   5.759   6.232  1.8769 -2.1979 -1.0386
   25DOPE   H2Y 3131   7.690   5.780   6.350 -0.3515  1.0967  1.8310
   25DOPE   C23 3132   7.703   6.083   6.099 -0.1644  0.7858 -0.2353
   25DOPE   H3R 3133   7.595   6.058   6.091  0.0132  0.2157 -1.1207
   25DOPE   H3S 3134   7.753   6.008   6.164  0.4824  0.3777 -1.1747
   25DOPE   C24 3135   7.777   6.051   5.963 -0.0438 -0.4275 -0.6331
   25DOPE   H4R 3136   7.794   5.941   5.959  0.0199 -0.4889  0.8635
   25DOPE   H4S 3137   7.878   6.096   5.959 -0.2267  0.1500  0.7750
   25DOPE   C25 3138   7.703   6.089   5.834  0.4054 -0.0315  0.4557
   25DOPE   H5R 3139   7.657   6.190   5.851  1.3754  0.6798 -0.9696
   25DOPE   H5S 3140   7.638   6.001   5.814  2.6038 -2.0830  1.8870
   25DOPE   C26 3141   7.789   6.122   5.708  0.2935 -1.0391 -0.3690
   25DOPE   H6R 3142   7.875   6.053   5.719 -0.2754 -1.7477 -0.2407
   25DOPE   H6S 3143   7.829   6.223   5.732 -0.4157 -0.7229 -0.4863
   25DOPE   C27 3144   7.728   6.122   5.568  0.0423  0.3939  0.5130
   25DOPE   H7R 3145   7.632   6.177   5.576  0.1196  0.3234  2.3495
   25DOPE   H7S 3146   7.698   6.019   5.538  1.7610 -0.0366  0.1589
   25DOPE   C28 3147   7.817   6.183   5.465 -0.1378  0.0559  0.0494
   25DOPE   H8R 3148   7.873   6.261   5.520 -0.7101 -0.8131  1.9348
   25DOPE   H8S 3149   7.763   6.235   5.382  1.1003 -0.8600 -1.3848
   25DOPE   C29 3150   7.917   6.088   5.404  0.2974  0.3216 -0.0457
   25DOPE   H9R 3151   7.985   6.040   5.476 -1.0198  2.0335  2.5282
   25DOPE  C210 3152   7.910   6.041   5.275 -0.3380 -0.1180  0.7765
   25DOPE  H10R 3153   7.987   5.970   5.239 -2.0132 -0.4947 -2.4676
   25DOPE  C211 3154   7.809   6.074   5.169  0.0017  0.3831  1.1606
   25DOPE  H11R 3155   7.838   6.149   5.093  0.6146  1.6530  2.6016
   25DOPE  H11S 3156   7.722   6.120   5.221 -0.8238  2.1243 -1.5378
   25DOPE  C212 3157   7.762   5.938   5.100  0.2641  0.2692  0.7397
   25DOPE  H12R 3158   7.735   5.857   5.171 -0.8246  1.3838  1.6437
   25DOPE  H12S 3159   7.839   5.900   5.029  0.9840  3.1420 -0.1754
   25DOPE  C213 3160   7.639   5.962   5.011 -0.1421 -0.4184  0.3879
   25DOPE  H13R 3161   7.636   5.882   4.934  2.3280 -0.4736  0.2688
   25DOPE  H13S 3162   7.659   6.058   4.959 -0.1427  1.7121  3.9748
   25DOPE  C214 3163   7.503   5.966   5.098 -0.2809 -0.1025  0.1101
   25DOPE  H14R 3164   7.522   6.058   5.158  1.8120  0.4974 -1.3586
   25DOPE  H14S 3165   7.507   5.871   5.154 -0.4333  0.6558  1.4538
   25DOPE  C215 3166   7.380   5.985   5.011 -0.7283 -0.5089  0.0934
   25DOPE  H15R 3167   7.374   6.082   4.958 -1.5210 -0.6466 -0.0873
   25DOPE  H15S 3168   7.291   5.993   5.077  1.5689 -1.0059  3.4982
   25DOPE  C216 3169   7.359   5.870   4.913  0.0210  0.5259 -0.5953
   25DOPE  H16R 3170   7.352   5.783   4.982 -1.3898  1.4550  0.4996
   25DOPE  H16S 3171   7.444   5.850   4.845 -0.2305  0.7946 -0.9943
   25DOPE  C217 3172   7.234   5.874   4.832 -0.2699  0.1116 -0.3013
   25DOPE  H17R 3173   7.250   5.958   4.761 -0.0240  1.4943  1.3202
   25DOPE  H17S 3174   7.145   5.895   4.896  0.5772 -0.8052  1.2234
   25DOPE  C218 3175   7.207   5.745   4.759 -0.0905 -0.9480  0.2626
   25DOPE  H18R 3176   7.108   5.759   4.711  0.3597  1.2040 -0.1458
   25DOPE  H18S 3177   7.209   5.659   4.829 -0.4772 -0.6143  0.6889
   25DOPE  H18T 3178   7.280   5.731   4.676  0.8842 -0.6075  1.0510
   25DOPE   C33 3179   7.554   5.604   6.387 -0.0326 -0.2663 -0.3475
   25DOPE   H3X 3180   7.482   5.554   6.319 -0.1698 -2.0514  1.0511
   25DOPE   H3Y 3181   7.522   5.608   6.493  0.4021 -0.4383 -0.2064
   25DOPE   C34 3182   7.685   5.520   6.385 -0.5153  0.3728  0.1447
   25DOPE   H4X 3183   7.757   5.576   6.448 -0.3606 -0.2751  0.5567
   25DOPE   H4Y 3184   7.655   5.419   6.419 -3.8359 -0.6020 -4.5849
   25DOPE   C35 3185   7.747   5.510   6.247 -0.1356  0.6548  0.3179
   25DOPE   H5X 3186   7.775   5.609   6.203  1.3879  0.4109  0.6831
   25DOPE   H5Y 3187   7.664   5.462   6.191 -1.3735  1.1715  1.6599
   25DOPE   C36 3188   7.860   5.410   6.235  0.2826 -0.1682  0.4733
   25DOPE   H6X 3189   7.831   5.322   6.297  0.2918  0.3145  1.1693
   25DOPE   H6Y 3190   7.953   5.454   6.275 -0.4243 -0.4489  2.5560
   25DOPE   C37 3191   7.892   5.362   6.094 -0.3717 -0.3729 -0.0785
   25DOPE   H7X 3192   7.801   5.328   6.041  0.5036  3.0107 -4.3339
   25DOPE   H7Y 3193   7.924   5.447   6.030 -2.1383  1.1867  1.0063
   25DOPE   C38 3194   7.986   5.250   6.099 -1.0409  0.5660  0.4335
   25DOPE   H8X 3195   7.994   5.200   6.000  1.3473  1.8501 -0.1082
   25DOPE   H8Y 3196   7.945   5.179   6.173 -1.1078 -0.7849 -0.8613
   25DOPE   C39 3197   8.127   5.295   6.145 -0.5545  1.3234  0.2448
   25DOPE   H9X 3198   8.143   5.263   6.250  0.8873  2.0098  0.2503
   25DOPE  C310 3199   8.221   5.366   6.086  0.2392  0.1926 -0.2977
   25DOPE  H10X 3200   8.324   5.378   6.121  1.0009 -0.0397 -2.2983
   25DOPE  C311 3201   8.218   5.420   5.948 -0.3305  0.3401  0.1156
   25DOPE  H11X 3202   8.120   5.402   5.900  0.5195  0.1534 -1.6266
   25DOPE  H11Y 3203   8.225   5.530   5.947 -1.8087  0.4410 -0.4272
   25DOPE  C312 3204   8.324   5.368   5.844 -0.5163 -0.2798  0.5827
   25DOPE  H12X 3205   8.308   5.262   5.813 -1.2206  0.0349 -0.1656
   25DOPE  H12Y 3206   8.423   5.380   5.893  0.4641  0.2263 -1.4161
   25DOPE  C313 3207   8.334   5.452   5.717  0.3557  0.0685  1.0556
   25DOPE  H13X 3208   8.250   5.424   5.649  0.0902  1.1941  0.9014
   25DOPE  H13Y 3209   8.328   5.561   5.736  0.2922  0.3425 -0.4035
   25DOPE  C314 3210   8.457   5.426   5.632 -0.5605 -0.2126 -0.0469
   25DOPE  H14X 3211   8.471   5.316   5.635 -1.6531 -0.3510  1.0687
   25DOPE  H14Y 3212   8.543   5.471   5.686 -0.0206 -0.0912 -0.9960
   25DOPE  C315 3213   8.454   5.463   5.487 -0.4008  0.1619  0.4114
   25DOPE  H15X 3214   8.419   5.567   5.472 -1.5352 -0.5121 -2.1305
   25DOPE  H15Y 3215   8.390   5.392   5.430  0.8212 -0.8264  0.2174
   25DOPE  C316 3216   8.589   5.454   5.411 -0.2914  0.5941 -0.0340
   25DOPE  H16X 3217   8.654   5.517   5.475 -0.0461  0.7945 -0.4734
   25DOPE  H16Y 3218   8.579   5.486   5.305 -1.7038  1.5816  0.3813
   25DOPE  C317 3219   8.651   5.308   5.412 -0.3593  0.1330  0.1192
   25DOPE  H17X 3220   8.761   5.321   5.415 -0.1711 -1.5628  1.5009
   25DOPE  H17Y 3221   8.629   5.262   5.510  1.5147  0.9758  0.9768
   25DOPE  C318 3222   8.614   5.216   5.301 -0.1566  0.1457  0.2317
   25DOPE  H18X 3223   8.678   5.250   5.217  0.2955 -0.7282  0.2172
   25DOPE  H18Y 3224   8.635   5.109   5.322  2.1288  0.5144  0.1188
   25DOPE  H18Z 3225   8.507   5.225   5.273  0.0761  1.3264 -0.3360
   26DOPE     N 3226   1.257   6.341   7.405 -0.5049  0.7852 -0.5338
   26DOPE   HN1 3227   1.283   6.431   7.451 -0.1851  0.6776 -0.5060
   26DOPE   HN2 3228   1.239   6.274   7.482  0.7487  0.1070 -0.8040
   26DOPE   HN3 3229   1.328   6.309   7.336 -1.8857  2.6942 -3.0183
   26DOPE   C12 3230   1.135   6.368   7.321  0.7127  0.3373 -0.8895
   26DOPE  H12A 3231   1.061   6.419   7.387 -1.3562 -2.9751 -0.3880
   26DOPE  H12B 3232   1.082   6.271   7.307 -0.6684  0.9527 -0.1394
   26DOPE   C11 3233   1.162   6.426   7.185 -0.2919 -0.3949 -0.0401
   26DOPE  H11A 3234   1.174   6.536   7.194  0.7550 -0.4138 -1.0018
   26DOPE  H11B 3235   1.073   6.419   7.119 -0.0973 -0.0240 -0.3476
   26DOPE     P 3236   1.368   6.437   7.008  0.3853 -0.4012  0.1229
   26DOPE   O13 3237   1.477   6.334   6.983 -0.3720  0.2184  0.5282
   26DOPE   O14 3238   1.399   6.574   7.044 -0.6829 -0.4180  0.3760
   26DOPE   O11 3239   1.278   6.433   6.882  0.7873  0.0987 -0.1130
   26DOPE   O12 3240   1.281   6.368   7.128  0.2816  0.5187 -0.7508
   26DOPE    C1 3241   1.174   6.334   6.856 -0.0435 -0.4862  0.6510
   26DOPE    HA 3242   1.095   6.337   6.934 -0.9653  0.1330 -0.2899
   26DOPE    HB 3243   1.231   6.239   6.861 -0.0701 -0.5604 -0.2767
   26DOPE    C2 3244   1.118   6.365   6.714  0.2571 -0.8377  0.3117
   26DOPE    HS 3245   1.046   6.287   6.682  0.5670 -1.1940  0.4598
   26DOPE   O21 3246   1.220   6.380   6.614  0.2037  0.0219  0.2706
   26DOPE   C21 3247   1.271   6.269   6.568  0.6298 -0.2832  0.4057
   26DOPE   O22 3248   1.249   6.153   6.612 -0.0135  0.0002 -0.0287
   26DOPE   C22 3249   1.366   6.299   6.449 -0.2826 -0.1353 -0.1408
   26DOPE   H2R 3250   1.454   6.232   6.457  0.4181  0.7794  0.0532
   26DOPE   H2S 3251   1.408   6.402   6.455 -0.4271  0.0057 -1.2749
   26DOPE    C3 3252   1.038   6.502   6.710  0.1760  0.4210 -0.3948
   26DOPE    HX 3253   1.106   6.578   6.754  0.5953 -0.5899  0.7655
   26DOPE    HY 3254   0.958   6.487   6.785  0.6194  0.7892  0.1566
   26DOPE   O31 3255   0.990   6.535   6.581 -0.1272  0.2324  0.5046
   26DOPE   C31 3256   0.855   6.522   6.566  0.1048 -0.5307 -0.4211
   26DOPE   O32 3257   0.768   6.506   6.653  0.2513  0.5151  0.3352
   26DOPE   C32 3258   0.834   6.587   6.427  0.1178 -0.3357  0.2949
   26DOPE   H2X 3259   0.894   6.679   6.415 -0.9063  0.4716  1.1807
   26DOPE   H2Y 3260   0.879   6.513   6.358  1.2009  0.2555  0.3437
   26DOPE   C23 3261   1.306   6.274   6.310  0.2132 -0.1330  0.3766
   26DOPE   H3R 3262   1.222   6.344   6.291  0.7556  0.4845  0.1896
   26DOPE   H3S 3263   1.265   6.171   6.304 -1.3633  0.5090 -0.4640
   26DOPE   C24 3264   1.422   6.291   6.204  0.6134  0.2728  0.3937
   26DOPE   H4R 3265   1.491   6.211   6.238 -0.0853 -0.1630  0.8053
   26DOPE   H4S 3266   1.459   6.393   6.229 -1.0462  1.6060 -2.1266
   26DOPE   C25 3267   1.376   6.279   6.059  0.0219  0.4985 -0.4348
   26DOPE   H5R 3268   1.302   6.357   6.033 -0.6316 -0.7159 -2.4849
   26DOPE   H5S 3269   1.328   6.180   6.042 -0.6733  0.0461  3.3971
   26DOPE   C26 3270   1.491   6.301   5.955  0.0066  0.4679  0.4376
   26DOPE   H6R 3271   1.443   6.269   5.860 -0.7752  1.0581  0.6205
   26DOPE   H6S 3272   1.588   6.251   5.980  0.8557  1.1218 -1.3945
   26DOPE   C27 3273   1.530   6.445   5.949 -0.6634 -0.9895  0.1194
   26DOPE   H7R 3274   1.551   6.487   6.050  1.3102  1.8220 -1.3040
   26DOPE   H7S 3275   1.444   6.503   5.909  1.9557  1.4846 -2.3837
   26DOPE   C28 3276   1.650   6.471   5.853 -0.2789 -0.1732 -0.0040
   26DOPE   H8R 3277   1.732   6.410   5.895 -0.1366 -0.1134 -0.1943
   26DOPE   H8S 3278   1.676   6.579   5.865 -1.0282 -0.1060  1.2899
   26DOPE   C29 3279   1.624   6.417   5.716  0.6416  0.2377 -0.1801
   26DOPE   H9R 3280   1.646   6.310   5.715 -1.7862 -0.3227 -1.6382
   26DOPE  C210 3281   1.569   6.475   5.609  0.3896 -0.5067 -0.5693
   26DOPE  H10R 3282   1.552   6.418   5.516 -1.0465 -0.3615 -0.4170
   26DOPE  C211 3283   1.518   6.617   5.596 -0.1507  0.4356  0.1150
   26DOPE  H11R 3284   1.586   6.677   5.532  1.1278 -1.3947 -0.3246
   26DOPE  H11S 3285   1.512   6.660   5.699 -0.2073  0.3221  0.1582
   26DOPE  C212 3286   1.372   6.612   5.552 -0.5572  0.3107 -0.1732
   26DOPE  H12R 3287   1.317   6.544   5.620  1.5446 -0.3946  0.9140
   26DOPE  H12S 3288   1.366   6.568   5.450  2.6036  0.7129 -0.6184
   26DOPE  C213 3289   1.307   6.753   5.553 -0.2718 -0.0147 -0.1622
   26DOPE  H13R 3290   1.363   6.816   5.481 -0.2261 -0.4642 -0.5241
   26DOPE  H13S 3291   1.332   6.793   5.654  0.6604  1.5997 -0.9982
   26DOPE  C214 3292   1.159   6.758   5.517 -0.2992  0.2845 -0.0030
   26DOPE  H14R 3293   1.128   6.865   5.508 -1.5504 -0.1591 -1.4939
   26DOPE  H14S 3294   1.105   6.710   5.602  1.6842 -1.3036  0.4181
   26DOPE  C215 3295   1.124   6.680   5.388 -0.4293  0.2813  0.4974
   26DOPE  H15R 3296   1.106   6.575   5.419  1.5447 -0.6768 -1.3448
   26DOPE  H15S 3297   1.206   6.696   5.316  0.3569  1.0136  1.5160
   26DOPE  C216 3298   1.002   6.744   5.332 -0.0329  1.4478  0.1506
   26DOPE  H16R 3299   1.026   6.843   5.287 -1.2068  2.3355  1.3691
   26DOPE  H16S 3300   0.924   6.761   5.410  0.9058  2.6021  0.8832
   26DOPE  C217 3301   0.933   6.671   5.218  0.1391 -0.0370 -0.0303
   26DOPE  H17R 3302   0.847   6.736   5.195  0.4022  0.1877 -0.3780
   26DOPE  H17S 3303   0.897   6.570   5.248 -1.9910 -0.3458 -3.1182
   26DOPE  C218 3304   1.013   6.675   5.090  0.2829  0.1116  0.0403
   26DOPE  H18R 3305   1.106   6.615   5.086 -0.3862 -0.8719 -2.0995
   26DOPE  H18S 3306   1.037   6.776   5.052 -1.2633  0.3246 -0.4427
   26DOPE  H18T 3307   0.943   6.629   5.017  1.0651 -1.0832  0.0044
   26DOPE   C33 3308   0.684   6.610   6.409  0.1651 -0.9620  0.3909
   26DOPE   H3X 3309   0.677   6.704   6.467  0.5488 -0.8874  0.3231
   26DOPE   H3Y 3310   0.621   6.532   6.456  0.6041  0.1710  3.0525
   26DOPE   C34 3311   0.637   6.652   6.263 -1.0463 -0.1009 -0.7760
   26DOPE   H4X 3312   0.650   6.565   6.196 -0.8323  1.1718 -2.4416
   26DOPE   H4Y 3313   0.527   6.663   6.275 -0.8929 -0.4262  1.4309
   26DOPE   C35 3314   0.700   6.775   6.209 -0.0326  0.0476 -0.1461
   26DOPE   H5X 3315   0.809   6.756   6.195  0.8719  3.4707  1.1448
   26DOPE   H5Y 3316   0.689   6.865   6.272  0.3055 -0.3896  0.5520
   26DOPE   C36 3317   0.644   6.796   6.069 -0.3171 -0.5839  0.3101
   26DOPE   H6X 3318   0.535   6.777   6.055  0.0113 -2.1987 -0.2668
   26DOPE   H6Y 3319   0.696   6.713   6.016 -0.6065 -0.4086 -0.2620
   26DOPE   C37 3320   0.690   6.936   6.015  0.1789  0.2592  0.5096
   26DOPE   H7X 3321   0.627   7.014   6.062 -0.0928  0.8379 -0.7669
   26DOPE   H7Y 3322   0.792   6.964   6.051  0.5796 -0.5628  0.0435
   26DOPE   C38 3323   0.684   6.947   5.867 -0.5037  0.0259  1.4066
   26DOPE   H8X 3324   0.710   7.053   5.847 -1.8931  0.2052  0.3705
   26DOPE   H8Y 3325   0.580   6.938   5.829  0.3365  0.3078 -1.1950
   26DOPE   C39 3326   0.785   6.852   5.802 -0.0654 -0.2528  0.3261
   26DOPE   H9X 3327   0.760   6.746   5.817  0.4904 -0.3136  0.8973
   26DOPE  C310 3328   0.898   6.887   5.739  0.3622 -0.2162 -0.0330
   26DOPE  H10X 3329   0.947   6.809   5.678 -1.0142 -0.4029 -0.9688
   26DOPE  C311 3330   0.942   7.025   5.696  0.3669  0.4827 -0.1467
   26DOPE  H11X 3331   0.894   7.112   5.746 -0.1853  1.1562 -1.7890
   26DOPE  H11Y 3332   1.051   7.029   5.720 -0.0335 -0.2653  1.9303
   26DOPE  C312 3333   0.932   7.061   5.547 -0.1928 -0.5389  0.3271
   26DOPE  H12X 3334   0.966   6.984   5.474 -1.5580 -0.2839 -0.6168
   26DOPE  H12Y 3335   0.986   7.157   5.532 -0.7976 -0.2359  0.0365
   26DOPE  C313 3336   0.783   7.099   5.517  0.2193 -0.3172 -0.0192
   26DOPE  H13X 3337   0.723   7.009   5.540  1.6840 -1.5061 -0.6182
   26DOPE  H13Y 3338   0.747   7.175   5.589 -1.0570 -1.5813  0.7256
   26DOPE  C314 3339   0.759   7.123   5.369  0.6178 -0.2580  0.6415
   26DOPE  H14X 3340   0.649   7.136   5.359  0.5886 -1.7123 -2.0104
   26DOPE  H14Y 3341   0.796   7.033   5.314 -1.4419 -1.0619  0.4446
   26DOPE  C315 3342   0.824   7.249   5.317 -0.0445  0.5544  0.2210
   26DOPE  H15X 3343   0.932   7.228   5.299 -0.2313  0.4644 -0.8362
   26DOPE  H15Y 3344   0.807   7.337   5.383  2.7759  0.8635  0.6438
   26DOPE  C316 3345   0.781   7.281   5.175  0.3589  0.3728 -0.2213
   26DOPE  H16X 3346   0.673   7.269   5.152 -0.1053  0.6028  1.6144
   26DOPE  H16Y 3347   0.833   7.202   5.118 -0.4615  0.5553 -1.2548
   26DOPE  C317 3348   0.812   7.423   5.131 -0.6378 -1.3924  0.5498
   26DOPE  H17X 3349   0.763   7.495   5.201  1.1206  0.0102  0.4145
   26DOPE  H17Y 3350   0.920   7.448   5.145 -0.7630  1.1968 -2.2339
   26DOPE  C318 3351   0.748   7.457   5.006 -0.3215  0.6569  0.3651
   26DOPE  H18X 3352   0.782   7.558   4.974  0.0885  0.3316 -0.2282
   26DOPE  H18Y 3353   0.775   7.380   4.930  2.2722 -1.1156  2.8555
   26DOPE  H18Z 3354   0.639   7.469   5.024 -0.8012 -2.3695 -0.0464
   27DOPE     N 3355   4.964   0.152   6.939  0.4911 -0.2344 -0.3833
   27DOPE   HN1 3356   5.046   0.194   6.987  1.3724 -1.1643 -1.0499
   27DOPE   HN2 3357   4.949   0.051   6.960  0.6665 -0.3566 -0.8490
   27DOPE   HN3 3358   4.983   0.162   6.838 -0.6303 -1.3508 -0.7274
   27DOPE   C12 3359   4.835   0.236   6.970  0.7089 -0.7373  0.3983
   27DOPE  H12A 3360   4.853   0.325   6.906 -0.5123 -2.0328 -1.9024
   27DOPE  H12B 3361   4.835   0.262   7.078 -0.8818  3.1659 -0.3517
   27DOPE   C11 3362   4.714   0.161   6.921 -0.4117 -0.5564 -0.3314
   27DOPE  H11A 3363   4.624   0.223   6.900 -0.5929 -1.1083 -1.2077
   27DOPE  H11B 3364   4.689   0.086   6.998  0.9976 -1.0227 -0.2941
   27DOPE     P 3365   4.667  -0.047   6.775  0.2621 -0.2126 -0.3709
   27DOPE   O13 3366   4.522  -0.042   6.789 -0.0376 -0.2952  0.3952
   27DOPE   O14 3367   4.734  -0.149   6.862 -0.1204  0.6365 -0.2773
   27DOPE   O11 3368   4.705  -0.063   6.625 -0.2554 -0.3051  0.4937
   27DOPE   O12 3369   4.744   0.092   6.798 -0.0580  0.4302 -0.2321
   27DOPE    C1 3370   4.686  -0.198   6.570 -0.0159 -0.2452 -0.3030
   27DOPE    HA 3371   4.579  -0.228   6.559  0.1040 -0.5042 -0.7976
   27DOPE    HB 3372   4.737  -0.271   6.637  1.6328  1.8418  0.8281
   27DOPE    C2 3373   4.749  -0.218   6.430 -0.1543  0.1608 -0.4754
   27DOPE    HS 3374   4.754  -0.327   6.407 -0.1948 -0.1695  1.0089
   27DOPE   O21 3375   4.877  -0.151   6.418 -0.3785 -0.6457 -0.3910
   27DOPE   C21 3376   4.972  -0.219   6.482 -0.2644  0.1346  0.1858
   27DOPE   O22 3377   4.953  -0.330   6.538 -0.2317 -0.0461  0.1582
   27DOPE   C22 3378   5.115  -0.143   6.473 -0.3227  0.8279  0.0336
   27DOPE   H2R 3379   5.133  -0.097   6.573  1.1910 -0.1093  0.2241
   27DOPE   H2S 3380   5.100  -0.055   6.408 -0.9975  0.5273 -0.2224
   27DOPE    C3 3381   4.654  -0.154   6.328  0.3901  0.6464 -0.3902
   27DOPE    HX 3382   4.651  -0.050   6.367  0.0551  0.7375 -0.6589
   27DOPE    HY 3383   4.552  -0.197   6.334  0.2692  0.8129 -1.1571
   27DOPE   O31 3384   4.713  -0.178   6.196 -0.1484  0.1673 -0.2864
   27DOPE   C31 3385   4.699  -0.078   6.112  0.1422 -0.5115 -0.7320
   27DOPE   O32 3386   4.625   0.019   6.131 -0.1368 -0.3217 -0.0682
   27DOPE   C32 3387   4.775  -0.122   5.989 -0.1618 -0.1981 -0.6901
   27DOPE   H2X 3388   4.879  -0.154   6.013 -0.0086  0.5918 -0.2575
   27DOPE   H2Y 3389   4.725  -0.205   5.935  0.3120  0.4176 -2.1299
   27DOPE   C23 3390   5.235  -0.233   6.439  0.0981 -0.4988 -0.5396
   27DOPE   H3R 3391   5.242  -0.322   6.506  0.4815  3.1016  4.7752
   27DOPE   H3S 3392   5.329  -0.183   6.472  0.0278 -0.9912  0.4151
   27DOPE   C24 3393   5.239  -0.261   6.291  0.7769 -0.3539  0.4420
   27DOPE   H4R 3394   5.232  -0.158   6.251  1.0155 -0.1571  0.8920
   27DOPE   H4S 3395   5.152  -0.320   6.256  0.7995  0.3433 -0.8294
   27DOPE   C25 3396   5.377  -0.315   6.243  0.5490 -0.4926  0.3558
   27DOPE   H5R 3397   5.461  -0.246   6.268  0.0712  0.6654 -1.0469
   27DOPE   H5S 3398   5.371  -0.321   6.132  1.1706 -2.1210  0.3825
   27DOPE   C26 3399   5.409  -0.450   6.300 -0.1205 -0.0493 -0.0825
   27DOPE   H6R 3400   5.330  -0.524   6.275 -0.4915  0.2314  0.2539
   27DOPE   H6S 3401   5.421  -0.444   6.410  0.2602  0.5216 -0.1558
   27DOPE   C27 3402   5.542  -0.517   6.239  0.1219 -0.4415 -0.7474
   27DOPE   H7R 3403   5.511  -0.534   6.133 -1.9271  0.7916 -0.4080
   27DOPE   H7S 3404   5.564  -0.610   6.296  2.8465  1.9186  2.4217
   27DOPE   C28 3405   5.674  -0.439   6.243  0.4805 -0.5036  1.0574
   27DOPE   H8R 3406   5.647  -0.333   6.224  1.6557  0.1503  2.7906
   27DOPE   H8S 3407   5.734  -0.485   6.162 -0.7995 -4.3727  2.0894
   27DOPE   C29 3408   5.736  -0.444   6.380  0.1787  0.1417  0.3715
   27DOPE   H9R 3409   5.720  -0.360   6.450  2.9829  1.8610 -0.8797
   27DOPE  C210 3410   5.829  -0.538   6.420  0.1225  0.4878 -0.1639
   27DOPE  H10R 3411   5.843  -0.528   6.528 -0.5362  4.4028 -0.3074
   27DOPE  C211 3412   5.881  -0.663   6.349 -0.1013  0.0217  0.2661
   27DOPE  H11R 3413   5.980  -0.639   6.304 -0.1737 -1.2996 -0.6448
   27DOPE  H11S 3414   5.818  -0.699   6.266  2.0434  1.6652 -2.2429
   27DOPE  C212 3415   5.911  -0.785   6.439  1.0274  0.1005 -0.2641
   27DOPE  H12R 3416   5.930  -0.866   6.365  1.4680  0.2101 -0.2726
   27DOPE  H12S 3417   5.824  -0.817   6.500  1.6072  1.4152  1.3076
   27DOPE  C213 3418   6.039  -0.787   6.526  0.4051  0.1922 -0.0458
   27DOPE  H13R 3419   6.055  -0.893   6.556  1.8233 -0.0944 -1.6480
   27DOPE  H13S 3420   6.031  -0.725   6.617  0.3728 -0.2969  0.2855
   27DOPE  C214 3421   6.174  -0.754   6.454  0.0290  0.5467  0.7888
   27DOPE  H14R 3422   6.177  -0.648   6.421  1.0406  0.6601  1.2353
   27DOPE  H14S 3423   6.191  -0.822   6.368  0.5397 -0.1610  1.4381
   27DOPE  C215 3424   6.302  -0.768   6.546  0.7720 -0.0296 -0.2152
   27DOPE  H15R 3425   6.292  -0.679   6.611  0.5339  0.9010 -1.4852
   27DOPE  H15S 3426   6.383  -0.755   6.471  2.0995 -2.2191  0.7210
   27DOPE  C216 3427   6.332  -0.892   6.633  0.1876 -0.3758 -0.3765
   27DOPE  H16R 3428   6.264  -0.903   6.720  1.8620 -0.3065  0.9780
   27DOPE  H16S 3429   6.437  -0.888   6.667  0.3653 -0.0539 -0.9429
   27DOPE  C217 3430   6.318  -1.020   6.543  0.3620  0.1653  0.1765
   27DOPE  H17R 3431   6.399  -1.003   6.470  0.1848  1.8440  0.3263
   27DOPE  H17S 3432   6.229  -1.017   6.477  0.1285 -0.8976  0.4275
   27DOPE  C218 3433   6.319  -1.148   6.624 -0.5654 -0.6869  0.7963
   27DOPE  H18R 3434   6.355  -1.228   6.556  0.6377  0.0655  0.5207
   27DOPE  H18S 3435   6.214  -1.166   6.655 -1.0929 -0.8115 -0.9528
   27DOPE  H18T 3436   6.379  -1.138   6.717  1.2870 -1.3985 -0.2789
   27DOPE   C33 3437   4.786  -0.007   5.882 -0.5548 -0.1902 -0.1352
   27DOPE   H3X 3438   4.828   0.082   5.933 -1.9463 -0.0573  0.8346
   27DOPE   H3Y 3439   4.686   0.024   5.845 -0.3110  1.1812  0.3022
   27DOPE   C34 3440   4.893  -0.031   5.779 -0.2545  0.0021 -0.4809
   27DOPE   H4X 3441   4.984  -0.078   5.822 -0.2216  0.9792  0.5405
   27DOPE   H4Y 3442   4.854  -0.114   5.716 -2.3779 -1.9055  3.0346
   27DOPE   C35 3443   4.937   0.097   5.703  0.3564  0.1156  0.2838
   27DOPE   H5X 3444   4.987   0.169   5.772  0.1637  0.9344 -0.4122
   27DOPE   H5Y 3445   4.854   0.152   5.653  0.5207 -0.3241 -0.4848
   27DOPE   C36 3446   5.046   0.071   5.595 -0.3240  0.6795 -0.3545
   27DOPE   H6X 3447   5.002  -0.005   5.527 -0.9557  1.7351 -1.1552
   27DOPE   H6Y 3448   5.133   0.017   5.637  0.0992  1.6918  0.0970
   27DOPE   C37 3449   5.090   0.204   5.526  0.2001  0.8479 -0.2824
   27DOPE   H7X 3450   4.995   0.238   5.481 -0.4241  1.1712  1.2470
   27DOPE   H7Y 3451   5.124   0.285   5.594 -1.6901  2.4851 -1.1908
   27DOPE   C38 3452   5.190   0.186   5.415 -0.5505 -0.0538  0.1644
   27DOPE   H8X 3453   5.282   0.142   5.459 -0.2688 -1.1706 -1.4617
   27DOPE   H8Y 3454   5.210   0.287   5.373  2.0477 -0.1082  1.0815
   27DOPE   C39 3455   5.156   0.095   5.298  0.0610  0.8202  0.2774
   27DOPE   H9X 3456   5.142  -0.012   5.321  0.7418  0.8734  0.9566
   27DOPE  C310 3457   5.164   0.123   5.171  0.4450 -0.0317 -0.6277
   27DOPE  H10X 3458   5.124   0.051   5.097 -0.6711 -0.3795  0.2921
   27DOPE  C311 3459   5.195   0.255   5.115  0.7291  0.1647 -0.5526
   27DOPE  H11X 3460   5.133   0.338   5.155  0.0853 -0.8430  0.6059
   27DOPE  H11Y 3461   5.297   0.274   5.154  1.0987 -1.4131 -0.6670
   27DOPE  C312 3462   5.194   0.271   4.963 -0.2471  0.9345 -0.2055
   27DOPE  H12X 3463   5.087   0.254   4.937 -0.1752 -1.3993  0.7427
   27DOPE  H12Y 3464   5.257   0.198   4.907 -2.4919 -0.9328 -0.4721
   27DOPE  C313 3465   5.261   0.399   4.912  0.4049  0.4063  0.5926
   27DOPE  H13X 3466   5.209   0.477   4.972 -2.2856  0.8903 -2.1014
   27DOPE  H13Y 3467   5.370   0.409   4.931  0.2486  1.3688  1.0455
   27DOPE  C314 3468   5.236   0.412   4.758  0.0231  0.6750  0.2364
   27DOPE  H14X 3469   5.130   0.421   4.726 -0.8782 -1.8370  2.1807
   27DOPE  H14Y 3470   5.275   0.325   4.701 -1.5836  0.6486 -0.9069
   27DOPE  C315 3471   5.301   0.540   4.693 -0.0064  0.2514 -0.3589
   27DOPE  H15X 3472   5.412   0.529   4.696 -0.0213 -0.2932 -1.5690
   27DOPE  H15Y 3473   5.250   0.624   4.745  0.4573  1.1909 -1.3805
   27DOPE  C316 3474   5.263   0.538   4.544  0.1013 -0.0925 -0.1844
   27DOPE  H16X 3475   5.164   0.587   4.538  0.2777  0.8338  2.7888
   27DOPE  H16Y 3476   5.246   0.433   4.512  1.6982 -0.7005  0.8158
   27DOPE  C317 3477   5.352   0.628   4.450  0.3854 -0.3840  0.3866
   27DOPE  H17X 3478   5.298   0.627   4.353 -0.0907 -1.3664  0.6503
   27DOPE  H17Y 3479   5.362   0.729   4.495  1.0388  0.0264 -0.6509
   27DOPE  C318 3480   5.489   0.574   4.437 -0.8574 -0.0968  0.3303
   27DOPE  H18X 3481   5.501   0.484   4.373  2.3551  1.5253 -1.6346
   27DOPE  H18Y 3482   5.557   0.649   4.392  0.3211  0.1320  2.4125
   27DOPE  H18Z 3483   5.541   0.547   4.531 -0.0030 -0.5687 -0.2621
   28DOPE     N 3484   7.604   6.054   6.888 -0.6841  0.3887  0.0214
   28DOPE   HN1 3485   7.608   6.158   6.886 -0.9907  0.4540  1.5541
   28DOPE   HN2 3486   7.651   6.024   6.976  2.1812  0.0685 -1.4943
   28DOPE   HN3 3487   7.673   6.023   6.816 -0.5004  0.2835  0.2406
   28DOPE   C12 3488   7.473   5.995   6.842  0.8295 -0.1345  0.1476
   28DOPE  H12A 3489   7.458   6.028   6.737 -0.9626  0.1441  0.4556
   28DOPE  H12B 3490   7.398   6.041   6.909  1.5372  1.1443  0.0899
   28DOPE   C11 3491   7.456   5.839   6.855 -0.8639 -0.3255 -0.6758
   28DOPE  H11A 3492   7.498   5.786   6.767  1.2218  0.6236 -0.3321
   28DOPE  H11B 3493   7.346   5.829   6.843 -1.0126  0.8795 -0.4875
   28DOPE     P 3494   7.415   5.810   7.114  0.1056 -0.3020  0.2158
   28DOPE   O13 3495   7.448   5.944   7.164  0.0902 -0.3363  0.7594
   28DOPE   O14 3496   7.431   5.700   7.210  0.1683 -0.0818 -0.4111
   28DOPE   O11 3497   7.269   5.809   7.060 -0.3866  0.0703  0.0404
   28DOPE   O12 3498   7.498   5.785   6.982  0.1556 -0.0304  0.1546
   28DOPE    C1 3499   7.156   5.855   7.131  0.0296  0.2331  0.8077
   28DOPE    HA 3500   7.164   5.956   7.176 -0.3163  0.9528 -0.6700
   28DOPE    HB 3501   7.123   5.788   7.213 -0.2749 -1.4214 -0.6020
   28DOPE    C2 3502   7.042   5.850   7.025  0.2480  0.0600  0.4808
   28DOPE    HS 3503   7.033   5.740   7.010  1.6911  0.0393 -0.4036
   28DOPE   O21 3504   7.076   5.915   6.899 -0.3306  0.2671 -0.1211
   28DOPE   C21 3505   7.035   5.855   6.792  0.1987 -0.0317  0.3078
   28DOPE   O22 3506   6.980   5.748   6.785  0.2992 -0.2689 -0.0546
   28DOPE   C22 3507   7.082   5.937   6.675 -0.4346  0.3809  0.5082
   28DOPE   H2R 3508   7.187   5.913   6.648 -0.2083  2.5535 -0.7469
   28DOPE   H2S 3509   7.087   6.043   6.708 -0.4875  0.7537 -0.6249
   28DOPE    C3 3510   6.910   5.901   7.089 -0.6126  0.1587 -0.3883
   28DOPE    HX 3511   6.948   5.993   7.139 -0.0444 -0.3560  0.1438
   28DOPE    HY 3512   6.864   5.829   7.161 -1.8496  0.5810 -0.7314
   28DOPE   O31 3513   6.812   5.927   6.984  0.6975 -0.4448  0.2919
   28DOPE   C31 3514   6.768   6.050   6.971 -0.4976  0.3256  0.1376
   28DOPE   O32 3515   6.797   6.143   7.044  0.4444  0.0531  0.1726
   28DOPE   C32 3516   6.675   6.059   6.844 -0.0861 -0.6309 -0.2405
   28DOPE   H2X 3517   6.701   5.980   6.770  0.6638 -1.6271  1.0405
   28DOPE   H2Y 3518   6.578   6.026   6.886 -1.3408  0.9921 -1.7451
   28DOPE   C23 3519   6.989   5.935   6.551  0.0608  0.1359  0.2543
   28DOPE   H3R 3520   6.892   5.981   6.579  0.1548  0.0144  0.8012
   28DOPE   H3S 3521   6.957   5.836   6.512 -2.2482  0.1922  1.8357
   28DOPE   C24 3522   7.058   6.016   6.433 -0.4995  0.5524 -0.4330
   28DOPE   H4R 3523   7.167   6.004   6.444 -0.7665 -1.0673  0.7663
   28DOPE   H4S 3524   7.029   6.123   6.442 -1.7982  0.2666 -0.8786
   28DOPE   C25 3525   7.012   5.974   6.300 -0.4679 -0.0076  0.3286
   28DOPE   H5R 3526   6.903   5.966   6.317 -0.0450 -0.8905  3.0898
   28DOPE   H5S 3527   7.046   5.871   6.273 -0.8234  0.1105 -0.6310
   28DOPE   C26 3528   7.045   6.054   6.169 -0.0463 -0.4276 -0.1314
   28DOPE   H6R 3529   6.988   6.018   6.081 -1.0898 -2.4671  1.2783
   28DOPE   H6S 3530   7.150   6.028   6.146  0.0294  0.1243 -0.4263
   28DOPE   C27 3531   7.029   6.203   6.186 -1.0280 -0.1185  0.1518
   28DOPE   H7R 3532   7.073   6.238   6.281 -0.7691 -0.2846  0.0932
   28DOPE   H7S 3533   6.920   6.219   6.206 -1.1183 -2.1487  1.6885
   28DOPE   C28 3534   7.073   6.291   6.073 -1.0033 -0.1141  0.8627
   28DOPE   H8R 3535   7.034   6.394   6.087 -1.8120 -0.5733  2.1379
   28DOPE   H8S 3536   7.037   6.242   5.981  2.9868 -0.8792 -0.4752
   28DOPE   C29 3537   7.230   6.298   6.074  0.0657  0.5307  0.7564
   28DOPE   H9R 3538   7.279   6.318   6.170 -1.5956  0.7167  1.5873
   28DOPE  C210 3539   7.313   6.313   5.967 -0.1808  0.5526 -0.3745
   28DOPE  H10R 3540   7.422   6.308   5.977 -0.2097  0.5044 -0.0760
   28DOPE  C211 3541   7.275   6.309   5.823  0.7184  0.3532  0.9050
   28DOPE  H11R 3542   7.301   6.409   5.781  1.3748  0.5972  1.8642
   28DOPE  H11S 3543   7.166   6.291   5.810  1.1240 -1.9472  0.3368
   28DOPE  C212 3544   7.351   6.203   5.749  0.1778 -0.2900  0.1750
   28DOPE  H12R 3545   7.353   6.108   5.808  0.5825  0.7833  1.9701
   28DOPE  H12S 3546   7.455   6.238   5.732 -0.1065  0.1910 -0.5927
   28DOPE  C213 3547   7.284   6.168   5.610  0.4812  0.0132 -0.1003
   28DOPE  H13R 3548   7.295   6.250   5.536 -3.4555  1.0732  0.2678
   28DOPE  H13S 3549   7.176   6.154   5.636  0.5157  1.6715  1.1089
   28DOPE  C214 3550   7.334   6.036   5.559 -0.4731 -0.1465 -0.5145
   28DOPE  H14R 3551   7.312   5.952   5.629  1.6660 -0.5885 -0.3018
   28DOPE  H14S 3552   7.445   6.027   5.560 -0.2050  2.4583 -0.3569
   28DOPE  C215 3553   7.296   6.011   5.416  0.2213 -0.2836 -0.5247
   28DOPE  H15R 3554   7.365   5.936   5.371  0.8997 -0.0518  0.1149
   28DOPE  H15S 3555   7.311   6.106   5.361 -1.9418 -0.2657 -1.1829
   28DOPE  C216 3556   7.154   5.963   5.401  0.0109 -0.3492 -0.4265
   28DOPE  H16R 3557   7.082   6.036   5.443  1.2947  1.5447 -1.3528
   28DOPE  H16S 3558   7.153   5.872   5.464 -2.7251  1.0077  1.7190
   28DOPE  C217 3559   7.105   5.931   5.256  0.6697  0.4837 -1.1627
   28DOPE  H17R 3560   7.189   5.882   5.202  2.3649  1.6911  0.2711
   28DOPE  H17S 3561   7.098   6.032   5.210 -2.0941  0.5638 -0.7288
   28DOPE  C218 3562   6.972   5.856   5.258 -0.0864 -0.0638 -0.0204
   28DOPE  H18R 3563   6.987   5.754   5.301 -1.0454  0.2157  1.0533
   28DOPE  H18S 3564   6.915   5.845   5.164  0.5124  0.1244 -0.4096
   28DOPE  H18T 3565   6.902   5.909   5.327  0.3599  2.6873 -1.5278
   28DOPE   C33 3566   6.665   6.213   6.807 -0.3784  0.2679 -0.5021
   28DOPE   H3X 3567   6.654   6.277   6.897  0.9666 -0.0010 -0.1267
   28DOPE   H3Y 3568   6.576   6.232   6.744 -0.2859 -0.7645 -0.9746
   28DOPE   C34 3569   6.792   6.264   6.724  0.7098 -1.0244  0.8385
   28DOPE   H4X 3570   6.871   6.305   6.790  2.0300 -1.9697 -0.0898
   28DOPE   H4Y 3571   6.839   6.181   6.668  0.9706 -0.7662  0.6726
   28DOPE   C35 3572   6.739   6.361   6.615 -0.4095  0.0681 -0.4694
   28DOPE   H5X 3573   6.669   6.428   6.670 -0.1515 -0.1905  0.1755
   28DOPE   H5Y 3574   6.682   6.305   6.538 -0.1925 -1.2982  0.3514
   28DOPE   C36 3575   6.847   6.444   6.542  0.5397  0.1104  0.4899
   28DOPE   H6X 3576   6.915   6.360   6.516  0.2259 -0.5300  1.6506
   28DOPE   H6Y 3577   6.901   6.507   6.616  2.7411 -0.8340 -0.2437
   28DOPE   C37 3578   6.793   6.510   6.414  0.3989  0.1320 -0.0934
   28DOPE   H7X 3579   6.745   6.429   6.355 -0.6892  2.8073 -3.1884
   28DOPE   H7Y 3580   6.716   6.587   6.433  0.0589  1.0002 -4.1118
   28DOPE   C38 3581   6.901   6.561   6.317  0.0675 -0.2497  0.2471
   28DOPE   H8X 3582   6.957   6.479   6.268  1.6724  1.4942 -0.9735
   28DOPE   H8Y 3583   6.977   6.606   6.384 -0.9302 -0.2922  1.4353
   28DOPE   C39 3584   6.839   6.662   6.221 -0.3625  0.4380 -0.0099
   28DOPE   H9X 3585   6.838   6.768   6.254 -0.3028  0.5371 -0.3259
   28DOPE  C310 3586   6.781   6.641   6.102  0.1553 -0.4889 -0.3180
   28DOPE  H10X 3587   6.732   6.728   6.056  1.4736  0.1808 -0.4929
   28DOPE  C311 3588   6.780   6.515   6.029  0.7880 -0.6224 -0.2441
   28DOPE  H11X 3589   6.808   6.430   6.096 -1.5072 -1.8534 -0.7414
   28DOPE  H11Y 3590   6.679   6.492   5.989  0.5094  0.2244 -0.0335
   28DOPE  C312 3591   6.879   6.534   5.920  0.0273  0.3917  0.1244
   28DOPE  H12X 3592   6.888   6.432   5.876  3.1975  0.2673  0.8253
   28DOPE  H12Y 3593   6.985   6.552   5.947  0.4981 -0.0455 -1.3388
   28DOPE  C313 3594   6.828   6.611   5.797 -0.2193 -0.3111 -0.3495
   28DOPE  H13X 3595   6.737   6.570   5.749 -0.9835  1.3419 -0.3741
   28DOPE  H13Y 3596   6.817   6.717   5.827  1.8422  0.2683 -1.4502
   28DOPE  C314 3597   6.936   6.618   5.688 -0.3747  0.4672  0.6241
   28DOPE  H14X 3598   7.029   6.670   5.720  0.7233 -0.4561 -0.9142
   28DOPE  H14Y 3599   6.883   6.677   5.610  0.8815 -0.0888 -0.7051
   28DOPE  C315 3600   6.980   6.486   5.628 -0.2402 -0.1180 -0.0121
   28DOPE  H15X 3601   6.890   6.420   5.626 -0.2451 -0.1355  0.5229
   28DOPE  H15Y 3602   7.054   6.436   5.694  0.3804  0.6736 -0.0908
   28DOPE  C316 3603   7.030   6.511   5.480 -0.3602  0.1641  0.7291
   28DOPE  H16X 3604   6.968   6.577   5.414  1.6360  0.5498 -0.8720
   28DOPE  H16Y 3605   7.030   6.414   5.426 -0.2703  0.4323  0.2401
   28DOPE  C317 3606   7.179   6.557   5.477 -0.5302 -0.0235  0.9297
   28DOPE  H17X 3607   7.186   6.658   5.522 -1.9366 -0.4398  2.1302
   28DOPE  H17Y 3608   7.235   6.483   5.539  0.1866  0.1015  0.4450
   28DOPE  C318 3609   7.243   6.560   5.330  0.6488  0.7571 -0.0676
   28DOPE  H18X 3610   7.241   6.461   5.279  2.3919  0.1265  0.9604
   28DOPE  H18Y 3611   7.201   6.636   5.262  1.7620  0.2568 -1.3437
   28DOPE  H18Z 3612   7.350   6.590   5.339  0.5608  1.2014 -0.5066
   29DOPE     N 3613   0.104   0.964   6.895  0.3166  0.4877  0.0567
   29DOPE   HN1 3614   0.050   1.047   6.862 -1.0704 -0.9919 -1.6534
   29DOPE   HN2 3615   0.033   0.905   6.943 -1.1449  2.0319 -0.0818
   29DOPE   HN3 3616   0.174   0.993   6.966  0.7332 -0.6534  0.1273
   29DOPE   C12 3617   0.161   0.880   6.783  0.2338  0.2432 -0.0604
   29DOPE  H12A 3618   0.239   0.814   6.826 -0.6291 -0.9366 -0.2671
   29DOPE  H12B 3619   0.207   0.949   6.709 -0.1873  0.0635 -0.4960
   29DOPE   C11 3620   0.058   0.794   6.720  0.4230  0.0962  0.0397
   29DOPE  H11A 3621   0.093   0.737   6.632  0.3085  0.2582 -0.1096
   29DOPE  H11B 3622  -0.025   0.855   6.680 -1.0039 -1.0421  1.1116
   29DOPE     P 3623  -0.121   0.699   6.902 -0.0234 -0.4854 -0.0889
   29DOPE   O13 3624  -0.121   0.829   6.980  0.1396  0.0621 -0.1860
   29DOPE   O14 3625  -0.144   0.580   6.981  0.3685 -0.2597 -0.0538
   29DOPE   O11 3626  -0.226   0.704   6.783  0.1073  0.1399  0.1640
   29DOPE   O12 3627   0.009   0.692   6.813  0.5037  0.5313 -0.1187
   29DOPE    C1 3628  -0.226   0.606   6.677 -0.9979 -0.4101  0.3318
   29DOPE    HA 3629  -0.286   0.515   6.703 -3.2431  1.0878  0.7088
   29DOPE    HB 3630  -0.123   0.572   6.656 -0.9350  0.6018 -1.1443
   29DOPE    C2 3631  -0.288   0.669   6.545 -0.5796  0.1901 -0.1894
   29DOPE    HS 3632  -0.216   0.748   6.515 -0.2831  0.1507  0.3965
   29DOPE   O21 3633  -0.408   0.741   6.577  0.7241  0.2346  0.2751
   29DOPE   C21 3634  -0.462   0.826   6.494  0.0614 -0.6991  0.6903
   29DOPE   O22 3635  -0.408   0.871   6.395  0.3060  0.0619  0.2079
   29DOPE   C22 3636  -0.592   0.870   6.546 -0.8837 -0.0093  0.2633
   29DOPE   H2R 3637  -0.586   0.966   6.602 -3.3560  1.9402 -2.4263
   29DOPE   H2S 3638  -0.633   0.786   6.605  1.2829  0.0133  1.8759
   29DOPE    C3 3639  -0.303   0.559   6.442  0.6871  0.1806 -0.2425
   29DOPE    HX 3640  -0.373   0.481   6.479 -0.4514  0.7730 -1.0882
   29DOPE    HY 3641  -0.206   0.505   6.427  0.0696 -0.7425 -1.1230
   29DOPE   O31 3642  -0.362   0.612   6.318 -0.1404  0.5377 -0.4480
   29DOPE   C31 3643  -0.284   0.642   6.218 -0.6125  0.3321 -0.0937
   29DOPE   O32 3644  -0.160   0.624   6.223 -0.1678 -0.6417 -0.0623
   29DOPE   C32 3645  -0.362   0.719   6.108 -0.4800  0.1049  0.2968
   29DOPE   H2X 3646  -0.424   0.635   6.071 -1.7586  0.7090  0.9999
   29DOPE   H2Y 3647  -0.428   0.798   6.148 -1.8346 -0.5444 -0.6034
   29DOPE   C23 3648  -0.671   0.898   6.419 -0.0945 -0.2556 -0.2167
   29DOPE   H3R 3649  -0.623   0.979   6.361 -0.4435 -0.8920 -1.4364
   29DOPE   H3S 3650  -0.772   0.936   6.446 -0.5996 -0.5560 -1.5723
   29DOPE   C24 3651  -0.693   0.787   6.318  0.4589  0.8709  0.3880
   29DOPE   H4R 3652  -0.772   0.717   6.353  0.2691  0.9362  0.0950
   29DOPE   H4S 3653  -0.603   0.724   6.306  1.1520  1.6873  1.2000
   29DOPE   C25 3654  -0.733   0.831   6.175  0.2335  0.0045 -0.4724
   29DOPE   H5R 3655  -0.649   0.890   6.134  1.3452 -0.5411  0.9253
   29DOPE   H5S 3656  -0.829   0.887   6.174 -0.5624 -1.3090 -2.4256
   29DOPE   C26 3657  -0.749   0.722   6.069  0.0226  0.4760  0.8434
   29DOPE   H6R 3658  -0.851   0.678   6.077  0.2199 -0.5548 -1.4324
   29DOPE   H6S 3659  -0.673   0.642   6.082  1.2953  0.9287 -2.7990
   29DOPE   C27 3660  -0.729   0.758   5.920  0.6854  0.2324  0.0485
   29DOPE   H7R 3661  -0.712   0.665   5.861 -1.8856  0.0266 -0.4845
   29DOPE   H7S 3662  -0.636   0.819   5.923  1.1201 -0.2325 -2.0701
   29DOPE   C28 3663  -0.844   0.831   5.856  0.5044 -0.3648  0.0445
   29DOPE   H8R 3664  -0.941   0.780   5.872  0.2740  0.4351  1.3767
   29DOPE   H8S 3665  -0.825   0.816   5.747 -1.0307 -1.8945 -0.0588
   29DOPE   C29 3666  -0.848   0.981   5.876 -0.6293 -0.1884  0.1266
   29DOPE   H9R 3667  -0.745   1.018   5.886 -0.3838 -0.8119 -0.0624
   29DOPE  C210 3668  -0.955   1.062   5.898 -0.5739  0.1579 -0.7752
   29DOPE  H10R 3669  -0.938   1.167   5.925 -2.7788  0.3492  0.0871
   29DOPE  C211 3670  -1.101   1.022   5.898  0.0770  0.0165  0.1157
   29DOPE  H11R 3671  -1.159   1.112   5.929 -0.0873  0.0929 -0.3983
   29DOPE  H11S 3672  -1.121   0.950   5.980  0.0866  0.0781  0.1712
   29DOPE  C212 3673  -1.153   0.971   5.762  0.3744 -0.1762 -0.0749
   29DOPE  H12R 3674  -1.092   0.888   5.720 -0.4488 -0.8940  0.1086
   29DOPE  H12S 3675  -1.151   1.055   5.689  1.1903 -0.1541 -0.0335
   29DOPE  C213 3676  -1.299   0.913   5.766  0.0128  0.2321 -0.3535
   29DOPE  H13R 3677  -1.372   0.983   5.812 -0.5831  0.2216 -1.2553
   29DOPE  H13S 3678  -1.296   0.826   5.835  0.6446 -0.3610 -1.1005
   29DOPE  C214 3679  -1.339   0.865   5.624  0.2129  0.0571  0.0012
   29DOPE  H14R 3680  -1.275   0.778   5.595 -1.3206 -1.6918  1.5772
   29DOPE  H14S 3681  -1.314   0.945   5.552  0.5082 -1.0530 -1.1813
   29DOPE  C215 3682  -1.487   0.821   5.621  0.3554  0.3684 -0.4637
   29DOPE  H15R 3683  -1.557   0.900   5.654 -0.9095 -1.1046  0.5036
   29DOPE  H15S 3684  -1.487   0.732   5.688  1.7302  2.5967  2.7195
   29DOPE  C216 3685  -1.528   0.778   5.480  0.0430  0.3943 -0.4424
   29DOPE  H16R 3686  -1.444   0.715   5.443 -1.2364 -1.1161 -0.8947
   29DOPE  H16S 3687  -1.544   0.865   5.413  0.3260  1.2176  0.5347
   29DOPE  C217 3688  -1.660   0.712   5.483  0.5489 -0.7151  0.2109
   29DOPE  H17R 3689  -1.669   0.666   5.583 -1.3598  1.2173  1.0083
   29DOPE  H17S 3690  -1.668   0.634   5.404 -2.9062 -1.0930  0.8040
   29DOPE  C218 3691  -1.773   0.811   5.467  0.1207  0.2214 -0.1864
   29DOPE  H18R 3692  -1.774   0.902   5.531  2.7752  0.8713 -0.9601
   29DOPE  H18S 3693  -1.867   0.753   5.471 -0.1698  0.7339  0.7478
   29DOPE  H18T 3694  -1.781   0.847   5.362  0.2067  0.9117  0.0385
   29DOPE   C33 3695  -0.283   0.765   5.975 -0.7516  0.1920 -0.1343
   29DOPE   H3X 3696  -0.203   0.693   5.949  0.7474  1.5674  0.4845
   29DOPE   H3Y 3697  -0.220   0.851   6.007 -0.4249 -0.3640  0.7595
   29DOPE   C34 3698  -0.378   0.802   5.858  0.5019 -0.0010 -0.4035
   29DOPE   H4X 3699  -0.423   0.706   5.826 -1.8781  1.2552 -1.0585
   29DOPE   H4Y 3700  -0.455   0.871   5.898 -0.8455 -1.8851  0.4205
   29DOPE   C35 3701  -0.314   0.873   5.739  0.0369  0.8432 -0.2194
   29DOPE   H5X 3702  -0.214   0.829   5.715  1.2312  3.6541 -0.7509
   29DOPE   H5Y 3703  -0.299   0.982   5.753 -1.8980  1.2371 -0.9059
   29DOPE   C36 3704  -0.393   0.867   5.607  0.1613  0.8220  0.0999
   29DOPE   H6X 3705  -0.360   0.776   5.553  1.0834  0.0656  1.8432
   29DOPE   H6Y 3706  -0.377   0.963   5.553  0.5729 -0.1018 -1.4730
   29DOPE   C37 3707  -0.550   0.861   5.624  0.4955 -0.0261  0.0579
   29DOPE   H7X 3708  -0.590   0.767   5.668 -2.6288  1.1797  0.0065
   29DOPE   H7Y 3709  -0.581   0.933   5.703  0.0802 -0.9280  0.7337
   29DOPE   C38 3710  -0.627   0.916   5.500 -0.0154  0.7607  0.0831
   29DOPE   H8X 3711  -0.580   1.013   5.473 -1.0446  1.1509 -0.3597
   29DOPE   H8Y 3712  -0.733   0.934   5.530 -0.1354 -0.5795  0.5268
   29DOPE   C39 3713  -0.625   0.808   5.392 -0.6897 -1.0588 -0.4063
   29DOPE   H9X 3714  -0.527   0.776   5.356 -0.1730  1.1029 -1.0542
   29DOPE  C310 3715  -0.731   0.747   5.335  0.4862 -0.2266  0.1096
   29DOPE  H10X 3716  -0.722   0.698   5.237 -2.6056  0.7279 -0.7711
   29DOPE  C311 3717  -0.874   0.761   5.388 -0.3307 -0.7436  0.5415
   29DOPE  H11X 3718  -0.874   0.777   5.497 -0.2457  2.5282  0.1440
   29DOPE  H11Y 3719  -0.912   0.857   5.348 -0.7440 -1.0488  0.1864
   29DOPE  C312 3720  -0.968   0.648   5.349 -0.3649 -0.4633  0.4061
   29DOPE  H12X 3721  -1.069   0.659   5.394 -0.6048 -1.4483  0.1299
   29DOPE  H12Y 3722  -0.936   0.553   5.397  1.3375 -0.5444 -0.7726
   29DOPE  C313 3723  -0.998   0.647   5.193 -0.5192  0.8277  0.2738
   29DOPE  H13X 3724  -0.910   0.635   5.127 -1.4080 -0.4851 -0.7487
   29DOPE  H13Y 3725  -1.070   0.562   5.188 -0.3825  0.7635 -0.8599
   29DOPE  C314 3726  -1.076   0.771   5.154 -0.3518 -0.1236 -0.1473
   29DOPE  H14X 3727  -1.010   0.860   5.141 -0.6234  0.1373  0.2099
   29DOPE  H14Y 3728  -1.148   0.808   5.231 -2.0901 -0.5739 -1.4920
   29DOPE  C315 3729  -1.142   0.756   5.010 -0.2265 -0.3556 -0.2025
   29DOPE  H15X 3730  -1.069   0.725   4.932  0.9598  1.5495  0.0834
   29DOPE  H15Y 3731  -1.157   0.857   4.968 -0.3707 -1.3641 -2.7245
   29DOPE  C316 3732  -1.268   0.675   5.000  0.2415 -0.7146  0.1890
   29DOPE  H16X 3733  -1.236   0.570   5.015  0.8587 -0.4904  0.4799
   29DOPE  H16Y 3734  -1.297   0.692   4.894 -0.7690  2.6308  0.8801
   29DOPE  C317 3735  -1.374   0.719   5.106 -0.0727 -0.5031 -0.7292
   29DOPE  H17X 3736  -1.330   0.708   5.208 -0.2737 -1.3089 -0.7243
   29DOPE  H17Y 3737  -1.379   0.828   5.088  1.2527 -0.2429  0.3138
   29DOPE  C318 3738  -1.507   0.652   5.090 -0.3535 -0.5424  0.5399
   29DOPE  H18X 3739  -1.555   0.646   4.990  0.0420 -2.5001  0.4310
   29DOPE  H18Y 3740  -1.494   0.546   5.121  1.0916 -0.2897  0.8902
   29DOPE  H18Z 3741  -1.581   0.691   5.162 -0.0122  0.3069  0.4432
   30DOPE     N 3742   7.331   7.622   7.307 -0.4670 -0.1538 -0.1945
   30DOPE   HN1 3743   7.348   7.714   7.262  0.0721  0.6566  1.5571
   30DOPE   HN2 3744   7.235   7.598   7.275 -0.1464 -1.8545 -0.0017
   30DOPE   HN3 3745   7.335   7.640   7.410 -1.2497  0.6412 -0.2945
   30DOPE   C12 3746   7.422   7.515   7.271  0.4662 -0.4526 -1.0926
   30DOPE  H12A 3747   7.427   7.445   7.357  1.0161 -1.6468 -2.0563
   30DOPE  H12B 3748   7.523   7.559   7.260 -0.1475  2.0236  1.7306
   30DOPE   C11 3749   7.370   7.450   7.144 -0.0730  0.6805 -0.0280
   30DOPE  H11A 3750   7.269   7.403   7.155 -0.3019  1.2465  0.3164
   30DOPE  H11B 3751   7.437   7.364   7.125  0.9168  1.5859 -0.7014
   30DOPE     P 3752   7.458   7.521   6.915  0.3170  0.0123 -0.2646
   30DOPE   O13 3753   7.599   7.513   6.966 -0.7445 -0.0538  0.1906
   30DOPE   O14 3754   7.421   7.630   6.822 -1.3795 -0.3277 -0.3110
   30DOPE   O11 3755   7.424   7.372   6.854 -0.5616 -0.6403  0.0809
   30DOPE   O12 3756   7.352   7.535   7.029 -0.7112  0.3086  0.0595
   30DOPE    C1 3757   7.303   7.309   6.841 -0.0016 -0.9664 -0.0280
   30DOPE    HA 3758   7.220   7.382   6.833  1.5177  0.7829 -0.5291
   30DOPE    HB 3759   7.282   7.249   6.933 -0.3078 -1.1599 -0.2233
   30DOPE    C2 3760   7.283   7.232   6.708 -1.0191 -0.4131  0.1470
   30DOPE    HS 3761   7.362   7.154   6.694 -0.6408  0.1494 -0.9622
   30DOPE   O21 3762   7.283   7.315   6.589  0.2567 -0.4953  0.3369
   30DOPE   C21 3763   7.397   7.350   6.539 -0.0728  0.1094 -0.0043
   30DOPE   O22 3764   7.504   7.312   6.578 -0.2603  0.0654  0.7965
   30DOPE   C22 3765   7.368   7.444   6.421  0.0637  0.3360 -0.5306
   30DOPE   H2R 3766   7.286   7.511   6.455 -0.5347  0.0059 -1.3048
   30DOPE   H2S 3767   7.327   7.380   6.340 -1.2055  1.0832 -0.5097
   30DOPE    C3 3768   7.147   7.153   6.711 -0.5180  0.3177  0.8015
   30DOPE    HX 3769   7.061   7.223   6.704 -1.3478 -0.6766  0.9736
   30DOPE    HY 3770   7.144   7.100   6.809 -0.7654  0.3221  0.7964
   30DOPE   O31 3771   7.133   7.058   6.595 -0.1523  0.1600 -0.1656
   30DOPE   C31 3772   7.169   6.931   6.617 -0.2199 -0.7787  0.8127
   30DOPE   O32 3773   7.197   6.890   6.727  0.2225  0.4603  0.2436
   30DOPE   C32 3774   7.190   6.853   6.491  0.0166 -0.1763  0.0597
   30DOPE   H2X 3775   7.300   6.845   6.491 -0.0347 -1.0101  0.2230
   30DOPE   H2Y 3776   7.150   6.749   6.500  0.2856 -0.2194  0.8175
   30DOPE   C23 3777   7.492   7.521   6.374 -0.8406 -0.6005 -0.1128
   30DOPE   H3R 3778   7.566   7.450   6.333 -0.9694 -0.9836  0.3229
   30DOPE   H3S 3779   7.527   7.577   6.463 -1.9689 -1.6011  1.0026
   30DOPE   C24 3780   7.449   7.614   6.259 -0.0712  1.1202  0.0086
   30DOPE   H4R 3781   7.360   7.662   6.303 -0.5412  0.3117 -0.0346
   30DOPE   H4S 3782   7.411   7.553   6.174  0.3422  0.2144  0.4507
   30DOPE   C25 3783   7.547   7.723   6.217 -0.1288  0.5335 -0.2994
   30DOPE   H5R 3784   7.643   7.678   6.184 -0.6554 -0.9127  0.0909
   30DOPE   H5S 3785   7.577   7.792   6.298 -1.6953 -0.2373  0.9801
   30DOPE   C26 3786   7.492   7.797   6.104  0.4395  0.0451  0.3900
   30DOPE   H6R 3787   7.399   7.846   6.142 -0.0566 -1.4157  1.1330
   30DOPE   H6S 3788   7.465   7.715   6.033  1.8594 -0.6613  0.6382
   30DOPE   C27 3789   7.599   7.897   6.038 -0.7447  0.7412 -0.0335
   30DOPE   H7R 3790   7.684   7.838   5.999 -0.3968  1.5409 -0.5243
   30DOPE   H7S 3791   7.635   7.978   6.105  0.1000  2.5654 -2.5143
   30DOPE   C28 3792   7.542   7.968   5.916  0.5752  0.3172  0.1538
   30DOPE   H8R 3793   7.447   8.020   5.941  0.2089 -0.4166  0.2971
   30DOPE   H8S 3794   7.522   7.891   5.839  1.5471  0.9618 -0.7856
   30DOPE   C29 3795   7.638   8.067   5.856  0.0555 -0.2938 -0.3166
   30DOPE   H9R 3796   7.719   8.099   5.923  1.1025 -2.3683 -0.5176
   30DOPE  C210 3797   7.645   8.106   5.731 -0.0137 -0.1935 -0.0028
   30DOPE  H10R 3798   7.724   8.175   5.697  0.6118 -1.0903 -0.4033
   30DOPE  C211 3799   7.571   8.064   5.603 -0.5669  0.1365 -0.4036
   30DOPE  H11R 3800   7.497   7.984   5.624 -1.3700  0.7352 -0.8911
   30DOPE  H11S 3801   7.632   8.010   5.527 -0.3006  0.3351 -0.3326
   30DOPE  C212 3802   7.511   8.180   5.515  0.4686  0.2611 -0.3019
   30DOPE  H12R 3803   7.590   8.249   5.476 -0.6436  1.9365  0.2806
   30DOPE  H12S 3804   7.440   8.241   5.575  0.4932 -0.6628  0.6850
   30DOPE  C213 3805   7.434   8.118   5.396 -0.1477  0.4312  0.7336
   30DOPE  H13R 3806   7.351   8.054   5.433  0.7003 -1.4102 -0.4223
   30DOPE  H13S 3807   7.504   8.063   5.329  1.2222  1.7234  1.0479
   30DOPE  C214 3808   7.377   8.231   5.309  0.5042 -0.7796 -0.4339
   30DOPE  H14R 3809   7.465   8.270   5.253  1.3629  0.1553  1.4720
   30DOPE  H14S 3810   7.336   8.317   5.366 -0.6912  0.0341 -2.4137
   30DOPE  C215 3811   7.275   8.185   5.200  0.0360 -0.0719  0.3157
   30DOPE  H15R 3812   7.264   8.266   5.125  0.6266  0.3692  0.6918
   30DOPE  H15S 3813   7.181   8.142   5.241  0.0554 -0.3964  0.0245
   30DOPE  C216 3814   7.327   8.065   5.118  0.0474 -0.0689  0.4649
   30DOPE  H16R 3815   7.309   7.971   5.175  1.3433 -0.1796  0.7347
   30DOPE  H16S 3816   7.437   8.077   5.103  0.3834 -0.4395  2.3294
   30DOPE  C217 3817   7.255   8.054   4.987 -0.4728  0.1229  0.4204
   30DOPE  H17R 3818   7.267   8.155   4.944  1.0058  1.2566  3.2097
   30DOPE  H17S 3819   7.151   8.032   5.020 -0.5044  0.2884  0.4349
   30DOPE  C218 3820   7.316   7.946   4.895  0.0998 -0.1363 -0.1075
   30DOPE  H18R 3821   7.303   7.845   4.941  1.9976 -0.4283 -0.1270
   30DOPE  H18S 3822   7.423   7.968   4.875 -0.4167  2.5623 -0.2424
   30DOPE  H18T 3823   7.259   7.935   4.800 -2.1019 -1.7436  1.2852
   30DOPE   C33 3824   7.142   6.923   6.356  0.7179  0.3233 -0.9712
   30DOPE   H3X 3825   7.178   7.028   6.355  2.3672 -0.1664  0.9591
   30DOPE   H3Y 3826   7.032   6.930   6.356  0.6913  0.1628 -2.2289
   30DOPE   C34 3827   7.175   6.846   6.224 -0.4796 -0.5387  0.5555
   30DOPE   H4X 3828   7.286   6.844   6.228 -0.4280  1.6309  1.5630
   30DOPE   H4Y 3829   7.132   6.743   6.227 -1.0468 -0.3116  0.3560
   30DOPE   C35 3830   7.122   6.922   6.099 -0.4167  0.3943  0.2647
   30DOPE   H5X 3831   7.013   6.934   6.113 -0.1911 -0.0663  3.1081
   30DOPE   H5Y 3832   7.147   6.855   6.014 -0.9076  0.3725  0.1375
   30DOPE   C36 3833   7.185   7.063   6.068  0.0052  0.2006  0.3342
   30DOPE   H6X 3834   7.167   7.129   6.155  1.4844  1.6180 -0.3847
   30DOPE   H6Y 3835   7.123   7.104   5.986 -0.6060 -0.3752  0.4996
   30DOPE   C37 3836   7.338   7.052   6.043  0.7074  0.1211 -0.7968
   30DOPE   H7X 3837   7.394   7.025   6.134  1.8129  1.3665 -1.0752
   30DOPE   H7Y 3838   7.365   6.985   5.959  0.2885 -1.2852  0.1621
   30DOPE   C38 3839   7.394   7.196   6.007  0.0228 -1.2538  0.7671
   30DOPE   H8X 3840   7.363   7.263   6.090  1.3217  0.3834 -0.0214
   30DOPE   H8Y 3841   7.334   7.228   5.919  1.4160 -0.6968  0.0036
   30DOPE   C39 3842   7.543   7.200   5.977 -0.5421 -0.1086  0.0282
   30DOPE   H9X 3843   7.607   7.238   6.058 -1.2154 -1.0592  1.0360
   30DOPE  C310 3844   7.608   7.156   5.867 -0.5336  0.0090  0.1693
   30DOPE  H10X 3845   7.717   7.173   5.868 -0.4423 -0.5583  0.8134
   30DOPE  C311 3846   7.546   7.095   5.739 -0.6012  0.1171  0.2614
   30DOPE  H11X 3847   7.604   7.009   5.700 -0.4847  1.2215 -2.1605
   30DOPE  H11Y 3848   7.441   7.062   5.755 -0.7747  0.7391  0.4386
   30DOPE  C312 3849   7.552   7.200   5.632  0.2231  0.5274 -0.6228
   30DOPE  H12X 3850   7.660   7.222   5.616  0.5080 -0.6019 -0.3956
   30DOPE  H12Y 3851   7.494   7.287   5.668 -1.6026 -1.3126  1.2217
   30DOPE  C313 3852   7.498   7.145   5.499 -0.0479 -0.9106  0.5769
   30DOPE  H13X 3853   7.580   7.082   5.458 -0.8161 -1.7889  0.3465
   30DOPE  H13Y 3854   7.410   7.080   5.519  2.1688 -3.7055  1.9701
   30DOPE  C314 3855   7.457   7.250   5.395  0.5076  1.1060  0.3209
   30DOPE  H14X 3856   7.422   7.343   5.444  0.6123  1.1260  0.3582
   30DOPE  H14Y 3857   7.377   7.194   5.342  2.0982 -3.7834  2.5755
   30DOPE  C315 3858   7.561   7.292   5.284  0.6858  0.2311  0.5338
   30DOPE  H15X 3859   7.619   7.209   5.239  0.4840  1.2298 -1.7031
   30DOPE  H15Y 3860   7.635   7.347   5.346  2.1562 -1.5753  0.4331
   30DOPE  C316 3861   7.490   7.380   5.185 -0.8158  0.4789 -0.2981
   30DOPE  H16X 3862   7.541   7.479   5.193  1.2799 -0.5413 -0.5956
   30DOPE  H16Y 3863   7.383   7.397   5.212 -1.9985 -2.2448 -2.7637
   30DOPE  C317 3864   7.490   7.328   5.041 -0.1542 -0.2957  0.7882
   30DOPE  H17X 3865   7.593   7.310   5.005 -1.3162 -0.8164 -2.6824
   30DOPE  H17Y 3866   7.432   7.233   5.048  0.2171 -0.4067  2.9982
   30DOPE  C318 3867   7.409   7.421   4.948 -0.2798  0.5569 -0.4375
   30DOPE  H18X 3868   7.382   7.365   4.856 -0.4815 -0.5702  0.2895
   30DOPE  H18Y 3869   7.315   7.446   5.003 -1.9554 -3.1265 -1.3357
   30DOPE  H18Z 3870   7.472   7.506   4.914 -0.7856  1.1981  0.1905
   31DOPE     N 3871   3.526   4.396   2.985 -0.1891 -0.0460 -0.4048
   31DOPE   HN1 3872   3.536   4.499   2.982 -1.6226  0.1088 -0.7933
   31DOPE   HN2 3873   3.441   4.364   3.036  1.5210 -2.7368  0.9752
   31DOPE   HN3 3874   3.608   4.352   3.032 -0.2628 -0.0834 -0.3095
   31DOPE   C12 3875   3.529   4.335   2.848 -0.2857 -0.0127  1.2908
   31DOPE  H12A 3876   3.622   4.358   2.792 -1.6994  2.2514 -0.2859
   31DOPE  H12B 3877   3.445   4.370   2.785  1.4156 -2.2366 -2.5851
   31DOPE   C11 3878   3.519   4.175   2.871  0.7521  0.0347  0.1102
   31DOPE  H11A 3879   3.526   4.114   2.778  1.8328  1.4344 -0.7803
   31DOPE  H11B 3880   3.421   4.155   2.918  1.2547  0.1868  1.2622
   31DOPE     P 3881   3.763   4.082   2.939  0.4360  0.0925 -0.3426
   31DOPE   O13 3882   3.858   4.108   3.054 -0.4793 -0.9148  0.0577
   31DOPE   O14 3883   3.808   4.132   2.809  0.6407 -0.0316 -0.1539
   31DOPE   O11 3884   3.742   3.930   2.924 -0.3562 -0.3623  0.2717
   31DOPE   O12 3885   3.615   4.139   2.969 -0.4146 -0.1082 -0.4123
   31DOPE    C1 3886   3.621   3.861   2.948  0.1588 -0.0074 -0.4610
   31DOPE    HA 3887   3.617   3.776   2.876 -0.1963  0.9691 -1.6275
   31DOPE    HB 3888   3.533   3.924   2.923  0.9143  0.7839 -1.1640
   31DOPE    C2 3889   3.622   3.823   3.105  0.1722 -0.4472 -0.2028
   31DOPE    HS 3890   3.528   3.765   3.110  0.4480 -0.8230  1.0557
   31DOPE   O21 3891   3.628   3.933   3.195 -0.5135 -0.1417 -0.6867
   31DOPE   C21 3892   3.524   3.997   3.224 -0.0763  0.2069  0.0130
   31DOPE   O22 3893   3.407   3.966   3.202 -0.3169 -0.4084 -0.1272
   31DOPE   C22 3894   3.552   4.123   3.306 -0.0804  0.8661 -0.4035
   31DOPE   H2R 3895   3.593   4.210   3.250  0.7585  1.9936  1.8502
   31DOPE   H2S 3896   3.641   4.090   3.365  0.4984  1.4071 -0.9495
   31DOPE    C3 3897   3.743   3.737   3.140 -0.3382  0.2197 -0.0842
   31DOPE    HX 3898   3.839   3.793   3.139  1.3788 -2.5043  0.3992
   31DOPE    HY 3899   3.762   3.665   3.058  0.3730  0.3084 -0.0072
   31DOPE   O31 3900   3.727   3.657   3.256 -0.2599  0.4231 -0.8273
   31DOPE   C31 3901   3.788   3.695   3.369  0.2792 -0.1364  0.0877
   31DOPE   O32 3902   3.856   3.795   3.381  0.0363  0.0555 -0.2113
   31DOPE   C32 3903   3.749   3.602   3.478 -0.2699 -0.0630  0.5376
   31DOPE   H2X 3904   3.642   3.619   3.503 -0.3705  0.4669 -0.2228
   31DOPE   H2Y 3905   3.766   3.496   3.450 -1.4147 -0.3563  0.9048
   31DOPE   C23 3906   3.436   4.152   3.403 -1.0389 -0.5864 -0.0691
   31DOPE   H3R 3907   3.410   4.058   3.456 -1.0347 -0.5549 -0.0111
   31DOPE   H3S 3908   3.348   4.190   3.348  1.2755  2.2990 -2.0901
   31DOPE   C24 3909   3.480   4.260   3.499  0.4946 -0.6458  0.0206
   31DOPE   H4R 3910   3.488   4.355   3.441 -1.4006 -0.4107  0.0707
   31DOPE   H4S 3911   3.579   4.225   3.534  0.5970  0.2062  0.6132
   31DOPE   C25 3912   3.388   4.282   3.617  1.0039 -0.7924 -0.1558
   31DOPE   H5R 3913   3.371   4.185   3.669  1.7958 -0.4900  0.6953
   31DOPE   H5S 3914   3.286   4.311   3.585  0.8688  0.5684  1.3550
   31DOPE   C26 3915   3.439   4.378   3.722  0.1719 -0.0895 -0.0600
   31DOPE   H6R 3916   3.438   4.483   3.685 -1.6198  0.6418  1.8762
   31DOPE   H6S 3917   3.538   4.362   3.769 -0.2196  0.3646  0.9437
   31DOPE   C27 3918   3.356   4.373   3.857 -0.2035 -0.5022  0.5860
   31DOPE   H7R 3919   3.335   4.265   3.870  0.3074 -0.9531 -1.8952
   31DOPE   H7S 3920   3.258   4.420   3.837  1.0175  1.3109 -1.7993
   31DOPE   C28 3921   3.427   4.444   3.969  0.4310 -0.1747 -0.2140
   31DOPE   H8R 3922   3.433   4.550   3.936  0.2624 -0.4518 -1.1432
   31DOPE   H8S 3923   3.530   4.415   4.000 -0.0903  0.8575  2.8157
   31DOPE   C29 3924   3.339   4.441   4.095  0.2147  0.0625  0.3653
   31DOPE   H9R 3925   3.236   4.407   4.077  0.5173  0.5231 -2.7942
   31DOPE  C210 3926   3.390   4.459   4.215 -0.2380 -0.6240 -0.5929
   31DOPE  H10R 3927   3.320   4.472   4.299  0.6992  1.5205 -0.0510
   31DOPE  C211 3928   3.530   4.498   4.256 -0.0347  0.0556 -0.3489
   31DOPE  H11R 3929   3.577   4.537   4.163  0.8136  1.2045  0.5426
   31DOPE  H11S 3930   3.568   4.397   4.283 -2.7055 -1.4046 -1.5965
   31DOPE  C212 3931   3.554   4.601   4.361 -0.3072 -0.2782  0.2817
   31DOPE  H12R 3932   3.499   4.695   4.337  1.0812  0.6461  0.6113
   31DOPE  H12S 3933   3.662   4.619   4.343  0.3056 -3.2806  0.5574
   31DOPE  C213 3934   3.526   4.547   4.497 -0.8253 -0.0870 -0.5658
   31DOPE  H13R 3935   3.578   4.449   4.509  1.3180  0.8573 -1.6435
   31DOPE  H13S 3936   3.418   4.523   4.510 -0.1168 -3.0912  0.7042
   31DOPE  C214 3937   3.572   4.642   4.610  0.7371 -0.0685 -0.3145
   31DOPE  H14R 3938   3.545   4.581   4.699  0.2239 -1.4881 -1.4021
   31DOPE  H14S 3939   3.526   4.743   4.610  0.4710 -0.1874 -0.1058
   31DOPE  C215 3940   3.722   4.654   4.595 -0.2613 -0.1755 -0.1811
   31DOPE  H15R 3941   3.757   4.737   4.529  0.0275 -2.0500 -2.5167
   31DOPE  H15S 3942   3.763   4.555   4.567  0.1594  0.0888 -0.5191
   31DOPE  C216 3943   3.789   4.688   4.727 -0.0959 -0.5690  0.1037
   31DOPE  H16R 3944   3.781   4.597   4.789 -1.1877 -0.9859 -0.6028
   31DOPE  H16S 3945   3.731   4.776   4.765 -0.4001 -0.4569 -0.5987
   31DOPE  C217 3946   3.931   4.750   4.719 -0.1905  0.7200 -0.5512
   31DOPE  H17R 3947   3.914   4.831   4.645  1.2481  0.5324 -1.1179
   31DOPE  H17S 3948   3.998   4.677   4.669  1.1924  0.1230  2.0138
   31DOPE  C218 3949   3.999   4.800   4.844  0.3103 -0.2615  0.7996
   31DOPE  H18R 3950   4.040   4.715   4.903  0.5164 -0.0872  0.9079
   31DOPE  H18S 3951   3.924   4.844   4.913 -0.1290  2.0506 -1.0526
   31DOPE  H18T 3952   4.074   4.879   4.819 -1.8358  1.1959 -1.4971
   31DOPE   C33 3953   3.832   3.633   3.601  0.3523  0.3596  0.1675
   31DOPE   H3X 3954   3.786   3.729   3.633 -1.0502 -0.3383  0.3244
   31DOPE   H3Y 3955   3.940   3.647   3.575 -0.0975  0.0413 -2.1307
   31DOPE   C34 3956   3.829   3.523   3.714  0.1253  0.3505 -0.1256
   31DOPE   H4X 3957   3.726   3.524   3.755 -0.9559  1.1140 -2.6847
   31DOPE   H4Y 3958   3.828   3.428   3.657 -0.9671  1.4192 -1.9435
   31DOPE   C35 3959   3.941   3.532   3.817 -0.0262 -0.0834 -0.2243
   31DOPE   H5X 3960   3.952   3.636   3.853  0.3053  0.0863 -0.8067
   31DOPE   H5Y 3961   4.039   3.515   3.767  1.1330  0.0958  1.8897
   31DOPE   C36 3962   3.932   3.435   3.941  0.7803 -0.1059  0.5022
   31DOPE   H6X 3963   3.933   3.332   3.901  0.8424 -1.3860  3.5714
   31DOPE   H6Y 3964   3.836   3.454   3.993  1.5514  0.5469  1.7510
   31DOPE   C37 3965   4.038   3.451   4.050 -1.2383  0.5916  0.2754
   31DOPE   H7X 3966   4.084   3.355   4.080  0.8358  0.4088 -2.9783
   31DOPE   H7Y 3967   4.122   3.492   3.989 -0.5828 -0.4104  0.4898
   31DOPE   C38 3968   4.004   3.552   4.154 -0.3991 -0.0249 -0.4982
   31DOPE   H8X 3969   3.995   3.653   4.110  0.5257  0.1505 -0.3053
   31DOPE   H8Y 3970   4.090   3.554   4.225 -1.1255  1.3069  0.3884
   31DOPE   C39 3971   3.889   3.508   4.236  0.1414  0.1590 -0.1733
   31DOPE   H9X 3972   3.794   3.543   4.195 -1.3989 -2.2418  1.0853
   31DOPE  C310 3973   3.886   3.431   4.345 -0.1965 -0.2756 -0.0171
   31DOPE  H10X 3974   3.791   3.427   4.400 -0.7946  2.2125 -0.7006
   31DOPE  C311 3975   4.002   3.383   4.413 -0.3327  0.0010  0.3042
   31DOPE  H11X 3976   4.068   3.324   4.347 -2.1587  0.0167 -1.6247
   31DOPE  H11Y 3977   4.057   3.472   4.451  1.7409 -0.9486 -0.3129
   31DOPE  C312 3978   3.964   3.305   4.539 -0.0519 -0.7967 -0.1158
   31DOPE  H12X 3979   4.046   3.231   4.555  0.6318 -0.4303 -1.6770
   31DOPE  H12Y 3980   3.866   3.254   4.541 -0.3048 -0.3052  0.1720
   31DOPE  C313 3981   3.963   3.397   4.664  0.1621 -0.8999 -0.3121
   31DOPE  H13X 3982   3.977   3.334   4.755  1.2088  0.7904  0.7529
   31DOPE  H13Y 3983   4.052   3.462   4.673  0.4494 -1.2320 -0.7108
   31DOPE  C314 3984   3.839   3.478   4.681  0.0862  0.0949 -0.2185
   31DOPE  H14X 3985   3.753   3.410   4.663  1.9971 -2.6747  0.4711
   31DOPE  H14Y 3986   3.845   3.556   4.602 -0.1540  0.0253 -0.3074
   31DOPE  C315 3987   3.823   3.547   4.814  0.4005  0.6570 -0.5332
   31DOPE  H15X 3988   3.909   3.614   4.835 -0.1200  1.6235 -1.3952
   31DOPE  H15Y 3989   3.811   3.476   4.898 -0.5083  0.8992 -0.4473
   31DOPE  C316 3990   3.696   3.635   4.826 -0.5872 -0.0401 -0.1620
   31DOPE  H16X 3991   3.600   3.579   4.833  0.0390 -1.0960  0.1301
   31DOPE  H16Y 3992   3.690   3.683   4.726 -0.3194  0.3848  0.0249
   31DOPE  C317 3993   3.706   3.752   4.925 -0.4115  0.1815  0.1478
   31DOPE  H17X 3994   3.611   3.810   4.931 -0.7284 -0.4368  1.2022
   31DOPE  H17Y 3995   3.734   3.712   5.024  1.5129  0.0792 -0.3971
   31DOPE  C318 3996   3.815   3.853   4.896  0.3253 -0.7142 -0.1164
   31DOPE  H18X 3997   3.914   3.818   4.930  1.3987 -0.0666 -2.3421
   31DOPE  H18Y 3998   3.821   3.880   4.788 -0.2821 -0.8066 -0.1786
   31DOPE  H18Z 3999   3.786   3.941   4.957 -1.3248 -2.4695  1.7713
   32DOPE     N 4000   6.169   3.391   2.851  0.1922 -0.3872 -0.0348
   32DOPE   HN1 4001   6.080   3.401   2.903  0.8761 -2.7602  1.7647
   32DOPE   HN2 4002   6.164   3.302   2.798 -1.1460 -0.4713  0.1840
   32DOPE   HN3 4003   6.241   3.376   2.924 -0.5196  2.2843  1.3509
   32DOPE   C12 4004   6.196   3.515   2.768 -0.0274  0.0346 -0.2246
   32DOPE  H12A 4005   6.293   3.501   2.716 -0.3075 -1.2768 -0.4317
   32DOPE  H12B 4006   6.194   3.594   2.846 -0.8295 -0.6856  0.5076
   32DOPE   C11 4007   6.082   3.538   2.667  0.1865 -0.1291 -0.2733
   32DOPE  H11A 4008   6.088   3.460   2.588 -0.2657  1.5847 -2.0829
   32DOPE  H11B 4009   6.098   3.639   2.623 -2.0983  0.2474 -0.3535
   32DOPE     P 4010   5.882   3.664   2.769  0.0962  0.2726 -0.0924
   32DOPE   O13 4011   5.757   3.627   2.837  0.3022 -0.6322  0.4674
   32DOPE   O14 4012   5.875   3.739   2.641  0.1658  0.2056  0.4766
   32DOPE   O11 4013   5.980   3.741   2.864  0.4626  0.1994  0.0891
   32DOPE   O12 4014   5.952   3.532   2.735  0.1635  0.5095  0.2055
   32DOPE    C1 4015   6.003   3.691   3.001 -0.1241 -0.7698 -0.2303
   32DOPE    HA 4016   6.055   3.594   2.996 -0.8237 -1.1225 -0.9338
   32DOPE    HB 4017   5.912   3.685   3.066  0.2930  0.8374  0.5812
   32DOPE    C2 4018   6.104   3.781   3.076 -0.0188 -0.6616  0.0535
   32DOPE    HS 4019   6.154   3.835   2.993  2.1244 -0.1806  1.5590
   32DOPE   O21 4020   6.186   3.699   3.158 -0.5559 -0.2264  0.3748
   32DOPE   C21 4021   6.304   3.752   3.183  0.1343  1.1259  0.1527
   32DOPE   O22 4022   6.354   3.849   3.127 -0.1799  0.4140  0.1053
   32DOPE   C22 4023   6.378   3.667   3.285 -0.7907  0.1851  0.1919
   32DOPE   H2R 4024   6.486   3.670   3.257 -1.1943  0.7305 -1.3953
   32DOPE   H2S 4025   6.347   3.560   3.278  1.9317 -0.6652 -0.0198
   32DOPE    C3 4026   6.047   3.887   3.174 -0.0531 -0.1511 -0.3465
   32DOPE    HX 4027   5.995   3.958   3.106  1.9846  1.2524 -0.5487
   32DOPE    HY 4028   6.125   3.951   3.221  0.4442 -0.1290 -1.1853
   32DOPE   O31 4029   5.954   3.829   3.263  0.0491  0.0914 -0.2882
   32DOPE   C31 4030   5.979   3.822   3.392 -0.0501  0.0517  0.3309
   32DOPE   O32 4031   6.068   3.881   3.449 -0.3183 -0.1309  0.1039
   32DOPE   C32 4032   5.874   3.744   3.463 -0.4723  0.3785  0.5069
   32DOPE   H2X 4033   5.802   3.707   3.386  0.1940 -0.9912  0.5053
   32DOPE   H2Y 4034   5.918   3.661   3.523 -1.0888 -0.2682  0.0905
   32DOPE   C23 4035   6.365   3.713   3.428 -0.1535 -0.9635  0.0497
   32DOPE   H3R 4036   6.271   3.672   3.470 -1.8560  2.8495  0.4084
   32DOPE   H3S 4037   6.355   3.823   3.445 -1.4027 -0.7431 -1.8384
   32DOPE   C24 4038   6.477   3.660   3.516  0.2341 -0.2884  0.1890
   32DOPE   H4R 4039   6.579   3.683   3.478 -0.1477 -1.3765 -1.6221
   32DOPE   H4S 4040   6.479   3.550   3.500 -0.5617 -0.2262 -0.4545
   32DOPE   C25 4041   6.458   3.681   3.663 -0.2997 -0.2091 -0.6384
   32DOPE   H5R 4042   6.519   3.606   3.717 -0.1816  0.3149 -0.0241
   32DOPE   H5S 4043   6.353   3.664   3.696  0.4705 -1.9700  1.1424
   32DOPE   C26 4044   6.512   3.821   3.701 -0.5443 -0.3362 -0.0817
   32DOPE   H6R 4045   6.454   3.907   3.664  0.3880 -0.0090 -0.8258
   32DOPE   H6S 4046   6.620   3.821   3.673 -0.6909  0.6255 -0.6807
   32DOPE   C27 4047   6.520   3.841   3.860  0.0619  0.2134  0.4779
   32DOPE   H7R 4048   6.577   3.933   3.885  1.7805 -0.9688  1.0743
   32DOPE   H7S 4049   6.573   3.753   3.903 -0.6565 -0.1521  0.6388
   32DOPE   C28 4050   6.374   3.848   3.922  0.1521 -0.5912 -0.1186
   32DOPE   H8R 4051   6.339   3.742   3.925 -0.3447 -0.4156  1.4215
   32DOPE   H8S 4052   6.297   3.900   3.862 -1.8357 -0.2820  2.4963
   32DOPE   C29 4053   6.396   3.914   4.054 -0.0858  0.2487  0.3868
   32DOPE   H9R 4054   6.419   4.022   4.046  1.4239 -0.0765 -0.1747
   32DOPE  C210 4055   6.376   3.856   4.173  0.1346  0.2002 -0.8109
   32DOPE  H10R 4056   6.379   3.909   4.270 -3.0164  0.5206 -0.7618
   32DOPE  C211 4057   6.350   3.709   4.201 -0.5126  0.3753  0.4735
   32DOPE  H11R 4058   6.416   3.680   4.285  1.9217  2.7713 -0.4105
   32DOPE  H11S 4059   6.361   3.644   4.112 -1.6261 -0.2129  0.7559
   32DOPE  C212 4060   6.207   3.684   4.263 -0.0440 -1.0467 -0.5569
   32DOPE  H12R 4061   6.135   3.705   4.181 -1.8269  2.6217  1.6465
   32DOPE  H12S 4062   6.188   3.766   4.336  0.4884  0.7016 -2.2818
   32DOPE  C213 4063   6.164   3.548   4.314 -0.5751  0.1206 -0.4729
   32DOPE  H13R 4064   6.165   3.465   4.240 -4.6139 -1.5625  1.0459
   32DOPE  H13S 4065   6.060   3.563   4.350 -0.2749 -0.7217  0.8620
   32DOPE  C214 4066   6.231   3.486   4.437 -0.5127 -0.2588  0.1496
   32DOPE  H14R 4067   6.337   3.459   4.416 -0.7087 -1.7999  0.9753
   32DOPE  H14S 4068   6.172   3.393   4.449 -1.9810  0.5046 -0.9393
   32DOPE  C215 4069   6.231   3.572   4.567 -0.0801  0.0716  0.1108
   32DOPE  H15R 4070   6.128   3.587   4.604 -0.6883 -1.5760 -0.8108
   32DOPE  H15S 4071   6.275   3.669   4.535 -0.2781 -0.2223 -1.1363
   32DOPE  C216 4072   6.322   3.519   4.674  0.0799 -0.0584 -0.4569
   32DOPE  H16R 4073   6.295   3.412   4.685 -0.5157  0.2135  0.8390
   32DOPE  H16S 4074   6.304   3.560   4.775  2.0352 -0.1033 -0.0492
   32DOPE  C217 4075   6.473   3.541   4.650  0.4323  0.8401  0.2700
   32DOPE  H17R 4076   6.493   3.648   4.626 -0.1817  0.6415 -1.2021
   32DOPE  H17S 4077   6.501   3.471   4.569 -0.2104 -1.0652  1.6224
   32DOPE  C218 4078   6.551   3.508   4.776  0.4446 -0.1603 -0.2045
   32DOPE  H18R 4079   6.654   3.549   4.767  1.3873 -2.3253  0.1567
   32DOPE  H18S 4080   6.553   3.400   4.798 -1.0601  0.1318  1.5931
   32DOPE  H18T 4081   6.500   3.554   4.864  0.9574  0.2933 -0.1398
   32DOPE   C33 4082   5.794   3.836   3.566 -0.8152  0.2477 -0.0940
   32DOPE   H3X 4083   5.718   3.900   3.515 -1.1916  0.3913  0.6278
   32DOPE   H3Y 4084   5.859   3.902   3.627 -0.1586 -1.4663  1.1522
   32DOPE   C34 4085   5.728   3.740   3.675 -0.4998  0.3944  0.9410
   32DOPE   H4X 4086   5.655   3.670   3.630 -0.0424  0.5407 -0.0488
   32DOPE   H4Y 4087   5.804   3.675   3.723 -1.1933 -1.6886 -0.6414
   32DOPE   C35 4088   5.654   3.826   3.775 -0.0948 -0.5264 -0.2262
   32DOPE   H5X 4089   5.562   3.864   3.725 -0.9174 -0.3178  1.3904
   32DOPE   H5Y 4090   5.729   3.903   3.802 -1.3756 -0.0961  2.3817
   32DOPE   C36 4091   5.609   3.746   3.895 -0.7178 -0.0336 -0.3019
   32DOPE   H6X 4092   5.700   3.707   3.946  0.7547  3.0225 -0.3370
   32DOPE   H6Y 4093   5.552   3.655   3.866 -1.6542  0.2808  0.5058
   32DOPE   C37 4094   5.517   3.830   3.990 -0.3725 -0.2570 -0.4405
   32DOPE   H7X 4095   5.562   3.932   3.999 -0.9176 -0.1990  2.7705
   32DOPE   H7Y 4096   5.416   3.843   3.945 -0.4743  0.0825 -0.1181
   32DOPE   C38 4097   5.516   3.788   4.138 -0.4624  0.0482 -0.3546
   32DOPE   H8X 4098   5.475   3.868   4.202  1.0180  0.7691 -0.2459
   32DOPE   H8Y 4099   5.621   3.780   4.173 -0.9488 -1.2933  0.8896
   32DOPE   C39 4100   5.448   3.657   4.158  0.2925 -0.5603 -0.1313
   32DOPE   H9X 4101   5.461   3.588   4.073 -2.0800 -1.5463  0.2473
   32DOPE  C310 4102   5.364   3.618   4.254  0.5056 -0.5292  1.0279
   32DOPE  H10X 4103   5.334   3.512   4.252 -4.7331  0.6745 -1.0377
   32DOPE  C311 4104   5.333   3.705   4.369 -0.0122  0.2060 -0.6897
   32DOPE  H11X 4105   5.413   3.781   4.382  2.4056 -2.3989  0.9312
   32DOPE  H11Y 4106   5.242   3.767   4.357 -0.5562 -0.6893 -1.2739
   32DOPE  C312 4107   5.333   3.632   4.514 -0.5426 -0.1216  0.0216
   32DOPE  H12X 4108   5.436   3.593   4.530 -0.7642 -1.0713 -0.7374
   32DOPE  H12Y 4109   5.267   3.542   4.513  1.5068 -1.6989 -1.1796
   32DOPE  C313 4110   5.298   3.738   4.620 -0.5052 -0.3557  0.1665
   32DOPE  H13X 4111   5.359   3.826   4.591 -0.4749 -0.4678 -0.1189
   32DOPE  H13Y 4112   5.196   3.778   4.608 -0.5659 -0.6800 -0.4599
   32DOPE  C314 4113   5.328   3.703   4.767 -1.1526 -0.2878  0.5008
   32DOPE  H14X 4114   5.328   3.797   4.826  0.1949  1.4242 -2.0305
   32DOPE  H14Y 4115   5.422   3.647   4.784 -0.3079  0.3008 -1.8432
   32DOPE  C315 4116   5.220   3.613   4.822  1.0671 -0.3836 -0.0550
   32DOPE  H15X 4117   5.217   3.511   4.778 -1.3034 -0.9065  1.1730
   32DOPE  H15Y 4118   5.123   3.658   4.793  1.1090 -1.0768 -1.3627
   32DOPE  C316 4119   5.225   3.619   4.979 -0.1054 -0.2886  0.4684
   32DOPE  H16X 4120   5.218   3.720   5.025 -0.5624  0.6361 -1.5112
   32DOPE  H16Y 4121   5.331   3.602   5.006 -0.1477  1.4024  1.9554
   32DOPE  C317 4122   5.129   3.516   5.040 -0.4136 -0.1166  0.2195
   32DOPE  H17X 4123   5.037   3.573   5.018 -0.0486  0.2052 -0.5410
   32DOPE  H17Y 4124   5.126   3.418   4.986  1.0370  0.1144 -0.3210
   32DOPE  C318 4125   5.155   3.486   5.186  0.5576  0.3483 -0.8866
   32DOPE  H18X 4126   5.256   3.445   5.206 -0.2053 -1.1187  0.1309
   32DOPE  H18Y 4127   5.142   3.574   5.254  1.5489  1.1444 -1.6937
   32DOPE  H18Z 4128   5.086   3.409   5.227  1.3484  0.2218  0.2680
   33DOPE     N 4129   4.060   2.959   3.135 -0.4033  0.2668  0.1513
   33DOPE   HN1 4130   3.958   2.960   3.117 -0.2386  1.7405 -0.8827
   33DOPE   HN2 4131   4.102   2.971   3.041 -1.3258  0.9781 -0.1783
   33DOPE   HN3 4132   4.088   2.863   3.163 -2.3190 -0.4076 -0.0791
   33DOPE   C12 4133   4.109   3.049   3.251  0.6532 -0.0435  0.9680
   33DOPE  H12A 4134   4.081   3.021   3.355  1.9052 -1.9628  0.8645
   33DOPE  H12B 4135   4.065   3.148   3.227  1.1277  0.4731  2.1397
   33DOPE   C11 4136   4.268   3.055   3.253  0.3245  0.1334  0.0558
   33DOPE  H11A 4137   4.310   2.952   3.246  0.0364  0.0540 -0.5054
   33DOPE  H11B 4138   4.290   3.098   3.353  0.6446 -2.6718  1.2872
   33DOPE     P 4139   4.282   3.258   3.080  0.4018  0.1976 -0.2465
   33DOPE   O13 4140   4.153   3.236   3.015  0.1511 -0.1787 -0.6033
   33DOPE   O14 4141   4.387   3.308   2.993 -0.4277  0.0395  0.6733
   33DOPE   O11 4142   4.259   3.346   3.210 -0.0517  0.0373  0.0018
   33DOPE   O12 4143   4.332   3.120   3.143 -0.1833  0.1449  0.3884
   33DOPE    C1 4144   4.370   3.404   3.272 -0.8769 -0.4273 -0.2561
   33DOPE    HA 4145   4.419   3.472   3.199 -0.3436 -1.8917 -1.2915
   33DOPE    HB 4146   4.440   3.322   3.298  0.4165  0.9979  0.9487
   33DOPE    C2 4147   4.326   3.494   3.390  0.2885 -0.1993 -0.3248
   33DOPE    HS 4148   4.421   3.528   3.437 -0.6854  0.1819  1.4237
   33DOPE   O21 4149   4.245   3.427   3.488 -0.9972 -0.1095 -0.5209
   33DOPE   C21 4150   4.309   3.319   3.544 -0.3436  0.0944  0.4038
   33DOPE   O22 4151   4.425   3.298   3.550  0.8389 -0.7433 -0.1358
   33DOPE   C22 4152   4.199   3.236   3.602  0.2297 -0.8029  0.5377
   33DOPE   H2R 4153   4.113   3.228   3.532  0.1851 -1.5007  0.6631
   33DOPE   H2S 4154   4.162   3.287   3.694 -0.7771 -0.8089  0.1558
   33DOPE    C3 4155   4.247   3.621   3.344 -0.7195 -0.3147  0.4932
   33DOPE    HX 4156   4.147   3.598   3.302 -0.0979 -0.5030 -0.9489
   33DOPE    HY 4157   4.315   3.647   3.260  1.3651 -0.5028  2.0271
   33DOPE   O31 4158   4.238   3.720   3.446  0.4637 -0.2387  0.2476
   33DOPE   C31 4159   4.198   3.836   3.394  0.1053 -0.5657 -0.5093
   33DOPE   O32 4160   4.177   3.854   3.278  0.1312  0.6211  0.6294
   33DOPE   C32 4161   4.206   3.947   3.496  0.2980  0.2699  0.0983
   33DOPE   H2X 4162   4.309   3.952   3.537  0.3223 -0.2271  0.1014
   33DOPE   H2Y 4163   4.191   4.041   3.438  0.2345  0.1097 -0.1443
   33DOPE   C23 4164   4.241   3.099   3.644  0.4262  0.0841 -0.3405
   33DOPE   H3R 4165   4.345   3.100   3.683  0.1003 -1.2327  0.6177
   33DOPE   H3S 4166   4.247   3.034   3.554  1.7705  0.3751 -0.4760
   33DOPE   C24 4167   4.152   3.023   3.737  0.3819 -0.2022  0.3097
   33DOPE   H4R 4168   4.167   2.918   3.704  0.3922  0.4504 -1.9493
   33DOPE   H4S 4169   4.047   3.055   3.720  0.5426  0.9324  1.2545
   33DOPE   C25 4170   4.187   3.047   3.885 -0.1447 -0.2988 -0.8749
   33DOPE   H5R 4171   4.188   3.158   3.895  0.8019 -0.3582 -0.2198
   33DOPE   H5S 4172   4.291   3.019   3.909 -0.3671 -0.7361 -0.4000
   33DOPE   C26 4173   4.096   2.964   3.980  0.2879  0.2499  0.1600
   33DOPE   H6R 4174   4.109   2.861   3.942  1.3284  0.2458  0.4986
   33DOPE   H6S 4175   3.989   2.994   3.972 -0.0298 -1.0277 -0.6405
   33DOPE   C27 4176   4.143   2.988   4.126 -0.1819 -0.1173 -0.6422
   33DOPE   H7R 4177   4.152   3.097   4.145  0.6195 -0.4326  0.8867
   33DOPE   H7S 4178   4.245   2.943   4.124  0.4917  1.1348  2.0822
   33DOPE   C28 4179   4.055   2.924   4.237  0.1404  0.5128  0.5459
   33DOPE   H8R 4180   3.952   2.967   4.240 -0.1732 -0.2638  1.4324
   33DOPE   H8S 4181   4.103   2.947   4.334 -0.8752  1.0697  0.9286
   33DOPE   C29 4182   4.032   2.778   4.211  0.2894 -0.1766 -0.3447
   33DOPE   H9R 4183   4.013   2.753   4.105  1.5030 -0.9508 -0.3970
   33DOPE  C210 4184   4.043   2.677   4.302  0.1230  0.6389 -0.5528
   33DOPE  H10R 4185   4.040   2.577   4.256 -0.5806  0.7633 -0.7876
   33DOPE  C211 4186   4.069   2.693   4.450  0.0009 -0.2883  0.0916
   33DOPE  H11R 4187   4.019   2.789   4.476 -2.0564 -1.4182  0.5320
   33DOPE  H11S 4188   4.178   2.697   4.470 -0.0386 -0.0629  0.2609
   33DOPE  C212 4189   4.023   2.569   4.527  0.3997  0.0767  0.2737
   33DOPE  H12R 4190   4.072   2.481   4.480  0.1840  0.2712 -0.3161
   33DOPE  H12S 4191   3.914   2.563   4.511  0.2054  0.9065  1.1834
   33DOPE  C213 4192   4.063   2.575   4.672 -0.4828  0.0020 -0.2841
   33DOPE  H13R 4193   4.142   2.653   4.684 -0.3249  0.3797 -3.0485
   33DOPE  H13S 4194   4.108   2.479   4.703 -1.3340  0.0876  1.3233
   33DOPE  C214 4195   3.946   2.623   4.756  0.1819 -0.0114  0.6211
   33DOPE  H14R 4196   3.870   2.544   4.733  0.8067 -0.4572  0.0418
   33DOPE  H14S 4197   3.916   2.723   4.720  2.6058  0.1134 -1.2565
   33DOPE  C215 4198   3.977   2.628   4.911 -0.1109 -0.5044  0.6790
   33DOPE  H15R 4199   4.060   2.699   4.929 -0.5627  0.4207 -0.6984
   33DOPE  H15S 4200   4.015   2.528   4.943 -1.9280 -1.7879 -0.9224
   33DOPE  C216 4201   3.858   2.668   4.993 -0.3375 -0.0040 -0.0130
   33DOPE  H16R 4202   3.774   2.600   4.968 -0.2844  0.4665 -1.5587
   33DOPE  H16S 4203   3.814   2.769   4.985  0.3461  0.4062  1.2148
   33DOPE  C217 4204   3.896   2.646   5.141  0.1198  0.1360  0.5688
   33DOPE  H17R 4205   3.992   2.694   5.170 -1.6590  2.8488  2.5255
   33DOPE  H17S 4206   3.906   2.538   5.160  0.5789 -0.1885 -1.2601
   33DOPE  C218 4207   3.790   2.693   5.242 -0.4271  0.2006 -0.0759
   33DOPE  H18R 4208   3.816   2.639   5.336 -0.5071 -0.9712 -0.7013
   33DOPE  H18S 4209   3.692   2.649   5.215  0.1922 -1.6708  0.5502
   33DOPE  H18T 4210   3.779   2.803   5.241 -4.4465 -0.0525 -1.5904
   33DOPE   C33 4211   4.092   3.937   3.600 -0.2923 -0.3052 -0.6336
   33DOPE   H3X 4212   3.999   3.900   3.550  0.7413 -1.6738 -1.6075
   33DOPE   H3Y 4213   4.086   4.039   3.645 -1.5308 -0.7559  0.2847
   33DOPE   C34 4214   4.116   3.836   3.712  0.0551 -0.7321 -0.4853
   33DOPE   H4X 4215   4.031   3.858   3.780  1.6405  0.8687  1.0881
   33DOPE   H4Y 4216   4.104   3.729   3.684 -0.7910 -1.2097  1.5330
   33DOPE   C35 4217   4.242   3.867   3.803 -0.0103 -0.3871  1.3703
   33DOPE   H5X 4218   4.264   3.975   3.821 -0.2119 -0.3224  1.2282
   33DOPE   H5Y 4219   4.330   3.827   3.749  0.7831  0.6141  1.8761
   33DOPE   C36 4220   4.242   3.802   3.936  0.6702  0.1725 -0.1686
   33DOPE   H6X 4221   4.207   3.696   3.937 -0.2103  0.4406 -0.8636
   33DOPE   H6Y 4222   4.173   3.862   3.999  1.8077  0.7576  0.5500
   33DOPE   C37 4223   4.391   3.820   3.987 -0.5763 -0.0292 -0.7524
   33DOPE   H7X 4224   4.440   3.725   3.956  0.8934  0.5973 -0.4778
   33DOPE   H7Y 4225   4.449   3.898   3.933 -2.9158  1.1171 -1.7159
   33DOPE   C38 4226   4.414   3.851   4.140  0.2164  0.5294  0.8453
   33DOPE   H8X 4227   4.361   3.945   4.165  1.8735  2.3610 -1.8934
   33DOPE   H8Y 4228   4.524   3.865   4.154  0.4316  1.0994 -1.0204
   33DOPE   C39 4229   4.348   3.747   4.233  0.0628 -0.9335 -0.9801
   33DOPE   H9X 4230   4.244   3.723   4.206  0.1558  0.1901 -2.4967
   33DOPE  C310 4231   4.392   3.683   4.343  0.2020  0.0639  0.0501
   33DOPE  H10X 4232   4.313   3.625   4.393  0.3503  0.3199  0.5840
   33DOPE  C311 4233   4.516   3.686   4.425  0.9295 -0.1036  0.3658
   33DOPE  H11X 4234   4.560   3.585   4.438  1.2704 -0.0733 -0.5310
   33DOPE  H11Y 4235   4.598   3.745   4.378  0.2928  1.8416  1.5505
   33DOPE  C312 4236   4.485   3.727   4.572 -0.0351  0.7767  0.5118
   33DOPE  H12X 4237   4.432   3.824   4.582 -0.3338  0.6244  0.4253
   33DOPE  H12Y 4238   4.581   3.738   4.626 -0.1107  0.1851  0.7769
   33DOPE  C313 4239   4.400   3.626   4.646  0.5084  0.4687  0.3191
   33DOPE  H13X 4240   4.304   3.614   4.590 -0.0977  0.8755  1.2333
   33DOPE  H13Y 4241   4.457   3.531   4.652 -0.4045 -0.0594  1.1344
   33DOPE  C314 4242   4.366   3.661   4.790 -0.3072  0.1048 -0.5038
   33DOPE  H14X 4243   4.284   3.735   4.803 -0.0169  0.3438  0.0236
   33DOPE  H14Y 4244   4.463   3.699   4.829 -0.9012  0.1442  1.0145
   33DOPE  C315 4245   4.326   3.543   4.882  0.4042 -0.5711 -0.4425
   33DOPE  H15X 4246   4.398   3.460   4.861  1.2424 -0.0378  0.2695
   33DOPE  H15Y 4247   4.225   3.506   4.855 -0.4099  2.0214 -1.2197
   33DOPE  C316 4248   4.324   3.583   5.035 -0.6008  0.1098 -1.0466
   33DOPE  H16X 4249   4.241   3.654   5.056  0.4639  1.1806 -0.3562
   33DOPE  H16Y 4250   4.419   3.633   5.062 -0.8449  1.8902 -3.1797
   33DOPE  C317 4251   4.304   3.450   5.111  0.5025 -0.0442  0.0390
   33DOPE  H17X 4252   4.215   3.399   5.068  2.1377 -1.7701 -1.4950
   33DOPE  H17Y 4253   4.378   3.374   5.078  1.0122  0.9763 -1.1933
   33DOPE  C318 4254   4.300   3.458   5.259  0.4798  0.4568 -0.3347
   33DOPE  H18X 4255   4.360   3.539   5.305  1.2838 -0.3649  0.0849
   33DOPE  H18Y 4256   4.198   3.496   5.280  0.5335  0.4429 -0.0401
   33DOPE  H18Z 4257   4.330   3.357   5.295  0.1689  0.4435 -0.1097
   34DOPE     N 4258   4.629   4.471   3.144 -0.3041 -0.3900  0.7649
   34DOPE   HN1 4259   4.590   4.452   3.049 -0.0285  0.7662  0.3925
   34DOPE   HN2 4260   4.643   4.574   3.142  0.3416 -0.4374  2.1459
   34DOPE   HN3 4261   4.724   4.429   3.152 -0.1235 -0.4853 -1.3041
   34DOPE   C12 4262   4.523   4.433   3.246  0.3606 -0.0823  0.9489
   34DOPE  H12A 4263   4.573   4.438   3.345  1.1330  0.0821  0.5553
   34DOPE  H12B 4264   4.489   4.330   3.224 -1.2573  0.3728  1.2034
   34DOPE   C11 4265   4.401   4.530   3.233  0.4769  0.0324  0.1469
   34DOPE  H11A 4266   4.322   4.492   3.300 -1.1567  1.0253 -1.1390
   34DOPE  H11B 4267   4.366   4.522   3.128 -0.1149 -0.5966  0.3873
   34DOPE     P 4268   4.349   4.786   3.213  0.0013  0.4252 -0.0087
   34DOPE   O13 4269   4.313   4.772   3.068 -0.3679 -0.6678 -0.1477
   34DOPE   O14 4270   4.420   4.911   3.255  0.1298  0.2540 -0.0694
   34DOPE   O11 4271   4.221   4.770   3.305 -0.1189 -0.3017 -0.3737
   34DOPE   O12 4272   4.446   4.667   3.260  0.3134  0.2132  0.6052
   34DOPE    C1 4273   4.213   4.847   3.432  0.1817  0.6383 -0.5253
   34DOPE    HA 4274   4.174   4.951   3.422  0.4449  0.7265 -0.6543
   34DOPE    HB 4275   4.311   4.859   3.481  0.1573  0.7735 -0.5093
   34DOPE    C2 4276   4.129   4.775   3.534  0.4242  0.1096 -0.1821
   34DOPE    HS 4277   4.025   4.801   3.505  1.6264  2.3889 -2.7698
   34DOPE   O21 4278   4.174   4.798   3.668  0.1931 -0.0320  0.2690
   34DOPE   C21 4279   4.112   4.901   3.720  0.5458  0.6670  0.7450
   34DOPE   O22 4280   4.011   4.961   3.678  0.4946 -0.1324 -0.3766
   34DOPE   C22 4281   4.183   4.945   3.847  0.4495 -0.1886  0.5492
   34DOPE   H2R 4282   4.180   4.851   3.906  0.7343 -0.4582  0.1380
   34DOPE   H2S 4283   4.118   5.022   3.892  2.1760  2.1014 -0.6901
   34DOPE    C3 4284   4.144   4.622   3.503 -0.2946  0.3821 -0.2332
   34DOPE    HX 4285   4.252   4.604   3.488 -0.1321  1.2351 -0.1231
   34DOPE    HY 4286   4.094   4.583   3.411 -0.1527  0.4276 -0.3287
   34DOPE   O31 4287   4.116   4.539   3.616  0.1612  0.4731 -0.0338
   34DOPE   C31 4288   3.998   4.489   3.621 -0.4526 -0.5301 -0.0291
   34DOPE   O32 4289   3.905   4.526   3.548  0.2644  0.4481 -0.8840
   34DOPE   C32 4290   3.990   4.386   3.732  0.7006  0.2191 -0.3028
   34DOPE   H2X 4291   4.051   4.302   3.693  0.2261 -0.5192  0.4964
   34DOPE   H2Y 4292   4.043   4.425   3.821 -2.0050  0.5107  1.2992
   34DOPE   C23 4293   4.325   4.994   3.827  0.0620 -0.4906  0.3433
   34DOPE   H3R 4294   4.367   4.941   3.738  2.6239  1.4748  0.2582
   34DOPE   H3S 4295   4.384   4.954   3.912 -0.9795 -1.2325  0.7353
   34DOPE   C24 4296   4.331   5.153   3.817 -0.3560 -0.4502  0.4736
   34DOPE   H4R 4297   4.271   5.190   3.904  0.8737 -2.0248  2.0590
   34DOPE   H4S 4298   4.287   5.175   3.717 -0.6112 -0.2021  0.6383
   34DOPE   C25 4299   4.467   5.216   3.829 -0.1621  0.2537 -0.2926
   34DOPE   H5R 4300   4.534   5.188   3.744 -0.2625  2.6653 -1.2537
   34DOPE   H5S 4301   4.519   5.178   3.919 -0.2098 -0.0214 -0.3812
   34DOPE   C26 4302   4.467   5.368   3.832  0.6340  0.3122 -0.3172
   34DOPE   H6R 4303   4.572   5.402   3.840  0.5435  0.3444  0.8921
   34DOPE   H6S 4304   4.410   5.389   3.926  1.0696 -0.0580  0.0378
   34DOPE   C27 4305   4.407   5.431   3.712  0.1950 -0.4336  0.1162
   34DOPE   H7R 4306   4.316   5.374   3.683  1.1498 -1.8411 -0.2432
   34DOPE   H7S 4307   4.481   5.428   3.628 -2.5993 -2.0894 -2.4988
   34DOPE   C28 4308   4.362   5.583   3.725  0.0008 -0.1131  0.5870
   34DOPE   H8R 4309   4.283   5.592   3.803 -0.3101  0.1501  0.2473
   34DOPE   H8S 4310   4.319   5.599   3.624 -0.3120  1.4231  0.9360
   34DOPE   C29 4311   4.470   5.692   3.737 -0.3021 -0.1642  0.6919
   34DOPE   H9R 4312   4.560   5.675   3.676 -2.3781  0.0779 -2.6728
   34DOPE  C210 4313   4.454   5.803   3.816 -0.7565 -0.2539  1.3924
   34DOPE  H10R 4314   4.518   5.890   3.797  2.3592 -2.3776  1.3507
   34DOPE  C211 4315   4.340   5.837   3.906  1.3359 -0.1067 -0.6897
   34DOPE  H11R 4316   4.357   5.917   3.981 -2.9651  0.0264  0.4625
   34DOPE  H11S 4317   4.314   5.748   3.968 -0.0252  0.8284  0.1438
   34DOPE  C212 4318   4.216   5.893   3.822  0.3013  0.7793 -0.2784
   34DOPE  H12R 4319   4.183   5.811   3.755  1.5560  0.2761 -0.3028
   34DOPE  H12S 4320   4.235   5.984   3.761 -0.2225  1.0955  0.0201
   34DOPE  C213 4321   4.098   5.931   3.916 -0.5910  0.0105 -0.2589
   34DOPE  H13R 4322   4.124   6.012   3.987  0.0628  0.4045 -0.9343
   34DOPE  H13S 4323   4.082   5.842   3.980 -0.6725 -0.2319 -0.6137
   34DOPE  C214 4324   3.965   5.970   3.846  0.8048 -0.0846  0.2776
   34DOPE  H14R 4325   3.992   6.026   3.754  0.3238  0.6801  0.5966
   34DOPE  H14S 4326   3.903   6.039   3.907 -1.8460  1.0229 -3.3726
   34DOPE  C215 4327   3.871   5.849   3.828  0.2959 -0.2477  0.4791
   34DOPE  H15R 4328   3.763   5.873   3.835 -0.0559 -1.2446 -1.0750
   34DOPE  H15S 4329   3.887   5.783   3.916 -1.6981  2.4724  3.0878
   34DOPE  C216 4330   3.896   5.769   3.700 -0.0337  0.4011 -0.2518
   34DOPE  H16R 4331   3.995   5.722   3.714  0.1261 -0.0188 -2.3766
   34DOPE  H16S 4332   3.907   5.843   3.617  0.9585 -2.7284 -3.1536
   34DOPE  C217 4333   3.786   5.673   3.660  0.1657 -0.3986 -0.1752
   34DOPE  H17R 4334   3.701   5.734   3.624 -0.4262 -0.8934  0.3525
   34DOPE  H17S 4335   3.764   5.619   3.755  2.8554 -1.2615  0.0481
   34DOPE  C218 4336   3.836   5.583   3.545 -0.0074  0.6024 -0.4964
   34DOPE  H18R 4337   3.925   5.523   3.572 -0.0884 -0.1419 -1.7757
   34DOPE  H18S 4338   3.883   5.651   3.471 -0.6651  0.9847 -0.5701
   34DOPE  H18T 4339   3.758   5.516   3.502 -0.4473  1.1314 -0.5460
   34DOPE   C33 4340   3.855   4.326   3.778 -0.5145 -0.5014  0.3279
   34DOPE   H3X 4341   3.773   4.361   3.712 -0.5171 -0.0024  0.5905
   34DOPE   H3Y 4342   3.836   4.360   3.882 -0.2978  0.2106  0.1391
   34DOPE   C34 4343   3.850   4.175   3.780  0.7383  0.9226 -0.2862
   34DOPE   H4X 4344   3.887   4.124   3.689 -0.9122 -1.1936  0.1384
   34DOPE   H4Y 4345   3.905   4.134   3.868  1.2354 -0.3157 -1.1524
   34DOPE   C35 4346   3.710   4.111   3.791  0.2951 -0.2584  0.1275
   34DOPE   H5X 4347   3.671   4.136   3.690  1.3795  1.9219  0.1732
   34DOPE   H5Y 4348   3.644   4.171   3.858 -0.0728  0.8927 -1.2125
   34DOPE   C36 4349   3.704   3.957   3.811  0.9457  0.9030 -0.7255
   34DOPE   H6X 4350   3.776   3.920   3.887 -1.9473 -1.5559  1.0433
   34DOPE   H6Y 4351   3.727   3.912   3.712 -0.3160  0.1192 -0.6861
   34DOPE   C37 4352   3.569   3.909   3.854  0.4491  0.0844  1.1104
   34DOPE   H7X 4353   3.549   3.938   3.959 -1.4362  0.4403  0.6932
   34DOPE   H7Y 4354   3.492   3.964   3.795 -1.0613 -0.1829  2.7441
   34DOPE   C38 4355   3.552   3.754   3.827 -0.3162  0.0493  0.7629
   34DOPE   H8X 4356   3.635   3.708   3.885 -0.5386 -0.2794  0.8252
   34DOPE   H8Y 4357   3.576   3.736   3.720 -0.5802  0.2199  0.6728
   34DOPE   C39 4358   3.415   3.712   3.868  0.0726 -0.5100  0.9733
   34DOPE   H9X 4359   3.335   3.767   3.815 -0.2080 -0.1818  1.7163
   34DOPE  C310 4360   3.391   3.624   3.967 -0.3543  0.3308 -0.8330
   34DOPE  H10X 4361   3.290   3.590   3.994 -0.6859 -0.7587 -3.2273
   34DOPE  C311 4362   3.501   3.547   4.045 -0.1492 -0.3847  0.1164
   34DOPE  H11X 4363   3.549   3.473   3.978 -0.5970 -0.3648 -0.2296
   34DOPE  H11Y 4364   3.582   3.616   4.077  0.3429 -0.4059 -1.0305
   34DOPE  C312 4365   3.448   3.481   4.175  0.3474  0.0233 -0.4023
   34DOPE  H12X 4366   3.522   3.429   4.239 -0.7326 -1.3621 -0.2424
   34DOPE  H12Y 4367   3.395   3.387   4.148  1.6562 -0.6438 -0.7293
   34DOPE  C313 4368   3.379   3.582   4.267 -0.1002 -0.1257  0.3796
   34DOPE  H13X 4369   3.452   3.655   4.309 -2.1020  1.7951  0.7245
   34DOPE  H13Y 4370   3.309   3.645   4.208  0.1002 -1.1797 -1.0314
   34DOPE  C314 4371   3.316   3.520   4.394 -0.3509 -0.3259  0.5154
   34DOPE  H14X 4372   3.244   3.437   4.375 -0.6047 -0.0386  0.2177
   34DOPE  H14Y 4373   3.248   3.599   4.433 -0.5032  0.4173 -1.1528
   34DOPE  C315 4374   3.428   3.494   4.493 -0.0306  0.0958 -0.1838
   34DOPE  H15X 4375   3.509   3.569   4.485  0.7404 -0.6689  0.2825
   34DOPE  H15Y 4376   3.471   3.393   4.472  1.6392  0.3628  1.6506
   34DOPE  C316 4377   3.379   3.512   4.639  0.1226  0.1123  0.0995
   34DOPE  H16X 4378   3.467   3.493   4.705  0.5304 -0.1879 -0.5091
   34DOPE  H16Y 4379   3.298   3.443   4.672 -0.2800 -0.0407 -1.1407
   34DOPE  C317 4380   3.325   3.652   4.666  0.1238  0.1787  0.2569
   34DOPE  H17X 4381   3.400   3.727   4.635  0.0580  0.3240  0.4456
   34DOPE  H17Y 4382   3.236   3.684   4.607  1.9653  0.6411 -2.4340
   34DOPE  C318 4383   3.295   3.683   4.810  0.5053  0.0530 -0.1102
   34DOPE  H18X 4384   3.218   3.615   4.852 -0.3878  1.9301  1.4191
   34DOPE  H18Y 4385   3.378   3.678   4.883 -0.3591  0.8027  0.9689
   34DOPE  H18Z 4386   3.262   3.789   4.816 -1.6626 -0.3082 -2.9886
   35DOPE     N 4387   6.188   2.730   2.825 -0.6574  0.2561  0.4882
   35DOPE   HN1 4388   6.174   2.825   2.784  1.2442  1.1163  1.7012
   35DOPE   HN2 4389   6.244   2.733   2.912 -0.2513 -0.8656  0.2885
   35DOPE   HN3 4390   6.235   2.683   2.744 -0.3825 -0.7973  1.2324
   35DOPE   C12 4391   6.055   2.672   2.850  0.0995 -0.0442  0.2977
   35DOPE  H12A 4392   6.023   2.628   2.753  1.3787 -0.3799  0.0183
   35DOPE  H12B 4393   5.987   2.752   2.889  0.2990 -0.0528  0.6747
   35DOPE   C11 4394   6.067   2.546   2.946  0.6436 -0.1966  0.3468
   35DOPE  H11A 4395   6.136   2.471   2.902 -2.4380 -2.5670 -0.7425
   35DOPE  H11B 4396   5.965   2.502   2.949 -0.6719  2.6658  2.7182
   35DOPE     P 4397   6.230   2.559   3.139  0.0052  0.3620 -0.3802
   35DOPE   O13 4398   6.321   2.649   3.061  0.5374  0.1389 -0.2884
   35DOPE   O14 4399   6.268   2.416   3.141 -0.2783  0.6518 -0.2229
   35DOPE   O11 4400   6.212   2.611   3.287  0.8127  0.0827  0.3724
   35DOPE   O12 4401   6.086   2.583   3.075  0.2179  0.0848  0.3136
   35DOPE    C1 4402   6.129   2.537   3.375  1.1674 -1.1436  0.2476
   35DOPE    HA 4403   6.085   2.444   3.335  0.1588  0.0664 -1.5786
   35DOPE    HB 4404   6.036   2.589   3.407  0.7670 -2.5577  1.4903
   35DOPE    C2 4405   6.189   2.499   3.512  0.2155  0.0447 -0.2730
   35DOPE    HS 4406   6.110   2.444   3.568  0.0223  2.2011  1.7481
   35DOPE   O21 4407   6.224   2.620   3.577 -0.3743  0.1905 -0.0825
   35DOPE   C21 4408   6.214   2.614   3.708 -0.2857  0.1132  0.2573
   35DOPE   O22 4409   6.161   2.519   3.764 -0.1610  0.3701  0.1746
   35DOPE   C22 4410   6.304   2.718   3.768 -0.2482  0.3444  0.0349
   35DOPE   H2R 4411   6.254   2.817   3.758 -1.9854 -0.6627 -2.3242
   35DOPE   H2S 4412   6.397   2.726   3.708  0.0841  1.3699  0.6613
   35DOPE    C3 4413   6.317   2.411   3.491  0.4561 -0.5127 -0.4395
   35DOPE    HX 4414   6.386   2.470   3.427 -0.1947 -0.9448 -1.5753
   35DOPE    HY 4415   6.300   2.325   3.423  0.9950 -1.0013  0.0280
   35DOPE   O31 4416   6.374   2.358   3.615  0.5525 -1.0868  0.6075
   35DOPE   C31 4417   6.482   2.416   3.661 -0.5090 -0.3923 -0.4218
   35DOPE   O32 4418   6.542   2.513   3.614  0.2967  0.0976 -0.3701
   35DOPE   C32 4419   6.521   2.352   3.791  0.3856 -0.0023  0.5393
   35DOPE   H2X 4420   6.434   2.365   3.859  1.1611  1.4321  1.3131
   35DOPE   H2Y 4421   6.528   2.241   3.782 -1.9266 -0.2503  1.2624
   35DOPE   C23 4422   6.336   2.687   3.909 -0.4316 -0.2080  0.6208
   35DOPE   H3R 4423   6.402   2.772   3.938 -0.8130 -0.0375  1.0064
   35DOPE   H3S 4424   6.386   2.588   3.912 -0.4200 -0.4633 -3.2540
   35DOPE   C24 4425   6.208   2.688   3.996  0.6347 -0.0037 -0.1694
   35DOPE   H4R 4426   6.161   2.588   3.985  1.1018 -0.1050 -1.3571
   35DOPE   H4S 4427   6.129   2.757   3.960 -0.8897 -0.9360  1.2295
   35DOPE   C25 4428   6.227   2.708   4.146  0.2444 -0.5602  0.5395
   35DOPE   H5R 4429   6.124   2.708   4.187 -0.1536 -0.1804 -0.4373
   35DOPE   H5S 4430   6.280   2.805   4.157  1.3173 -1.0048 -0.4837
   35DOPE   C26 4431   6.312   2.590   4.210 -0.4853  0.0142  0.3118
   35DOPE   H6R 4432   6.414   2.598   4.168 -0.3771 -0.2268  0.5312
   35DOPE   H6S 4433   6.250   2.499   4.191 -3.6237  1.8081  1.1191
   35DOPE   C27 4434   6.336   2.627   4.357 -0.3522  0.2689 -0.4673
   35DOPE   H7R 4435   6.239   2.665   4.395 -0.0242  1.2503 -0.5685
   35DOPE   H7S 4436   6.417   2.703   4.371 -1.0900  0.7494  1.5151
   35DOPE   C28 4437   6.362   2.498   4.437 -0.2221 -0.1161 -0.3828
   35DOPE   H8R 4438   6.456   2.447   4.410 -1.0006 -1.2491 -1.0561
   35DOPE   H8S 4439   6.283   2.429   4.402 -1.4128 -0.0364  1.9152
   35DOPE   C29 4440   6.348   2.516   4.586  0.0526 -0.7080 -0.8428
   35DOPE   H9R 4441   6.318   2.615   4.622 -0.8901 -1.2973  0.0506
   35DOPE  C210 4442   6.376   2.428   4.677 -0.2444 -0.2565 -0.4305
   35DOPE  H10R 4443   6.372   2.467   4.779  3.0539  1.2483 -0.7122
   35DOPE  C211 4444   6.403   2.284   4.641 -0.3379  0.4532 -0.4462
   35DOPE  H11R 4445   6.495   2.259   4.699 -0.8103  0.7115  0.4275
   35DOPE  H11S 4446   6.428   2.278   4.533  0.3598  0.0484 -0.2709
   35DOPE  C212 4447   6.284   2.192   4.680 -0.1655 -0.2443 -0.9340
   35DOPE  H12R 4448   6.299   2.090   4.639  0.6434 -0.4530 -0.1345
   35DOPE  H12S 4449   6.192   2.231   4.630 -1.5793 -1.9146  0.2351
   35DOPE  C213 4450   6.268   2.179   4.829  0.3719  0.2267 -0.7098
   35DOPE  H13R 4451   6.250   2.276   4.879 -0.6448  0.4850 -1.5627
   35DOPE  H13S 4452   6.367   2.149   4.871 -0.3229  0.1687  0.9956
   35DOPE  C214 4453   6.154   2.089   4.867  0.0553 -0.2263  0.1292
   35DOPE  H14R 4454   6.162   1.995   4.807  1.4010 -1.0772  1.5581
   35DOPE  H14S 4455   6.059   2.135   4.832  0.0432 -0.1248  0.2959
   35DOPE  C215 4456   6.152   2.051   5.014 -1.0740  0.2708  0.5354
   35DOPE  H15R 4457   6.249   2.012   5.052  1.2871  3.1062 -2.0471
   35DOPE  H15S 4458   6.083   1.964   5.019 -1.7050  0.8187  1.7699
   35DOPE  C216 4459   6.091   2.149   5.121  0.2673 -0.8660  0.5842
   35DOPE  H16R 4460   5.993   2.180   5.079  1.5466 -0.1092 -2.1289
   35DOPE  H16S 4461   6.163   2.234   5.125  0.3564 -0.8668 -0.5767
   35DOPE  C217 4462   6.079   2.100   5.259  0.4251  0.2854 -0.1568
   35DOPE  H17R 4463   6.177   2.060   5.293 -0.2756 -0.0176  1.6404
   35DOPE  H17S 4464   6.008   2.015   5.272 -1.3578  2.0765  3.5567
   35DOPE  C218 4465   6.033   2.206   5.358  0.3639  0.5764  0.0380
   35DOPE  H18R 4466   5.938   2.256   5.331  0.4865  0.4515 -0.6422
   35DOPE  H18S 4467   6.114   2.279   5.382  1.4344 -0.3854 -0.5193
   35DOPE  H18T 4468   6.013   2.149   5.452  0.2528 -2.0600 -1.4749
   35DOPE   C33 4469   6.662   2.390   3.848  0.3952 -0.2925 -0.1449
   35DOPE   H3X 4470   6.666   2.495   3.883 -1.3673 -0.6821  1.4051
   35DOPE   H3Y 4471   6.737   2.392   3.766  1.8401  1.3942  1.1441
   35DOPE   C34 4472   6.720   2.291   3.950 -0.4011 -0.2587  0.0001
   35DOPE   H4X 4473   6.731   2.191   3.904  0.8359 -0.2572  0.2566
   35DOPE   H4Y 4474   6.823   2.322   3.976 -0.6045 -0.4221  1.0306
   35DOPE   C35 4475   6.643   2.287   4.074  0.3634 -0.2370 -0.1798
   35DOPE   H5X 4476   6.554   2.223   4.059 -0.1444  0.7637 -1.5890
   35DOPE   H5Y 4477   6.605   2.388   4.100  0.7080  0.4722 -2.2625
   35DOPE   C36 4478   6.723   2.224   4.191 -0.2007 -0.1616 -0.2955
   35DOPE   H6X 4479   6.824   2.270   4.194 -0.6269  0.8188 -0.6113
   35DOPE   H6Y 4480   6.732   2.119   4.157  0.1406  0.3237 -1.8048
   35DOPE   C37 4481   6.646   2.225   4.326  0.0473 -0.1988  0.3032
   35DOPE   H7X 4482   6.634   2.334   4.344  0.1744 -0.1528  0.1183
   35DOPE   H7Y 4483   6.547   2.183   4.298 -0.6517  1.7280 -0.2996
   35DOPE   C38 4484   6.720   2.153   4.442  0.2390  0.0076  0.0359
   35DOPE   H8X 4485   6.684   2.191   4.539  1.1266 -0.7226  0.6763
   35DOPE   H8Y 4486   6.828   2.181   4.447  0.0283  0.9319 -0.3896
   35DOPE   C39 4487   6.705   2.005   4.419 -0.3652  0.3014  0.1474
   35DOPE   H9X 4488   6.764   1.973   4.331 -1.9828 -0.9724 -0.5232
   35DOPE  C310 4489   6.648   1.905   4.485  0.0216 -0.3271  0.2609
   35DOPE  H10X 4490   6.639   1.806   4.438  1.0681 -0.7520  0.9176
   35DOPE  C311 4491   6.566   1.921   4.615  0.8276  0.6678  0.7762
   35DOPE  H11X 4492   6.541   2.028   4.631 -1.8360  0.0621  1.0487
   35DOPE  H11Y 4493   6.473   1.860   4.616  1.6567 -0.8586 -2.2386
   35DOPE  C312 4494   6.652   1.863   4.726 -0.6095  0.1786 -0.5929
   35DOPE  H12X 4495   6.747   1.921   4.730 -1.0779  0.8977  1.7383
   35DOPE  H12Y 4496   6.672   1.755   4.712  0.9942  0.3247  0.3318
   35DOPE  C313 4497   6.599   1.862   4.871  0.1970 -0.3912 -0.1532
   35DOPE  H13X 4498   6.679   1.821   4.936 -1.4980 -1.8444  1.1102
   35DOPE  H13Y 4499   6.582   1.966   4.906  0.0208 -1.0078  1.6802
   35DOPE  C314 4500   6.464   1.777   4.879  0.4875  0.3647  0.1670
   35DOPE  H14X 4501   6.483   1.687   4.817 -0.6948 -0.0200  0.3295
   35DOPE  H14Y 4502   6.389   1.841   4.827 -0.5089  0.4006  1.6144
   35DOPE  C315 4503   6.426   1.734   5.029 -0.0094 -0.4879  0.6120
   35DOPE  H15X 4504   6.396   1.817   5.095 -2.1392 -0.8399  0.1514
   35DOPE  H15Y 4505   6.517   1.677   5.061 -0.0379 -1.5502 -1.0237
   35DOPE  C316 4506   6.307   1.638   5.036 -0.6552 -0.1435  0.6316
   35DOPE  H16X 4507   6.320   1.555   4.963 -2.4976 -0.3166  0.4666
   35DOPE  H16Y 4508   6.207   1.680   5.011  0.0624  0.6804 -1.0534
   35DOPE  C317 4509   6.304   1.569   5.170  0.3359  0.4374  0.2162
   35DOPE  H17X 4510   6.292   1.460   5.153  1.3711 -0.0100  2.1223
   35DOPE  H17Y 4511   6.402   1.573   5.223  0.1505 -2.4580  0.9488
   35DOPE  C318 4512   6.194   1.605   5.267  0.1078  0.4812  0.1463
   35DOPE  H18X 4513   6.096   1.612   5.215  0.2339  0.2322 -0.1249
   35DOPE  H18Y 4514   6.192   1.536   5.354  0.5925 -0.5994 -0.6905
   35DOPE  H18Z 4515   6.205   1.711   5.299 -2.5977  0.6877  0.6537
   36DOPE     N 4516   5.852   5.097   3.038 -0.1118  0.1794  0.2390
   36DOPE   HN1 4517   5.757   5.059   3.053  0.3527 -1.5431 -0.8464
   36DOPE   HN2 4518   5.901   5.120   3.127  1.8207 -0.7834 -0.4925
   36DOPE   HN3 4519   5.841   5.183   2.980 -0.4611 -0.1864 -0.2481
   36DOPE   C12 4520   5.932   4.991   2.960 -0.1329  0.4347  0.4829
   36DOPE  H12A 4521   5.889   4.995   2.858 -1.5320  0.9732  1.0727
   36DOPE  H12B 4522   5.930   4.890   3.008 -0.3895 -0.9875 -2.3327
   36DOPE   C11 4523   6.078   5.041   2.929 -0.2363  0.2845 -1.0085
   36DOPE  H11A 4524   6.107   5.072   3.032 -0.3801 -1.0450 -0.5460
   36DOPE  H11B 4525   6.083   5.122   2.853  1.5179  1.8137  0.6363
   36DOPE     P 4526   6.301   4.883   2.948  0.0042  0.0187 -0.0750
   36DOPE   O13 4527   6.358   4.988   3.039 -0.0067  0.2559  0.6072
   36DOPE   O14 4528   6.375   4.846   2.829  0.3541  0.4781  0.3686
   36DOPE   O11 4529   6.257   4.749   3.022 -0.4809  0.2823 -0.2704
   36DOPE   O12 4530   6.164   4.930   2.886  0.2327  0.2298 -0.0011
   36DOPE    C1 4531   6.159   4.741   3.119 -0.2755 -0.0945 -0.2620
   36DOPE    HA 4532   6.067   4.690   3.081 -2.0380  2.5091  0.2331
   36DOPE    HB 4533   6.135   4.841   3.161 -0.9347 -0.6662  0.7718
   36DOPE    C2 4534   6.204   4.659   3.250  0.3323 -0.5061  0.0182
   36DOPE    HS 4535   6.126   4.683   3.326 -0.9534  0.6102 -1.5531
   36DOPE   O21 4536   6.330   4.705   3.290  0.2054 -0.6314 -0.0669
   36DOPE   C21 4537   6.331   4.831   3.336 -0.5833 -0.1710 -0.1074
   36DOPE   O22 4538   6.229   4.886   3.370  0.2814  0.1735 -0.4474
   36DOPE   C22 4539   6.474   4.886   3.337  0.0356 -0.3517  0.2049
   36DOPE   H2R 4540   6.473   4.997   3.348  1.7960 -0.3067  0.1065
   36DOPE   H2S 4541   6.523   4.863   3.240 -2.9554  1.3935 -1.8902
   36DOPE    C3 4542   6.209   4.512   3.229 -0.6331  0.2611  0.2453
   36DOPE    HX 4543   6.278   4.490   3.144  0.3841 -1.6284  1.4933
   36DOPE    HY 4544   6.116   4.462   3.192  0.4840 -0.3710 -1.9191
   36DOPE   O31 4545   6.248   4.441   3.343 -0.3974 -0.0603  0.7835
   36DOPE   C31 4546   6.372   4.396   3.351 -0.5960  0.3897  0.2843
   36DOPE   O32 4547   6.460   4.396   3.262  0.5417 -0.2278  0.1889
   36DOPE   C32 4548   6.395   4.326   3.492  0.4042 -0.7979 -0.3522
   36DOPE   H2X 4549   6.325   4.243   3.513 -0.6856  0.4482  1.1793
   36DOPE   H2Y 4550   6.500   4.289   3.491  0.3118 -1.1001  0.6182
   36DOPE   C23 4551   6.537   4.820   3.458  0.0228 -0.1323 -0.2623
   36DOPE   H3R 4552   6.648   4.819   3.449  0.0923 -0.8061  0.5084
   36DOPE   H3S 4553   6.510   4.712   3.465 -0.7509  0.1347  1.1242
   36DOPE   C24 4554   6.501   4.884   3.591  0.0919  0.2556  0.8971
   36DOPE   H4R 4555   6.393   4.880   3.616 -0.0711 -1.4618  0.0649
   36DOPE   H4S 4556   6.529   4.991   3.597 -1.6066  0.7910  0.1646
   36DOPE   C25 4557   6.585   4.820   3.706 -0.2634 -0.0062  0.1005
   36DOPE   H5R 4558   6.694   4.833   3.687 -0.0368 -1.3980  0.2645
   36DOPE   H5S 4559   6.566   4.710   3.703  0.7223 -0.1685 -1.4379
   36DOPE   C26 4560   6.551   4.881   3.843 -0.2772  0.2071  0.0701
   36DOPE   H6R 4561   6.448   4.844   3.859  0.3892 -0.8401  2.3666
   36DOPE   H6S 4562   6.548   4.992   3.849  1.5156  0.2111  1.7249
   36DOPE   C27 4563   6.645   4.831   3.955 -0.1538  1.1590  0.3522
   36DOPE   H7R 4564   6.745   4.866   3.919  0.5597 -0.2347  0.9055
   36DOPE   H7S 4565   6.652   4.721   3.963  0.6254  1.3213  2.6900
   36DOPE   C28 4566   6.638   4.907   4.087  0.2585  0.0775 -0.6612
   36DOPE   H8R 4567   6.657   5.016   4.078  0.0701  0.0142 -1.9635
   36DOPE   H8S 4568   6.716   4.857   4.148 -0.1168 -1.1882 -1.1623
   36DOPE   C29 4569   6.506   4.888   4.155  0.7536  0.3301  0.0641
   36DOPE   H9R 4570   6.429   4.966   4.151 -2.9424 -2.9808  0.7952
   36DOPE  C210 4571   6.470   4.779   4.228  0.1715 -0.3027  0.5201
   36DOPE  H10R 4572   6.370   4.783   4.274 -1.0509  1.6185 -2.0590
   36DOPE  C211 4573   6.548   4.657   4.254 -0.1457 -0.4927 -0.3127
   36DOPE  H11R 4574   6.625   4.652   4.173  0.7364  0.1233  0.4691
   36DOPE  H11S 4575   6.489   4.564   4.240 -0.6674 -0.2276  0.0975
   36DOPE  C212 4576   6.616   4.648   4.391 -0.0440 -0.3801 -0.5084
   36DOPE  H12R 4577   6.693   4.727   4.404  1.8055 -2.1371 -0.2135
   36DOPE  H12S 4578   6.675   4.555   4.402 -0.8386 -0.6992  1.3753
   36DOPE  C213 4579   6.512   4.644   4.508 -0.5156  0.0738 -0.2835
   36DOPE  H13R 4580   6.451   4.551   4.516 -0.4679  0.0421 -0.2845
   36DOPE  H13S 4581   6.441   4.726   4.485 -0.7806 -0.1092 -0.1256
   36DOPE  C214 4582   6.581   4.656   4.653  0.3918 -0.5355 -0.2069
   36DOPE  H14R 4583   6.654   4.740   4.651  0.1667 -0.3602 -1.2092
   36DOPE  H14S 4584   6.654   4.572   4.662  1.7719  0.4625 -1.5722
   36DOPE  C215 4585   6.481   4.675   4.773  0.0504  0.1641  0.3738
   36DOPE  H15R 4586   6.418   4.584   4.763  0.1654 -0.0086  1.1157
   36DOPE  H15S 4587   6.415   4.762   4.750 -0.5793 -0.4681 -0.2421
   36DOPE  C216 4588   6.539   4.667   4.910 -0.5067 -0.4020 -0.8947
   36DOPE  H16R 4589   6.591   4.760   4.942 -0.4170 -0.1456 -1.7687
   36DOPE  H16S 4590   6.615   4.586   4.913  0.0762  0.0716 -2.3422
   36DOPE  C217 4591   6.436   4.653   5.026 -0.0876 -0.8577  0.4973
   36DOPE  H17R 4592   6.362   4.574   5.001  0.1805  0.1183 -4.3044
   36DOPE  H17S 4593   6.381   4.749   5.036 -2.9147 -2.0309 -1.9232
   36DOPE  C218 4594   6.505   4.620   5.159  0.3481  0.3253 -0.3785
   36DOPE  H18R 4595   6.564   4.704   5.202 -1.5885  0.6889  1.7193
   36DOPE  H18S 4596   6.558   4.523   5.147  0.2036  0.5081 -3.1112
   36DOPE  H18T 4597   6.424   4.610   5.234  1.0895  1.3526  0.5865
   36DOPE   C33 4598   6.357   4.434   3.601  0.2081 -0.3564 -0.3243
   36DOPE   H3X 4599   6.248   4.453   3.593 -0.3674 -1.9825  2.4115
   36DOPE   H3Y 4600   6.405   4.531   3.577  0.1521 -0.1612  0.3283
   36DOPE   C34 4601   6.396   4.394   3.745  0.6654  0.0392 -0.1194
   36DOPE   H4X 4602   6.339   4.302   3.769  0.4253  0.0910 -0.4950
   36DOPE   H4Y 4603   6.504   4.380   3.767  0.1876 -1.4372  1.5317
   36DOPE   C35 4604   6.346   4.503   3.845  0.0699  0.1850  0.7806
   36DOPE   H5X 4605   6.236   4.515   3.843  0.0593 -0.0164 -0.3607
   36DOPE   H5Y 4606   6.389   4.600   3.813  0.1153 -0.3876 -1.0083
   36DOPE   C36 4607   6.385   4.470   3.993  0.1094 -0.0051 -0.4350
   36DOPE   H6X 4608   6.409   4.567   4.042  0.6865 -1.1208  1.5930
   36DOPE   H6Y 4609   6.478   4.410   3.993  1.9002  2.5866 -0.2003
   36DOPE   C37 4610   6.274   4.393   4.060 -0.3275  0.0880  0.1350
   36DOPE   H7X 4611   6.176   4.439   4.034  0.1247  1.6943  1.0927
   36DOPE   H7Y 4612   6.278   4.288   4.026 -0.7858  0.5662 -1.5365
   36DOPE   C38 4613   6.276   4.392   4.214  0.2053 -0.1415 -0.5711
   36DOPE   H8X 4614   6.185   4.339   4.247 -0.3127 -0.7848 -2.8366
   36DOPE   H8Y 4615   6.266   4.497   4.248  0.8597  0.1484 -1.2212
   36DOPE   C39 4616   6.402   4.329   4.277 -0.2181 -0.2896  0.2494
   36DOPE   H9X 4617   6.495   4.370   4.235  0.3476 -1.5755  0.2019
   36DOPE  C310 4618   6.413   4.229   4.361 -0.6874  0.3149 -0.1926
   36DOPE  H10X 4619   6.516   4.190   4.370  0.0382  1.9931 -0.7587
   36DOPE  C311 4620   6.300   4.150   4.431 -0.2793  0.2404  0.1243
   36DOPE  H11X 4621   6.218   4.219   4.461 -0.0572  0.7553 -0.4299
   36DOPE  H11Y 4622   6.262   4.070   4.366 -0.4090 -1.3686  2.0771
   36DOPE  C312 4623   6.351   4.078   4.560 -0.4671  0.4149  0.0181
   36DOPE  H12X 4624   6.354   4.156   4.640 -0.8219  0.0055  0.4323
   36DOPE  H12Y 4625   6.455   4.043   4.547 -1.1825 -1.6349 -0.5321
   36DOPE  C313 4626   6.259   3.976   4.621  0.0576  0.4112  0.5901
   36DOPE  H13X 4627   6.157   4.021   4.623  0.0454  0.3608  1.5073
   36DOPE  H13Y 4628   6.257   3.885   4.557 -1.1793  1.2162 -0.5914
   36DOPE  C314 4629   6.298   3.935   4.768 -0.8618 -0.4384 -0.1223
   36DOPE  H14X 4630   6.314   4.033   4.818 -0.1123 -0.5174 -0.1926
   36DOPE  H14Y 4631   6.398   3.888   4.757 -0.6992  0.2751 -1.7981
   36DOPE  C315 4632   6.197   3.856   4.847  0.2771 -0.2036 -0.0718
   36DOPE  H15X 4633   6.204   3.748   4.824 -3.8694 -0.6970  0.2055
   36DOPE  H15Y 4634   6.096   3.892   4.818  0.4539  1.6997  1.4722
   36DOPE  C316 4635   6.215   3.876   5.001  0.1984 -0.6222  0.0371
   36DOPE  H16X 4636   6.155   3.961   5.041  0.6076 -0.3226  0.0212
   36DOPE  H16Y 4637   6.325   3.892   5.008  0.1779 -0.7186  0.6422
   36DOPE  C317 4638   6.180   3.760   5.085 -0.2179 -0.0729 -0.4714
   36DOPE  H17X 4639   6.157   3.785   5.191  1.0001 -1.2968  0.1078
   36DOPE  H17Y 4640   6.087   3.719   5.040  0.8834 -0.3832 -2.6187
   36DOPE  C318 4641   6.295   3.657   5.087 -0.5210 -0.2868 -0.2335
   36DOPE  H18X 4642   6.393   3.701   5.116 -1.1130  1.4299 -0.6700
   36DOPE  H18Y 4643   6.286   3.567   5.151 -0.7274 -0.2997 -0.2817
   36DOPE  H18Z 4644   6.297   3.619   4.983 -0.1501  1.4218 -0.8905
   37DOPE     N 4645   3.417   2.526   3.183 -0.0301  0.4835  0.1130
   37DOPE   HN1 4646   3.475   2.464   3.243 -0.5548 -2.2058 -1.9703
   37DOPE   HN2 4647   3.356   2.453   3.142  1.4085 -1.5663  1.4183
   37DOPE   HN3 4648   3.473   2.579   3.114 -1.3806 -0.6968 -1.9768
   37DOPE   C12 4649   3.320   2.613   3.265 -0.4618 -0.1265  0.4383
   37DOPE  H12A 4650   3.379   2.682   3.330 -0.0133 -0.1388  0.0511
   37DOPE  H12B 4651   3.255   2.543   3.321  0.1345 -0.1210  1.1489
   37DOPE   C11 4652   3.242   2.710   3.169  0.5727  0.7615  0.7343
   37DOPE  H11A 4653   3.171   2.769   3.230 -0.0485 -1.5547  2.3818
   37DOPE  H11B 4654   3.182   2.643   3.103 -3.0629  0.6303  3.8661
   37DOPE     P 4655   3.405   2.917   3.141 -0.8112  0.4902  0.0777
   37DOPE   O13 4656   3.355   3.027   3.062  0.0567 -0.3794  0.1937
   37DOPE   O14 4657   3.551   2.887   3.137  0.3552 -0.2773 -0.2266
   37DOPE   O11 4658   3.355   2.934   3.286  0.0552  0.1431 -0.3569
   37DOPE   O12 4659   3.327   2.789   3.079 -0.4491 -0.1283  0.0627
   37DOPE    C1 4660   3.248   3.022   3.325  0.3841 -0.2199 -0.4664
   37DOPE    HA 4661   3.179   2.966   3.391 -0.5579  1.5892  0.1360
   37DOPE    HB 4662   3.188   3.055   3.237 -0.5838  0.6643  0.5044
   37DOPE    C2 4663   3.278   3.155   3.400  0.5225 -0.8468 -0.0572
   37DOPE    HS 4664   3.300   3.237   3.329  3.3411 -0.8180  0.7196
   37DOPE   O21 4665   3.391   3.138   3.485  0.7478  0.1428 -0.1477
   37DOPE   C21 4666   3.443   3.249   3.526  0.1215  0.8954  0.1223
   37DOPE   O22 4667   3.409   3.357   3.484 -0.2054 -0.2705  0.0496
   37DOPE   C22 4668   3.566   3.233   3.608  0.1680  0.3374 -0.0166
   37DOPE   H2R 4669   3.626   3.327   3.603  1.5803 -0.4254  1.4225
   37DOPE   H2S 4670   3.633   3.154   3.567  2.4043  0.7591  2.5118
   37DOPE    C3 4671   3.144   3.191   3.476 -0.2534 -0.0846  0.3528
   37DOPE    HX 4672   3.061   3.163   3.408  0.1224  1.7304 -0.9200
   37DOPE    HY 4673   3.151   3.301   3.487  2.4143  0.1476 -2.3817
   37DOPE   O31 4674   3.147   3.111   3.595 -0.4139 -0.6345 -0.1432
   37DOPE   C31 4675   3.133   3.166   3.708  0.4747 -1.0343 -0.3701
   37DOPE   O32 4676   3.132   3.283   3.734  0.3258  0.1000 -0.0366
   37DOPE   C32 4677   3.144   3.064   3.820 -0.5118  0.3072  0.1253
   37DOPE   H2X 4678   3.053   3.001   3.815 -2.9096  3.5654 -0.7622
   37DOPE   H2Y 4679   3.240   3.009   3.811  0.1828  1.5785 -0.5595
   37DOPE   C23 4680   3.523   3.205   3.751 -0.0686 -0.0047  0.3008
   37DOPE   H3R 4681   3.482   3.102   3.752 -0.3692  0.1151  0.1109
   37DOPE   H3S 4682   3.453   3.286   3.779  1.7182  1.7369 -0.0098
   37DOPE   C24 4683   3.642   3.219   3.847 -0.1024 -0.0450  0.0370
   37DOPE   H4R 4684   3.692   3.319   3.843  2.5016 -1.2813 -0.4416
   37DOPE   H4S 4685   3.729   3.151   3.833 -0.1275  0.3976 -2.7163
   37DOPE   C25 4686   3.608   3.169   3.987  0.7378  0.1665 -0.0613
   37DOPE   H5R 4687   3.546   3.077   3.992 -0.7174  0.9352 -2.5783
   37DOPE   H5S 4688   3.548   3.251   4.033  2.5925 -0.0673  3.0804
   37DOPE   C26 4689   3.719   3.167   4.094  0.1226  0.6618 -0.1034
   37DOPE   H6R 4690   3.778   3.261   4.088  0.8146  0.1730 -1.4819
   37DOPE   H6S 4691   3.786   3.079   4.080 -0.2202  0.5758 -1.3147
   37DOPE   C27 4692   3.663   3.159   4.240 -0.2655 -0.2142 -0.0486
   37DOPE   H7R 4693   3.611   3.256   4.257 -2.2705 -1.1034 -0.8967
   37DOPE   H7S 4694   3.751   3.151   4.307 -0.8821  0.5032  0.8761
   37DOPE   C28 4695   3.567   3.044   4.270  0.4960 -0.0821 -0.5379
   37DOPE   H8R 4696   3.483   3.032   4.198  1.2493  1.1312 -1.6585
   37DOPE   H8S 4697   3.511   3.079   4.359 -0.7392  0.5256 -1.5257
   37DOPE   C29 4698   3.633   2.908   4.286 -0.3541  0.3440 -0.1975
   37DOPE   H9R 4699   3.676   2.867   4.193 -1.8410  0.3821 -0.9283
   37DOPE  C210 4700   3.633   2.829   4.390  0.1991 -0.1985  0.2423
   37DOPE  H10R 4701   3.682   2.733   4.368 -0.2689 -0.4016  0.0472
   37DOPE  C211 4702   3.574   2.842   4.532 -0.4270 -0.1791 -0.8335
   37DOPE  H11R 4703   3.578   2.747   4.590 -0.6882  0.7530  0.7774
   37DOPE  H11S 4704   3.465   2.856   4.518 -0.6731 -2.1307 -1.1301
   37DOPE  C212 4705   3.644   2.949   4.632 -0.4217 -0.0356  0.2456
   37DOPE  H12R 4706   3.612   3.045   4.586 -0.4862 -0.4344 -0.5591
   37DOPE  H12S 4707   3.754   2.932   4.633 -0.6112 -1.8953 -2.1933
   37DOPE  C213 4708   3.587   2.955   4.768 -0.0309  0.4109  0.2120
   37DOPE  H13R 4709   3.581   2.854   4.814  1.9184 -0.3415 -1.0581
   37DOPE  H13S 4710   3.483   2.993   4.777  0.2824  0.8528  2.5758
   37DOPE  C214 4711   3.679   3.039   4.857 -0.4039  0.2057 -0.4258
   37DOPE  H14R 4712   3.699   3.138   4.811 -1.2237  1.0617  0.9797
   37DOPE  H14S 4713   3.780   2.992   4.863  0.9008  2.7338 -1.2862
   37DOPE  C215 4714   3.635   3.052   5.007  0.2267 -0.3175  0.3985
   37DOPE  H15R 4715   3.630   2.949   5.048  1.6113 -0.2494  0.7570
   37DOPE  H15S 4716   3.535   3.101   5.001  1.3843  1.9904 -1.8639
   37DOPE  C216 4717   3.736   3.136   5.074  0.6891  0.0652 -0.2916
   37DOPE  H16R 4718   3.753   3.234   5.025 -1.0855  0.8266  0.4931
   37DOPE  H16S 4719   3.835   3.087   5.069  0.4327 -0.3654 -1.2164
   37DOPE  C217 4720   3.693   3.166   5.220 -0.0813 -1.0113 -0.8973
   37DOPE  H17R 4721   3.600   3.227   5.217  0.3002 -0.3263  0.4149
   37DOPE  H17S 4722   3.776   3.229   5.258 -1.6042  0.3442  0.3655
   37DOPE  C218 4723   3.664   3.041   5.304 -0.1511 -0.4738  0.3773
   37DOPE  H18R 4724   3.639   3.076   5.407 -0.4991  1.1865 -0.2389
   37DOPE  H18S 4725   3.758   2.982   5.307  1.9764  2.3152 -3.1347
   37DOPE  H18T 4726   3.574   2.986   5.269  0.3772 -1.8951  1.1628
   37DOPE   C33 4727   3.158   3.141   3.957  0.4965  0.1817 -0.2295
   37DOPE   H3X 4728   3.076   3.216   3.966  1.2616  1.1699 -1.2340
   37DOPE   H3Y 4729   3.254   3.196   3.953  0.9853 -0.7156 -3.5974
   37DOPE   C34 4730   3.153   3.046   4.078  0.0918 -1.0627  0.1148
   37DOPE   H4X 4731   3.053   2.998   4.072 -0.3940 -0.0606  0.0099
   37DOPE   H4Y 4732   3.235   2.973   4.057  0.8342  0.0440 -0.9325
   37DOPE   C35 4733   3.175   3.118   4.214  0.3510 -0.6076  0.1145
   37DOPE   H5X 4734   3.087   3.186   4.214 -0.0246 -0.9936 -2.6346
   37DOPE   H5Y 4735   3.271   3.173   4.218 -0.1722  0.2745  1.6298
   37DOPE   C36 4736   3.176   3.024   4.336  0.0910 -0.5053  0.0527
   37DOPE   H6X 4737   3.260   2.953   4.321  0.5062 -0.4098  1.7152
   37DOPE   H6Y 4738   3.083   2.964   4.343 -0.3093  0.0170 -0.7153
   37DOPE   C37 4739   3.198   3.103   4.466 -0.3886 -0.7619  0.7643
   37DOPE   H7X 4740   3.262   3.193   4.456 -0.9224 -0.4169  0.4627
   37DOPE   H7Y 4741   3.106   3.158   4.493  1.0623  1.9006  0.6066
   37DOPE   C38 4742   3.241   3.034   4.596  0.0395 -0.3321  0.0504
   37DOPE   H8X 4743   3.285   3.106   4.667  1.5025  0.0167 -1.1520
   37DOPE   H8Y 4744   3.325   2.962   4.583 -0.0448 -0.3185 -0.6410
   37DOPE   C39 4745   3.119   2.975   4.667 -0.8002 -0.4811 -0.3359
   37DOPE   H9X 4746   3.092   2.877   4.624  1.6345 -0.6981 -1.4971
   37DOPE  C310 4747   3.063   3.006   4.784  0.3721  0.2279 -0.4995
   37DOPE  H10X 4748   2.985   2.936   4.818  0.2354  0.7794  0.3626
   37DOPE  C311 4749   3.099   3.121   4.874 -0.8204 -0.4118  0.2457
   37DOPE  H11X 4750   3.161   3.191   4.815 -3.5928  0.2431 -2.1366
   37DOPE  H11Y 4751   3.014   3.185   4.906  0.0248  0.9423 -0.1847
   37DOPE  C312 4752   3.176   3.070   4.999 -0.1963 -0.9975  0.2782
   37DOPE  H12X 4753   3.263   3.020   4.952 -0.6986  0.5766 -2.4906
   37DOPE  H12Y 4754   3.117   2.998   5.060 -0.0580 -1.1097  0.2814
   37DOPE  C313 4755   3.206   3.184   5.097  0.4821  0.5109 -0.4022
   37DOPE  H13X 4756   3.102   3.220   5.107 -1.3434 -3.2409 -3.3952
   37DOPE  H13Y 4757   3.239   3.146   5.196 -0.3619 -0.4210 -0.4646
   37DOPE  C314 4758   3.287   3.303   5.045  0.5703  0.4790  0.4297
   37DOPE  H14X 4759   3.235   3.355   4.962  3.4533  0.0761 -1.8150
   37DOPE  H14Y 4760   3.378   3.269   4.991  0.5056  0.3855  0.3797
   37DOPE  C315 4761   3.325   3.393   5.159  0.1091 -0.5212 -0.0991
   37DOPE  H15X 4762   3.412   3.349   5.212  1.3240 -1.7578 -2.8811
   37DOPE  H15Y 4763   3.241   3.393   5.231  1.9784  1.7945  2.2673
   37DOPE  C316 4764   3.361   3.535   5.109 -0.7802  0.0079 -1.0161
   37DOPE  H16X 4765   3.284   3.578   5.041 -0.2248  1.7180 -0.6123
   37DOPE  H16Y 4766   3.455   3.547   5.050 -1.5724  1.0652 -2.1136
   37DOPE  C317 4767   3.379   3.638   5.220 -0.0517 -0.0617  0.1588
   37DOPE  H17X 4768   3.282   3.623   5.273 -0.9908 -2.9086 -2.0898
   37DOPE  H17Y 4769   3.465   3.615   5.287  0.4212  1.6615  0.1785
   37DOPE  C318 4770   3.383   3.780   5.177 -0.3309  0.3541  0.1225
   37DOPE  H18X 4771   3.408   3.853   5.257 -0.9645 -0.2369  0.8781
   37DOPE  H18Y 4772   3.470   3.787   5.108  1.7469  0.6218  2.6015
   37DOPE  H18Z 4773   3.283   3.799   5.131 -0.4433 -0.3230  0.0767
   38DOPE     N 4774   5.818   5.582   3.063 -0.1924 -0.1722 -0.2781
   38DOPE   HN1 4775   5.851   5.509   2.997 -0.9927 -1.4054  0.6444
   38DOPE   HN2 4776   5.770   5.656   3.009  1.2121  0.8795 -0.1505
   38DOPE   HN3 4777   5.891   5.634   3.117 -1.1973  1.8000 -0.7353
   38DOPE   C12 4778   5.726   5.521   3.168 -0.2055  0.7901 -0.0449
   38DOPE  H12A 4779   5.792   5.468   3.241  2.0603 -0.5579 -2.8605
   38DOPE  H12B 4780   5.650   5.453   3.125  0.9938 -1.5101  1.2857
   38DOPE   C11 4781   5.642   5.626   3.240  0.8144 -0.2734  0.6588
   38DOPE  H11A 4782   5.713   5.706   3.271 -1.4708  1.2999  2.2366
   38DOPE  H11B 4783   5.591   5.578   3.326  1.5165 -2.1296  0.0953
   38DOPE     P 4784   5.484   5.824   3.211 -0.1257  0.3552  0.2832
   38DOPE   O13 4785   5.341   5.829   3.202  0.0931  0.4677  0.4437
   38DOPE   O14 4786   5.564   5.934   3.148 -0.1355 -0.1689  0.5939
   38DOPE   O11 4787   5.518   5.817   3.367 -0.3772 -0.0100  0.3285
   38DOPE   O12 4788   5.539   5.685   3.156  0.1611 -0.4980 -0.3259
   38DOPE    C1 4789   5.439   5.908   3.451 -0.6254  0.0726  0.1923
   38DOPE    HA 4790   5.343   5.861   3.481 -0.1809 -1.2466 -0.3857
   38DOPE    HB 4791   5.424   6.000   3.391  0.7299 -2.4017 -4.3976
   38DOPE    C2 4792   5.520   5.956   3.584  0.0620  0.1302  0.3583
   38DOPE    HS 4793   5.605   6.022   3.558 -0.2968  0.8844  1.0911
   38DOPE   O21 4794   5.568   5.844   3.656 -0.1013 -0.1517 -0.5687
   38DOPE   C21 4795   5.686   5.790   3.611  0.1300  0.1727  0.2856
   38DOPE   O22 4796   5.769   5.848   3.542  0.3708  0.2682  0.0506
   38DOPE   C22 4797   5.694   5.644   3.650 -0.4247 -0.0375 -0.6411
   38DOPE   H2R 4798   5.595   5.601   3.627 -0.4516  0.0943 -0.7736
   38DOPE   H2S 4799   5.705   5.630   3.760  0.8222 -2.9349 -1.0467
   38DOPE    C3 4800   5.429   6.044   3.671 -0.9166 -0.1514  0.3608
   38DOPE    HX 4801   5.348   5.971   3.691 -1.0857 -0.0615  0.0076
   38DOPE    HY 4802   5.387   6.129   3.613 -0.8944 -0.6030 -0.3210
   38DOPE   O31 4803   5.498   6.104   3.785 -0.5008  0.2152  0.7177
   38DOPE   C31 4804   5.489   6.033   3.895 -0.3579 -0.6346  0.3407
   38DOPE   O32 4805   5.410   5.944   3.915  0.2121  0.1839 -0.0368
   38DOPE   C32 4806   5.591   6.082   3.994 -0.2560 -0.0783 -0.0162
   38DOPE   H2X 4807   5.694   6.072   3.952 -0.5108 -0.9086 -0.4701
   38DOPE   H2Y 4808   5.578   6.191   4.014  2.6571  0.3295  0.0531
   38DOPE   C23 4809   5.813   5.580   3.580 -0.2039 -0.1231  0.1836
   38DOPE   H3R 4810   5.907   5.637   3.599  0.3000  0.1155 -2.6319
   38DOPE   H3S 4811   5.796   5.594   3.471  0.6267 -0.6992 -0.0324
   38DOPE   C24 4812   5.829   5.432   3.617  0.6811  0.0451  0.4185
   38DOPE   H4R 4813   5.879   5.382   3.532  4.0243  1.1691  1.5680
   38DOPE   H4S 4814   5.731   5.380   3.613  0.6837  0.0830 -2.2411
   38DOPE   C25 4815   5.901   5.403   3.743 -0.6653  0.5387 -0.1550
   38DOPE   H5R 4816   5.836   5.403   3.833  0.6906  1.4605  0.8677
   38DOPE   H5S 4817   5.971   5.485   3.770 -0.0975 -0.0885  0.3242
   38DOPE   C26 4818   5.985   5.277   3.733  0.8128  0.2334  0.0021
   38DOPE   H6R 4819   6.058   5.292   3.650 -1.3727 -0.9142 -2.2791
   38DOPE   H6S 4820   5.915   5.201   3.692  0.0049 -0.2735  2.1914
   38DOPE   C27 4821   6.045   5.219   3.857 -0.0325 -0.0035  0.3109
   38DOPE   H7R 4822   6.124   5.148   3.825  0.7286  1.1896 -0.5472
   38DOPE   H7S 4823   5.963   5.169   3.913 -0.4139 -0.7145 -0.8596
   38DOPE   C28 4824   6.106   5.324   3.954 -0.0387  0.1774  0.2852
   38DOPE   H8R 4825   6.031   5.397   3.993  0.4011  1.1506 -0.6194
   38DOPE   H8S 4826   6.184   5.394   3.917  0.3712 -0.9469 -1.0275
   38DOPE   C29 4827   6.166   5.259   4.075 -0.4958  0.0129 -0.2005
   38DOPE   H9R 4828   6.095   5.243   4.158  1.8576  0.7666  2.0891
   38DOPE  C210 4829   6.298   5.223   4.085  0.5413 -0.2342 -0.5788
   38DOPE  H10R 4830   6.328   5.188   4.185 -1.1339 -1.4018 -0.4443
   38DOPE  C211 4831   6.399   5.245   3.989 -0.2096  0.1737 -0.6584
   38DOPE  H11R 4832   6.368   5.285   3.890  0.1907 -0.6914 -1.1446
   38DOPE  H11S 4833   6.437   5.146   3.955 -0.2745 -0.2478  0.4578
   38DOPE  C212 4834   6.522   5.330   4.026  0.2166 -0.2439  0.0119
   38DOPE  H12R 4835   6.578   5.289   4.113 -2.1193  0.1727  1.8190
   38DOPE  H12S 4836   6.484   5.425   4.071 -1.1256  0.2593 -2.0434
   38DOPE  C213 4837   6.602   5.387   3.912  0.1493  0.1020  0.3115
   38DOPE  H13R 4838   6.676   5.462   3.945  1.4967 -0.1822 -1.8728
   38DOPE  H13S 4839   6.544   5.449   3.841  2.4834  2.8529  0.6284
   38DOPE  C214 4840   6.693   5.291   3.833  0.5930 -0.4190 -0.1655
   38DOPE  H14R 4841   6.742   5.338   3.745  1.2630  0.6214  0.7406
   38DOPE  H14S 4842   6.626   5.218   3.783  0.0549  0.8772 -1.4263
   38DOPE  C215 4843   6.802   5.220   3.914 -0.5531 -0.2004 -0.3520
   38DOPE  H15R 4844   6.759   5.131   3.964  0.1264 -0.7052 -0.6439
   38DOPE  H15S 4845   6.840   5.300   3.981  2.2673  0.5687 -2.6211
   38DOPE  C216 4846   6.913   5.157   3.834  0.5311  0.0515 -0.5477
   38DOPE  H16R 4847   6.963   5.227   3.763  0.3984  0.6460 -0.0651
   38DOPE  H16S 4848   6.867   5.075   3.775  0.4930 -1.0034  0.9148
   38DOPE  C217 4849   7.026   5.099   3.919  0.2902  0.0474  0.4324
   38DOPE  H17R 4850   6.971   5.042   3.997 -1.0164 -0.8486 -1.0742
   38DOPE  H17S 4851   7.080   5.182   3.969 -1.2794 -0.0421  2.4016
   38DOPE  C218 4852   7.109   5.001   3.824  1.0277 -0.1019  0.5676
   38DOPE  H18R 4853   7.056   4.910   3.790  1.0755  0.4455 -1.0774
   38DOPE  H18S 4854   7.197   4.976   3.888 -0.2822 -0.4548  2.2898
   38DOPE  H18T 4855   7.126   5.066   3.735 -0.5951 -1.5580 -0.8544
   38DOPE   C33 4856   5.576   5.993   4.117  0.6485  0.3080  0.6214
   38DOPE   H3X 4857   5.620   5.897   4.084 -0.8546 -0.4365  0.6962
   38DOPE   H3Y 4858   5.470   5.968   4.140  0.5860  0.3639  0.3973
   38DOPE   C34 4859   5.653   6.050   4.240 -0.2111 -0.2987 -0.7430
   38DOPE   H4X 4860   5.762   6.046   4.217  0.5179  1.6505  1.9301
   38DOPE   H4Y 4861   5.618   6.151   4.267 -1.4921 -1.1916  1.1348
   38DOPE   C35 4862   5.631   5.986   4.381  0.1966 -0.0182 -0.7415
   38DOPE   H5X 4863   5.684   5.889   4.392  0.3018  0.1033 -0.1258
   38DOPE   H5Y 4864   5.522   5.966   4.392  0.3049 -4.5189 -4.6790
   38DOPE   C36 4865   5.670   6.083   4.496 -0.0467  0.1741  1.1635
   38DOPE   H6X 4866   5.599   6.168   4.502 -1.4354 -0.8673  0.0120
   38DOPE   H6Y 4867   5.775   6.116   4.483  0.3185 -0.8307  1.4883
   38DOPE   C37 4868   5.659   6.018   4.630  0.7179  0.4196  0.0516
   38DOPE   H7X 4869   5.554   5.995   4.658  0.7460  1.0118  0.6857
   38DOPE   H7Y 4870   5.715   5.923   4.633 -0.2237 -0.2123 -1.3934
   38DOPE   C38 4871   5.727   6.091   4.745 -0.5122 -0.1188 -0.3307
   38DOPE   H8X 4872   5.743   6.198   4.720  1.3231 -0.2679  0.0707
   38DOPE   H8Y 4873   5.829   6.046   4.746  1.3591  3.7091  0.6173
   38DOPE   C39 4874   5.654   6.076   4.874 -0.3526 -0.4417  0.0353
   38DOPE   H9X 4875   5.562   6.137   4.877  0.8878  1.5450  0.0210
   38DOPE  C310 4876   5.694   6.005   4.978 -0.1844 -0.0689 -0.1974
   38DOPE  H10X 4877   5.629   6.004   5.067 -2.0962  1.5905 -1.5083
   38DOPE  C311 4878   5.815   5.927   4.992 -0.2140 -0.5657  0.0552
   38DOPE  H11X 4879   5.898   5.971   4.933 -0.6264  1.8140  1.1227
   38DOPE  H11Y 4880   5.844   5.920   5.099  1.7157 -3.7542 -0.5644
   38DOPE  C312 4881   5.804   5.783   4.947  0.3184  0.0379 -0.0214
   38DOPE  H12X 4882   5.779   5.780   4.839  0.0307 -1.9755  0.0696
   38DOPE  H12Y 4883   5.717   5.733   4.995  1.4086 -1.6310  0.2755
   38DOPE  C313 4884   5.930   5.697   4.965 -0.1025 -0.1719  0.3827
   38DOPE  H13X 4885   5.949   5.673   5.072  0.4986 -0.9891  0.0940
   38DOPE  H13Y 4886   5.928   5.608   4.900  1.4836  0.7587 -1.0150
   38DOPE  C314 4887   6.056   5.767   4.912 -0.0118 -1.1035  0.3081
   38DOPE  H14X 4888   6.068   5.868   4.959  0.6334 -1.0675  0.0808
   38DOPE  H14Y 4889   6.038   5.788   4.804  3.4952  3.1021  0.2315
   38DOPE  C315 4890   6.181   5.688   4.943 -0.8139  0.1762 -0.2649
   38DOPE  H15X 4891   6.182   5.667   5.052 -2.2625 -3.2723 -0.7869
   38DOPE  H15Y 4892   6.269   5.753   4.924 -1.3980  1.1989  0.4410
   38DOPE  C316 4893   6.196   5.557   4.864  0.8003 -0.3106  0.3517
   38DOPE  H16X 4894   6.210   5.587   4.758  1.0727  0.6751  0.6560
   38DOPE  H16Y 4895   6.097   5.507   4.871  0.0339  1.3676  2.9248
   38DOPE  C317 4896   6.296   5.470   4.938  0.0399 -0.0389 -0.4047
   38DOPE  H17X 4897   6.384   5.537   4.956 -0.1965  0.6348 -1.6702
   38DOPE  H17Y 4898   6.264   5.436   5.039  1.0258  0.3688  0.0604
   38DOPE  C318 4899   6.348   5.346   4.867  0.1852 -0.1203 -0.0990
   38DOPE  H18X 4900   6.444   5.309   4.909 -0.6983 -0.7728  1.4395
   38DOPE  H18Y 4901   6.281   5.257   4.867  1.5558 -1.1882  0.1536
   38DOPE  H18Z 4902   6.354   5.372   4.759 -2.2815  1.9536  0.1770
   39DOPE     N 4903   2.288   4.617   2.811 -0.6026 -0.3928 -0.2064
   39DOPE   HN1 4904   2.331   4.601   2.717  3.3230  1.2780  1.1057
   39DOPE   HN2 4905   2.363   4.654   2.872  0.7452 -2.0981 -0.7372
   39DOPE   HN3 4906   2.240   4.534   2.852 -2.1905  0.1330 -0.9321
   39DOPE   C12 4907   2.181   4.724   2.820 -0.6817  0.3690  0.2978
   39DOPE  H12A 4908   2.128   4.729   2.723  2.9086  0.7269 -1.8267
   39DOPE  H12B 4909   2.237   4.819   2.805 -0.5512  0.0983 -1.0853
   39DOPE   C11 4910   2.105   4.712   2.949  0.3442  0.7998 -0.5468
   39DOPE  H11A 4911   2.042   4.803   2.962 -2.8494 -1.5333  1.8578
   39DOPE  H11B 4912   2.177   4.703   3.033 -1.6738  2.2754  1.4792
   39DOPE     P 4913   2.039   4.462   2.997 -0.3716 -0.2114  0.5922
   39DOPE   O13 4914   2.138   4.406   2.894 -0.1880 -0.2746 -0.0616
   39DOPE   O14 4915   1.905   4.395   3.003 -0.0776 -0.1385  0.4254
   39DOPE   O11 4916   2.104   4.495   3.137  0.3218  0.3069  0.4481
   39DOPE   O12 4917   2.008   4.612   2.938 -0.0218  0.4933 -0.1151
   39DOPE    C1 4918   2.025   4.486   3.254 -0.1669 -0.2885 -0.0860
   39DOPE    HA 4919   1.920   4.523   3.250 -0.8454 -2.1409 -0.6789
   39DOPE    HB 4920   2.076   4.555   3.324  1.7105 -1.3008 -0.3771
   39DOPE    C2 4921   2.020   4.345   3.319  0.1823  0.1400  0.1713
   39DOPE    HS 4922   1.952   4.274   3.267  0.0972  1.1151 -1.0823
   39DOPE   O21 4923   1.987   4.348   3.457 -0.5208  0.4223  0.1763
   39DOPE   C21 4924   1.861   4.342   3.484 -0.4317 -0.1853  0.1019
   39DOPE   O22 4925   1.768   4.354   3.406 -0.0748  0.0071 -0.6188
   39DOPE   C22 4926   1.846   4.356   3.640 -0.6658 -0.4167 -0.1900
   39DOPE   H2R 4927   1.875   4.461   3.664  0.3541 -0.6572 -0.3350
   39DOPE   H2S 4928   1.922   4.295   3.693  0.1791 -1.2266 -2.2290
   39DOPE    C3 4929   2.168   4.302   3.307 -0.2733  0.5640 -0.2616
   39DOPE    HX 4930   2.229   4.391   3.330  2.3541 -1.0017 -0.7818
   39DOPE    HY 4931   2.186   4.273   3.201 -2.2706  1.0546 -0.7868
   39DOPE   O31 4932   2.210   4.204   3.406  0.0440  0.2612  0.5240
   39DOPE   C31 4933   2.178   4.076   3.373  0.0409 -0.0120  0.2560
   39DOPE   O32 4934   2.124   4.039   3.268 -0.4603 -0.0762 -0.3216
   39DOPE   C32 4935   2.210   3.977   3.486 -0.2727 -0.2895  0.1663
   39DOPE   H2X 4936   2.134   3.983   3.567  1.4909 -1.9678  2.0569
   39DOPE   H2Y 4937   2.203   3.877   3.440  1.1200 -0.2101 -0.2719
   39DOPE   C23 4938   1.692   4.326   3.677  0.6457  0.5910 -0.2279
   39DOPE   H3R 4939   1.670   4.218   3.663  0.1285  0.6786 -0.1112
   39DOPE   H3S 4940   1.619   4.384   3.616  1.3292 -0.1316 -1.7762
   39DOPE   C24 4941   1.678   4.349   3.830 -0.4040  0.2345  0.1226
   39DOPE   H4R 4942   1.573   4.325   3.855 -0.1610  1.0076  1.9679
   39DOPE   H4S 4943   1.695   4.454   3.862  1.2465  0.2392 -0.6777
   39DOPE   C25 4944   1.767   4.260   3.919  0.1778  0.3138  0.7660
   39DOPE   H5R 4945   1.870   4.302   3.927 -0.6385  2.3807  1.0586
   39DOPE   H5S 4946   1.767   4.156   3.881  3.1747  0.4214  0.2328
   39DOPE   C26 4947   1.712   4.251   4.069  0.3079 -0.4382  0.0038
   39DOPE   H6R 4948   1.756   4.162   4.119 -0.7300  0.0339  1.8307
   39DOPE   H6S 4949   1.602   4.249   4.086  0.2195 -1.8071 -0.5603
   39DOPE   C27 4950   1.785   4.361   4.155 -0.7848 -0.4415  0.0012
   39DOPE   H7R 4951   1.835   4.427   4.081  2.0649 -2.7649 -0.3331
   39DOPE   H7S 4952   1.867   4.312   4.212 -0.1430 -0.1996 -0.6889
   39DOPE   C28 4953   1.692   4.436   4.253  0.2941  0.2010  0.7749
   39DOPE   H8R 4954   1.613   4.477   4.187  1.3356  2.8981  1.0674
   39DOPE   H8S 4955   1.726   4.534   4.293  0.9304  0.3596 -0.1075
   39DOPE   C29 4956   1.642   4.335   4.358  0.7854 -0.2198 -0.2142
   39DOPE   H9R 4957   1.566   4.265   4.319  1.0898 -0.6650 -0.0198
   39DOPE  C210 4958   1.688   4.309   4.481 -0.2460  0.3541  0.3294
   39DOPE  H10R 4959   1.644   4.223   4.534  2.1315  0.2105  2.1784
   39DOPE  C211 4960   1.796   4.383   4.550 -0.1404 -0.4864  0.0336
   39DOPE  H11R 4961   1.755   4.441   4.635 -1.2120 -3.5752  1.7927
   39DOPE  H11S 4962   1.852   4.448   4.480 -0.1475 -1.2451 -0.6894
   39DOPE  C212 4963   1.896   4.281   4.599  0.2302 -0.2478  0.1104
   39DOPE  H12R 4964   1.948   4.220   4.522 -0.9444 -0.5228 -0.4799
   39DOPE  H12S 4965   1.855   4.210   4.674  1.5655 -1.8533 -0.6195
   39DOPE  C213 4966   2.008   4.341   4.686 -0.2871  0.3464  0.0930
   39DOPE  H13R 4967   2.069   4.262   4.735 -0.2701  0.1623 -0.2198
   39DOPE  H13S 4968   1.973   4.416   4.760 -1.9283  0.9239 -1.2025
   39DOPE  C214 4969   2.129   4.415   4.614 -0.4132 -0.1844 -0.7078
   39DOPE  H14R 4970   2.088   4.503   4.560 -0.4932  0.3615  0.2177
   39DOPE  H14S 4971   2.160   4.344   4.534  1.8192  1.0572 -1.0293
   39DOPE  C215 4972   2.252   4.437   4.710 -0.2807  1.1004  0.2340
   39DOPE  H15R 4973   2.256   4.354   4.784 -0.1130 -0.3724 -1.3891
   39DOPE  H15S 4974   2.243   4.536   4.760 -0.2661  2.0232 -1.5038
   39DOPE  C216 4975   2.381   4.427   4.628  0.0910 -0.6629 -0.0567
   39DOPE  H16R 4976   2.365   4.498   4.545 -0.5568 -0.2834  0.3804
   39DOPE  H16S 4977   2.395   4.323   4.591 -0.7732 -1.0765  0.7063
   39DOPE  C217 4978   2.501   4.480   4.710 -0.0211  0.1882 -0.0601
   39DOPE  H17R 4979   2.538   4.398   4.776  2.0827  0.9515 -0.2033
   39DOPE  H17S 4980   2.476   4.564   4.778  2.4974  1.2103 -0.2677
   39DOPE  C218 4981   2.621   4.523   4.624 -0.0295  0.6513 -0.4261
   39DOPE  H18R 4982   2.603   4.627   4.586  0.1025  0.3000 -1.4867
   39DOPE  H18S 4983   2.644   4.464   4.533 -0.3976  0.1432 -0.1913
   39DOPE  H18T 4984   2.712   4.533   4.686  0.3641 -0.0251 -0.8847
   39DOPE   C33 4985   2.351   3.984   3.542  0.0446  0.2646 -0.6197
   39DOPE   H3X 4986   2.411   4.054   3.480  1.1895  0.1237  0.2984
   39DOPE   H3Y 4987   2.397   3.884   3.545  2.0530  1.0963 -1.8484
   39DOPE   C34 4988   2.341   4.030   3.689  0.0739  0.4806  0.0353
   39DOPE   H4X 4989   2.258   4.103   3.693  0.5302  1.0258 -0.3300
   39DOPE   H4Y 4990   2.299   3.939   3.737  1.4006  0.0292  0.4156
   39DOPE   C35 4991   2.477   4.082   3.743  1.0482 -0.2361  0.0892
   39DOPE   H5X 4992   2.504   4.184   3.708 -1.0534 -0.7650 -3.6126
   39DOPE   H5Y 4993   2.549   4.011   3.697 -1.5962 -2.6166 -0.6683
   39DOPE   C36 4994   2.476   4.080   3.896  0.0845  0.4760  0.3125
   39DOPE   H6X 4995   2.425   3.992   3.940  0.1538  1.0014  1.4974
   39DOPE   H6Y 4996   2.418   4.170   3.926 -2.5351 -1.3864  1.2400
   39DOPE   C37 4997   2.617   4.100   3.956  0.3877 -0.4002 -0.1452
   39DOPE   H7X 4998   2.686   4.029   3.906  1.5081 -1.6334  2.8917
   39DOPE   H7Y 4999   2.648   4.205   3.936  3.1078 -1.2435 -0.8080
   39DOPE   C38 5000   2.635   4.056   4.102 -0.1480  0.0045 -0.7308
   39DOPE   H8X 5001   2.741   4.066   4.133  0.0919  1.1172 -1.8184
   39DOPE   H8Y 5002   2.606   3.949   4.113 -1.1608  0.3988  0.8233
   39DOPE   C39 5003   2.545   4.147   4.180  0.0995  0.2739 -0.8835
   39DOPE   H9X 5004   2.441   4.149   4.143 -0.7063  3.0550  1.1609
   39DOPE  C310 5005   2.575   4.221   4.289  0.9582  0.7326 -0.8163
   39DOPE  H10X 5006   2.493   4.282   4.328  1.4438  0.9207 -0.0513
   39DOPE  C311 5007   2.702   4.220   4.374  0.4021  0.0240  0.4445
   39DOPE  H11X 5008   2.683   4.224   4.484 -1.6821  1.2341  0.0878
   39DOPE  H11Y 5009   2.764   4.132   4.347 -1.4951 -1.4006  0.5502
   39DOPE  C312 5010   2.800   4.335   4.334  0.3270 -0.7090 -0.2817
   39DOPE  H12X 5011   2.758   4.435   4.354 -0.7515 -1.4363  1.1992
   39DOPE  H12Y 5012   2.825   4.326   4.226 -0.0719  0.3203 -0.4704
   39DOPE  C313 5013   2.930   4.321   4.415 -0.0504 -0.4326 -0.1216
   39DOPE  H13X 5014   2.891   4.352   4.515 -0.0594  3.6358 -1.1999
   39DOPE  H13Y 5015   2.971   4.220   4.398 -0.7429 -0.7952  0.3331
   39DOPE  C314 5016   3.039   4.420   4.383  0.1185 -0.4984 -0.1393
   39DOPE  H14X 5017   3.037   4.436   4.273 -2.3400  2.4345  0.2067
   39DOPE  H14Y 5018   3.138   4.379   4.412  1.3804  2.1450 -0.4207
   39DOPE  C315 5019   3.037   4.558   4.449 -0.3897  0.1531 -0.0913
   39DOPE  H15X 5020   2.951   4.617   4.410 -0.7588 -1.3560 -1.6555
   39DOPE  H15Y 5021   3.129   4.610   4.416 -0.1641  0.6371  1.2227
   39DOPE  C316 5022   3.053   4.558   4.602  0.5825 -0.2463 -0.2989
   39DOPE  H16X 5023   3.145   4.499   4.623 -1.6723 -3.8291  0.2854
   39DOPE  H16Y 5024   2.977   4.498   4.656  2.4592 -1.9026  0.6793
   39DOPE  C317 5025   3.082   4.700   4.663 -0.0951 -0.1166 -0.2156
   39DOPE  H17X 5026   3.131   4.704   4.762  1.2249 -1.1738 -0.7910
   39DOPE  H17Y 5027   3.163   4.748   4.603  0.9978 -2.4965 -0.7748
   39DOPE  C318 5028   2.960   4.792   4.668  0.3945 -0.0011  0.1783
   39DOPE  H18X 5029   2.982   4.866   4.748 -1.3725 -0.1854  0.8676
   39DOPE  H18Y 5030   2.942   4.847   4.573  0.7934  0.5095  0.3952
   39DOPE  H18Z 5031   2.864   4.742   4.691  0.4107  0.6311  1.7412
   40DOPE     N 5032   4.178   5.822   3.283 -0.3229 -0.2364  0.1787
   40DOPE   HN1 5033   4.089   5.870   3.304  0.6175  1.4734  0.4764
   40DOPE   HN2 5034   4.185   5.811   3.180 -2.1753 -0.0977  0.0157
   40DOPE   HN3 5035   4.178   5.728   3.327 -0.9505 -0.1249  0.4229
   40DOPE   C12 5036   4.300   5.896   3.323 -0.4534  0.4848  0.3912
   40DOPE  H12A 5037   4.383   5.825   3.305 -0.4856  1.0757 -2.4380
   40DOPE  H12B 5038   4.288   5.908   3.433 -2.6240  0.9348  0.1568
   40DOPE   C11 5039   4.323   6.026   3.243  0.1748  0.4812 -0.5101
   40DOPE  H11A 5040   4.399   6.091   3.291 -0.7745  0.4813  1.0632
   40DOPE  H11B 5041   4.231   6.088   3.250  0.5742  1.1099 -0.7295
   40DOPE     P 5042   4.337   6.074   2.980 -0.3797  0.1594 -0.5234
   40DOPE   O13 5043   4.192   6.085   2.973 -0.2150 -0.4519 -0.1327
   40DOPE   O14 5044   4.407   6.011   2.861 -0.3888 -0.0830 -0.7652
   40DOPE   O11 5045   4.399   6.210   3.011 -0.5447 -0.4828 -0.1115
   40DOPE   O12 5046   4.362   5.994   3.113  0.0539  0.0962 -0.4179
   40DOPE    C1 5047   4.349   6.322   3.072  0.4758 -0.3098  0.1099
   40DOPE    HA 5048   4.320   6.290   3.174 -1.2199  0.4145 -0.1164
   40DOPE    HB 5049   4.254   6.346   3.020  0.2174 -0.4970  0.4935
   40DOPE    C2 5050   4.438   6.446   3.064  0.2983 -0.0093 -0.1800
   40DOPE    HS 5051   4.455   6.483   2.961 -2.2753  1.6248 -0.0889
   40DOPE   O21 5052   4.563   6.431   3.128 -0.1072 -0.7761  0.3738
   40DOPE   C21 5053   4.657   6.379   3.048  0.3406  0.5109 -0.1951
   40DOPE   O22 5054   4.645   6.363   2.925  0.7575  0.8540  0.3376
   40DOPE   C22 5055   4.785   6.352   3.122  0.1657  0.4496  0.4815
   40DOPE   H2R 5056   4.861   6.418   3.076 -1.1174  2.2360  0.8048
   40DOPE   H2S 5057   4.819   6.249   3.097  0.0262  0.5560 -0.1708
   40DOPE    C3 5058   4.357   6.559   3.135  0.0592  0.6026 -0.3409
   40DOPE    HX 5059   4.258   6.546   3.086  0.3735 -0.7462 -0.6330
   40DOPE    HY 5060   4.400   6.657   3.104 -0.4140  1.2525  0.9922
   40DOPE   O31 5061   4.363   6.546   3.280  0.0935 -0.3858 -0.3454
   40DOPE   C31 5062   4.460   6.612   3.340  0.0302  0.7174  0.0345
   40DOPE   O32 5063   4.546   6.681   3.288  0.1785 -0.3138 -0.4756
   40DOPE   C32 5064   4.447   6.563   3.488 -0.5100 -0.2399  0.2844
   40DOPE   H2X 5065   4.346   6.581   3.529 -0.2104  0.5228  0.7063
   40DOPE   H2Y 5066   4.466   6.454   3.493  1.7757  0.1246  0.8911
   40DOPE   C23 5067   4.795   6.391   3.277 -0.4073 -0.1496 -0.1960
   40DOPE   H3R 5068   4.753   6.492   3.290 -1.7834 -0.7205 -0.0199
   40DOPE   H3S 5069   4.904   6.393   3.299 -0.3306  2.3254 -0.5148
   40DOPE   C24 5070   4.728   6.294   3.372 -0.4405 -0.0504 -0.1769
   40DOPE   H4R 5071   4.618   6.309   3.359 -0.4367 -0.3206 -0.5288
   40DOPE   H4S 5072   4.733   6.333   3.476 -2.9458  1.2654 -0.4515
   40DOPE   C25 5073   4.785   6.155   3.352 -0.3688  0.8039 -0.6435
   40DOPE   H5R 5074   4.891   6.162   3.319 -0.1474 -0.6219 -0.2911
   40DOPE   H5S 5075   4.737   6.078   3.287  2.1584 -0.7552 -0.7804
   40DOPE   C26 5076   4.784   6.081   3.487 -0.4354  0.1137  0.9594
   40DOPE   H6R 5077   4.677   6.066   3.513 -0.3084  0.5097  1.7311
   40DOPE   H6S 5078   4.820   6.153   3.563  0.0378  1.9260 -0.8768
   40DOPE   C27 5079   4.869   5.952   3.481  0.6329  0.2217  0.1700
   40DOPE   H7R 5080   4.979   5.968   3.483  0.8551 -1.1336  0.1389
   40DOPE   H7S 5081   4.850   5.900   3.384 -0.3733 -1.5073  1.2473
   40DOPE   C28 5082   4.818   5.863   3.588 -0.4965 -0.1926 -0.1238
   40DOPE   H8R 5083   4.709   5.879   3.594 -0.2956  1.3921 -0.1452
   40DOPE   H8S 5084   4.862   5.901   3.683 -0.3672 -2.9320  0.9970
   40DOPE   C29 5085   4.847   5.716   3.548 -0.8401  0.2238 -0.7753
   40DOPE   H9R 5086   4.776   5.675   3.475 -0.2262 -1.7499 -0.3075
   40DOPE  C210 5087   4.944   5.636   3.596  0.4127  0.6631  0.1608
   40DOPE  H10R 5088   4.958   5.537   3.549  2.8482  0.3596  1.3986
   40DOPE  C211 5089   5.049   5.679   3.695  0.2284  0.2975  0.2843
   40DOPE  H11R 5090   5.055   5.790   3.700 -2.3891  0.7250 -2.7682
   40DOPE  H11S 5091   5.152   5.642   3.676  0.4024  1.0096 -0.1809
   40DOPE  C212 5092   5.009   5.628   3.832  0.2455  0.3010  0.5541
   40DOPE  H12R 5093   5.045   5.523   3.833  1.1437  0.5138 -2.0750
   40DOPE  H12S 5094   4.899   5.634   3.848 -0.0770 -1.4630 -0.6910
   40DOPE  C213 5095   5.076   5.710   3.941  0.5932  0.4665 -0.0991
   40DOPE  H13R 5096   5.052   5.818   3.928  0.1997  0.2719 -1.1212
   40DOPE  H13S 5097   5.181   5.704   3.903  0.0779  2.8581 -2.1785
   40DOPE  C214 5098   5.059   5.663   4.083 -0.4937  0.0155  0.8953
   40DOPE  H14R 5099   5.129   5.724   4.145  0.3466  1.1672 -1.0990
   40DOPE  H14S 5100   5.089   5.556   4.081  0.2492  0.2144 -0.7728
   40DOPE  C215 5101   4.916   5.690   4.133 -0.7850 -0.0677 -0.7923
   40DOPE  H15R 5102   4.853   5.656   4.048  0.4981  0.0372 -1.8078
   40DOPE  H15S 5103   4.895   5.799   4.141 -0.5758 -0.1155  0.6958
   40DOPE  C216 5104   4.871   5.625   4.270  0.1328 -0.4157  0.7785
   40DOPE  H16R 5105   4.909   5.521   4.276  1.4943  0.1240  2.0162
   40DOPE  H16S 5106   4.761   5.621   4.288 -0.6678 -0.7844 -3.2222
   40DOPE  C217 5107   4.924   5.703   4.396 -0.0953  0.3270 -0.0672
   40DOPE  H17R 5108   4.876   5.803   4.397  2.7998  1.9460  3.5388
   40DOPE  H17S 5109   5.033   5.725   4.386  0.0383 -0.0548  0.5499
   40DOPE  C218 5110   4.906   5.623   4.521 -0.1470 -0.4349 -0.2829
   40DOPE  H18R 5111   4.951   5.679   4.605  0.4980 -1.5832  0.1640
   40DOPE  H18S 5112   4.961   5.527   4.507  0.0572 -0.3660  0.0500
   40DOPE  H18T 5113   4.799   5.602   4.541 -0.1865  0.4792  0.5097
   40DOPE   C33 5114   4.552   6.624   3.586  1.0772  0.3058  0.1185
   40DOPE   H3X 5115   4.539   6.734   3.596  0.6435  0.5864 -2.6143
   40DOPE   H3Y 5116   4.652   6.614   3.540  0.9795  3.4423 -1.0634
   40DOPE   C34 5117   4.556   6.562   3.728  0.1594 -0.4030 -0.2663
   40DOPE   H4X 5118   4.609   6.626   3.802 -2.1937 -1.6549  2.7573
   40DOPE   H4Y 5119   4.450   6.559   3.761 -0.3123 -1.5117 -1.7530
   40DOPE   C35 5120   4.613   6.423   3.737 -0.0704 -0.4755 -0.2978
   40DOPE   H5X 5121   4.715   6.429   3.693 -0.1260 -1.5589 -0.6198
   40DOPE   H5Y 5122   4.546   6.361   3.673 -0.4823  0.0495 -0.3880
   40DOPE   C36 5123   4.630   6.374   3.879  0.1599  0.1256  0.3380
   40DOPE   H6X 5124   4.539   6.394   3.940 -1.6441 -3.4089 -0.9367
   40DOPE   H6Y 5125   4.714   6.427   3.928  0.3983 -0.2803  0.3737
   40DOPE   C37 5126   4.665   6.225   3.891  0.0752  0.4628 -0.2324
   40DOPE   H7X 5127   4.606   6.155   3.828  3.1550 -1.9756 -0.6234
   40DOPE   H7Y 5128   4.767   6.211   3.849  0.8104  1.9391  0.9779
   40DOPE   C38 5129   4.676   6.180   4.036  0.9506 -0.1313  0.3790
   40DOPE   H8X 5130   4.737   6.248   4.099  0.1854 -0.3973  1.4327
   40DOPE   H8Y 5131   4.723   6.080   4.033  2.4256  0.5368  0.3029
   40DOPE   C39 5132   4.538   6.159   4.099 -0.3422 -0.1763 -0.8536
   40DOPE   H9X 5133   4.467   6.235   4.065  1.8503  2.6708  0.4439
   40DOPE  C310 5134   4.498   6.053   4.172  0.6914  0.3071 -0.2494
   40DOPE  H10X 5135   4.391   6.043   4.191  0.6329  0.6972 -0.3712
   40DOPE  C311 5136   4.574   5.932   4.222  0.7142 -0.2598  0.3334
   40DOPE  H11X 5137   4.514   5.843   4.194 -0.4716  0.1460  1.5342
   40DOPE  H11Y 5138   4.681   5.925   4.191  0.5781  0.7108 -0.4250
   40DOPE  C312 5139   4.583   5.947   4.374  0.6458  0.1568  0.4192
   40DOPE  H12X 5140   4.621   5.849   4.408  0.8394 -0.6632 -1.9489
   40DOPE  H12Y 5141   4.480   5.956   4.413 -0.1511  1.2428 -1.7826
   40DOPE  C313 5142   4.671   6.057   4.408 -0.6010 -0.4441  0.4817
   40DOPE  H13X 5143   4.771   6.046   4.362 -1.0290  1.7186 -1.1145
   40DOPE  H13Y 5144   4.629   6.154   4.374 -0.0822 -0.5239 -0.4266
   40DOPE  C314 5145   4.696   6.069   4.558 -0.2552 -0.2789  0.0554
   40DOPE  H14X 5146   4.596   6.056   4.604  0.1049  2.6112  1.9175
   40DOPE  H14Y 5147   4.739   6.171   4.572  1.3277 -0.7170 -1.2368
   40DOPE  C315 5148   4.789   5.959   4.620  0.2520 -1.4530  0.2462
   40DOPE  H15X 5149   4.883   5.944   4.562  1.0665  0.1213  1.0865
   40DOPE  H15Y 5150   4.720   5.872   4.618 -2.5540  0.6160  0.8154
   40DOPE  C316 5151   4.810   5.979   4.771  0.0859  0.0979  0.0928
   40DOPE  H16X 5152   4.892   6.053   4.782  0.0628  0.3509 -1.2962
   40DOPE  H16Y 5153   4.850   5.879   4.800 -0.7358 -0.9052 -2.0084
   40DOPE  C317 5154   4.692   6.012   4.865 -0.2170 -1.0098  0.0181
   40DOPE  H17X 5155   4.647   6.109   4.835  1.4004 -0.3981 -0.5655
   40DOPE  H17Y 5156   4.619   5.934   4.833 -3.3493  1.5094  0.5598
   40DOPE  C318 5157   4.723   5.991   5.018 -0.0063  0.0583  0.3399
   40DOPE  H18X 5158   4.785   5.900   5.028  1.0273  0.4571 -1.8730
   40DOPE  H18Y 5159   4.774   6.087   5.041 -1.6718  0.9569  0.4241
   40DOPE  H18Z 5160   4.623   5.979   5.066 -0.3062 -3.8179 -0.9147
   41DOPE     N 5161   3.169   5.002   3.072 -0.1404  0.8304  0.1604
   41DOPE   HN1 5162   3.234   4.922   3.065 -0.4161  0.7324 -1.6953
   41DOPE   HN2 5163   3.138   5.021   2.975 -0.9408 -0.1844  0.1961
   41DOPE   HN3 5164   3.220   5.084   3.110  0.2457 -0.2914  2.2462
   41DOPE   C12 5165   3.045   4.984   3.160 -0.0354  0.5660 -0.2134
   41DOPE  H12A 5166   2.990   5.080   3.161  1.6979  1.6527  2.3732
   41DOPE  H12B 5167   3.075   4.961   3.265 -0.1391  0.3108 -0.2393
   41DOPE   C11 5168   2.955   4.878   3.120 -0.0022  0.0495  0.2481
   41DOPE  H11A 5169   2.871   4.862   3.192  0.2995  3.1320  1.4323
   41DOPE  H11B 5170   3.001   4.777   3.114 -2.8236 -1.3513  0.1987
   41DOPE     P 5171   2.779   4.984   2.956  0.0353 -0.0216  0.2927
   41DOPE   O13 5172   2.674   4.903   2.895  0.5137 -0.3754  0.4819
   41DOPE   O14 5173   2.820   5.096   2.866  0.3224 -0.0282 -0.5506
   41DOPE   O11 5174   2.729   5.057   3.089  0.5927 -0.5148  0.2833
   41DOPE   O12 5175   2.909   4.896   2.983 -0.0361 -0.5735  0.2969
   41DOPE    C1 5176   2.735   5.196   3.110  0.5421  0.3216 -0.5963
   41DOPE    HA 5177   2.688   5.241   3.020 -0.3785 -1.2769 -0.9514
   41DOPE    HB 5178   2.837   5.240   3.113  1.0179 -0.7520 -0.6718
   41DOPE    C2 5179   2.658   5.236   3.240 -0.1023 -1.2695 -0.0189
   41DOPE    HS 5180   2.673   5.345   3.257  0.6234 -1.0581 -1.7761
   41DOPE   O21 5181   2.710   5.159   3.353 -0.5387 -0.5468 -0.6107
   41DOPE   C21 5182   2.834   5.188   3.388  0.4093  0.3946  0.1039
   41DOPE   O22 5183   2.902   5.281   3.348 -0.0658 -0.0200  0.2673
   41DOPE   C22 5184   2.880   5.075   3.485 -0.2778 -0.1542  0.0191
   41DOPE   H2R 5185   2.986   5.055   3.459 -0.6433 -0.4003 -1.3724
   41DOPE   H2S 5186   2.814   4.988   3.464 -0.9587  0.5985 -1.0270
   41DOPE    C3 5187   2.503   5.210   3.235  0.2497  0.7529  0.3860
   41DOPE    HX 5188   2.495   5.100   3.217 -0.9792  0.9899 -0.7025
   41DOPE    HY 5189   2.468   5.257   3.140  0.0426  1.0225  0.5958
   41DOPE   O31 5190   2.425   5.268   3.348  0.0251 -0.3776  0.6316
   41DOPE   C31 5191   2.335   5.193   3.402 -0.4441  0.3228  0.2380
   41DOPE   O32 5192   2.323   5.074   3.383  0.0929 -0.8314 -0.0219
   41DOPE   C32 5193   2.259   5.281   3.496  0.7947  0.7332 -0.6392
   41DOPE   H2X 5194   2.327   5.352   3.549 -0.0355  0.8774  0.2728
   41DOPE   H2Y 5195   2.183   5.346   3.447 -1.9950  0.2564  2.6127
   41DOPE   C23 5196   2.866   5.108   3.633  0.2322  0.1366  0.1271
   41DOPE   H3R 5197   2.900   5.210   3.660 -0.7643  0.2202  1.1151
   41DOPE   H3S 5198   2.921   5.036   3.698  0.7676  0.0202 -0.4468
   41DOPE   C24 5199   2.714   5.093   3.682 -0.4029  0.1126  0.2604
   41DOPE   H4R 5200   2.672   4.995   3.651  1.0032 -0.2298 -0.6619
   41DOPE   H4S 5201   2.653   5.179   3.645 -1.5642 -0.0756  1.6529
   41DOPE   C25 5202   2.718   5.101   3.836 -0.2733  0.2360  0.0082
   41DOPE   H5R 5203   2.773   5.194   3.862  1.2134 -1.0323  1.6115
   41DOPE   H5S 5204   2.773   5.011   3.872 -0.2829  0.6114  1.0010
   41DOPE   C26 5205   2.582   5.090   3.901 -0.7161 -0.2813 -0.0448
   41DOPE   H6R 5206   2.610   5.069   4.006 -1.0899 -1.1105 -0.1005
   41DOPE   H6S 5207   2.532   4.998   3.863 -0.3756 -0.0429 -1.1256
   41DOPE   C27 5208   2.481   5.209   3.889  0.6163  0.1679  0.0251
   41DOPE   H7R 5209   2.384   5.178   3.934  0.9152 -0.8497 -0.0058
   41DOPE   H7S 5210   2.467   5.227   3.780 -2.0506 -1.4297  0.0227
   41DOPE   C28 5211   2.543   5.329   3.963  0.6440  0.8311 -0.2215
   41DOPE   H8R 5212   2.635   5.364   3.912  1.1117 -0.2978 -0.1768
   41DOPE   H8S 5213   2.563   5.290   4.065 -2.5680 -1.0558 -0.1832
   41DOPE   C29 5214   2.436   5.432   3.966 -0.0365 -0.1827  0.5483
   41DOPE   H9R 5215   2.441   5.523   3.905 -2.2006  0.5807  1.3939
   41DOPE  C210 5216   2.326   5.435   4.047  0.5987  0.1226 -0.3768
   41DOPE  H10R 5217   2.252   5.516   4.035  0.3709  0.1703  1.1279
   41DOPE  C211 5218   2.277   5.334   4.146  0.1987 -0.1511 -0.2370
   41DOPE  H11R 5219   2.346   5.248   4.153 -0.9652 -1.0173  1.0574
   41DOPE  H11S 5220   2.185   5.284   4.109 -0.8540  1.3571  0.2449
   41DOPE  C212 5221   2.263   5.386   4.290 -0.0699  0.1698 -0.4823
   41DOPE  H12R 5222   2.195   5.473   4.282 -0.7876 -0.3347 -0.0329
   41DOPE  H12S 5223   2.361   5.418   4.331 -0.8095  0.6472  0.9951
   41DOPE  C213 5224   2.193   5.282   4.383 -0.4258 -0.0996 -0.0539
   41DOPE  H13R 5225   2.099   5.256   4.330 -0.0186 -0.0078 -0.8399
   41DOPE  H13S 5226   2.164   5.349   4.467 -0.1000 -1.6711  1.3702
   41DOPE  C214 5227   2.289   5.171   4.434 -0.5030  0.4218 -0.2691
   41DOPE  H14R 5228   2.390   5.214   4.453  0.8294 -2.6227  0.1731
   41DOPE  H14S 5229   2.288   5.098   4.351  2.3876 -0.0092 -0.0336
   41DOPE  C215 5230   2.237   5.102   4.561 -0.1860 -0.5307  0.2007
   41DOPE  H15R 5231   2.145   5.049   4.530 -0.4131 -1.0422  1.6744
   41DOPE  H15S 5232   2.208   5.181   4.634  2.7497 -0.5998  1.5961
   41DOPE  C216 5233   2.341   5.007   4.632  0.0348 -0.1341  0.0999
   41DOPE  H16R 5234   2.421   5.078   4.662 -0.7349  1.3548 -1.2541
   41DOPE  H16S 5235   2.382   4.936   4.557  2.1472 -0.5095  1.5213
   41DOPE  C217 5236   2.281   4.940   4.751 -0.0835  0.3261 -0.5765
   41DOPE  H17R 5237   2.198   4.868   4.740 -1.4709  1.4639  1.5444
   41DOPE  H17S 5238   2.241   5.019   4.820  1.0018  0.9898 -0.6813
   41DOPE  C218 5239   2.394   4.852   4.818 -0.1425 -0.0417 -0.4326
   41DOPE  H18R 5240   2.353   4.787   4.898  1.9037 -0.0488  0.6790
   41DOPE  H18S 5241   2.474   4.917   4.861 -1.0101  0.3436  0.6330
   41DOPE  H18T 5242   2.444   4.780   4.749 -0.3119 -0.2042 -0.3877
   41DOPE   C33 5243   2.186   5.189   3.596 -0.6485  0.6475  0.2788
   41DOPE   H3X 5244   2.245   5.105   3.638  0.2418  0.8317 -0.5791
   41DOPE   H3Y 5245   2.111   5.136   3.534  1.6740 -0.6386 -1.6180
   41DOPE   C34 5246   2.119   5.270   3.712  0.5922  0.2890  0.0664
   41DOPE   H4X 5247   2.072   5.185   3.766  0.9584  0.0067 -0.0480
   41DOPE   H4Y 5248   2.204   5.312   3.771 -1.0193  0.5320  2.3333
   41DOPE   C35 5249   2.024   5.381   3.668  0.0681 -0.0630 -0.4013
   41DOPE   H5X 5250   1.952   5.350   3.590 -1.5777  1.7687  0.2866
   41DOPE   H5Y 5251   2.094   5.457   3.628  0.5589 -1.2402 -1.8457
   41DOPE   C36 5252   1.936   5.434   3.783  0.0603 -0.2927  0.3173
   41DOPE   H6X 5253   1.892   5.530   3.748  0.3713  0.3670  1.6738
   41DOPE   H6Y 5254   1.991   5.461   3.876  0.7307  2.2873 -0.7257
   41DOPE   C37 5255   1.829   5.331   3.828 -0.2945  0.0395 -0.1869
   41DOPE   H7X 5256   1.757   5.319   3.744  1.8365  1.3553 -2.3165
   41DOPE   H7Y 5257   1.873   5.231   3.845  0.2195  0.2856 -0.0627
   41DOPE   C38 5258   1.758   5.365   3.954 -0.3175 -0.8525 -0.2988
   41DOPE   H8X 5259   1.732   5.473   3.953  1.5317 -0.3640  0.6099
   41DOPE   H8Y 5260   1.836   5.356   4.033 -0.0418  1.1936 -0.2753
   41DOPE   C39 5261   1.641   5.271   3.972  0.2210 -0.2544 -0.3381
   41DOPE   H9X 5262   1.590   5.247   3.878  1.0493 -1.3320 -0.5262
   41DOPE  C310 5263   1.608   5.212   4.086 -0.1995 -0.5196  0.2472
   41DOPE  H10X 5264   1.533   5.132   4.073 -0.5315  0.1686 -3.0537
   41DOPE  C311 5265   1.664   5.238   4.221  0.6531  0.1972 -0.6042
   41DOPE  H11X 5266   1.775   5.225   4.223  0.8327  1.4897  1.2460
   41DOPE  H11Y 5267   1.644   5.342   4.257  1.3123 -0.8489  3.2566
   41DOPE  C312 5268   1.619   5.147   4.332  0.4920 -0.1127  0.4768
   41DOPE  H12X 5269   1.697   5.163   4.410 -1.0400  2.2813  1.6376
   41DOPE  H12Y 5270   1.623   5.040   4.304 -2.0538 -0.1662  0.1719
   41DOPE  C313 5271   1.485   5.188   4.389 -0.2371  0.4230 -0.2051
   41DOPE  H13X 5272   1.471   5.297   4.405 -0.1946  0.5661 -1.1037
   41DOPE  H13Y 5273   1.417   5.139   4.317 -0.1906  0.1232 -0.0434
   41DOPE  C314 5274   1.454   5.137   4.528  0.2957  0.7584 -0.1250
   41DOPE  H14X 5275   1.519   5.051   4.556  1.3190  1.7603  0.6841
   41DOPE  H14Y 5276   1.349   5.101   4.528  0.3290  0.6529 -0.5288
   41DOPE  C315 5277   1.468   5.227   4.649 -0.8929  0.1694  0.4341
   41DOPE  H15X 5278   1.442   5.330   4.617  0.6555 -0.1790 -2.2063
   41DOPE  H15Y 5279   1.574   5.220   4.681 -1.0672  1.1564  1.2951
   41DOPE  C316 5280   1.373   5.193   4.769  0.4233  0.4844 -0.2447
   41DOPE  H16X 5281   1.407   5.111   4.836  0.8662  0.8625 -0.0004
   41DOPE  H16Y 5282   1.276   5.159   4.728  0.8016  0.6475 -1.3046
   41DOPE  C317 5283   1.352   5.313   4.866  0.6577 -0.5332 -0.1593
   41DOPE  H17X 5284   1.288   5.393   4.823  1.9688 -0.4949 -2.1461
   41DOPE  H17Y 5285   1.282   5.272   4.943 -0.9104  2.6123  0.2292
   41DOPE  C318 5286   1.479   5.379   4.917 -0.0006  0.1013 -0.2253
   41DOPE  H18X 5287   1.560   5.307   4.942 -0.3594  0.1728  1.2091
   41DOPE  H18Y 5288   1.511   5.459   4.846 -0.9609 -0.7710 -1.7044
   41DOPE  H18Z 5289   1.463   5.427   5.015 -2.9247 -0.4577 -0.3359
   42DOPE     N 5290   1.413   5.426   3.278 -0.0431  0.1354  0.0525
   42DOPE   HN1 5291   1.393   5.422   3.176 -0.4675 -2.2611  0.1774
   42DOPE   HN2 5292   1.333   5.484   3.312  0.9870  0.1819  2.6220
   42DOPE   HN3 5293   1.490   5.494   3.293 -0.8589  0.5568  3.1739
   42DOPE   C12 5294   1.432   5.293   3.343  0.6397 -0.4319  0.3228
   42DOPE  H12A 5295   1.344   5.232   3.312  0.2306  0.2013  0.2196
   42DOPE  H12B 5296   1.440   5.302   3.454 -0.0013  0.1376  0.3290
   42DOPE   C11 5297   1.557   5.229   3.288  0.1408  0.0320 -0.2753
   42DOPE  H11A 5298   1.540   5.119   3.298  0.5194 -0.4320 -3.6394
   42DOPE  H11B 5299   1.649   5.262   3.340  0.0807 -0.3217  0.0606
   42DOPE     P 5300   1.700   5.220   3.060 -0.0525 -0.1425  0.0356
   42DOPE   O13 5301   1.775   5.349   3.079  0.3168  0.3642 -0.6002
   42DOPE   O14 5302   1.662   5.185   2.920 -0.8852 -0.3085 -0.9090
   42DOPE   O11 5303   1.791   5.114   3.125 -0.5665  0.4388  0.7215
   42DOPE   O12 5304   1.569   5.239   3.146 -0.0926 -0.1766  0.5231
   42DOPE    C1 5305   1.802   4.977   3.073 -0.1953 -0.3504 -0.0544
   42DOPE    HA 5306   1.910   4.949   3.069  0.3234  1.1626  2.0446
   42DOPE    HB 5307   1.755   4.964   2.973 -1.3232  1.2979  0.2328
   42DOPE    C2 5308   1.732   4.886   3.169 -0.3192 -0.4637 -0.4524
   42DOPE    HS 5309   1.624   4.911   3.164  0.0108  1.1973  0.2454
   42DOPE   O21 5310   1.756   4.906   3.311 -0.1898  0.1760  0.0309
   42DOPE   C21 5311   1.876   4.876   3.360 -0.0101  1.0272 -0.1429
   42DOPE   O22 5312   1.964   4.824   3.294  0.8064  0.2406 -0.0363
   42DOPE   C22 5313   1.886   4.929   3.502 -0.2860 -0.6792 -0.4862
   42DOPE   H2R 5314   1.807   5.008   3.505 -2.7594 -3.0119 -0.1185
   42DOPE   H2S 5315   1.989   4.965   3.522 -0.5820 -0.6959  1.2172
   42DOPE    C3 5316   1.743   4.733   3.127  0.6107  0.0041  0.1617
   42DOPE    HX 5317   1.848   4.708   3.102  0.6361  0.1166  0.1587
   42DOPE    HY 5318   1.686   4.737   3.032  1.1925  0.4262 -0.1737
   42DOPE   O31 5319   1.692   4.646   3.227  0.1990  0.0743 -0.2194
   42DOPE   C31 5320   1.556   4.642   3.227 -0.7057  0.5482  0.8647
   42DOPE   O32 5321   1.485   4.698   3.146 -0.5725  0.1838  0.2353
   42DOPE   C32 5322   1.501   4.567   3.344  0.6089 -0.3627  0.0299
   42DOPE   H2X 5323   1.511   4.462   3.312 -0.2040  0.2102 -2.2924
   42DOPE   H2Y 5324   1.559   4.578   3.439  0.1201 -0.6937  0.3716
   42DOPE   C23 5325   1.863   4.842   3.631 -0.1113  0.0533  0.0261
   42DOPE   H3R 5326   1.887   4.920   3.707 -1.2355  2.5334 -1.9985
   42DOPE   H3S 5327   1.940   4.763   3.645  0.6743  0.6637 -0.6730
   42DOPE   C24 5328   1.721   4.782   3.632 -0.0898 -0.2357  0.5424
   42DOPE   H4R 5329   1.729   4.697   3.561  2.0108  0.1099  0.2953
   42DOPE   H4S 5330   1.658   4.850   3.571 -1.5515 -0.1120  2.1323
   42DOPE   C25 5331   1.652   4.766   3.768 -0.6273  1.2982  0.0356
   42DOPE   H5R 5332   1.693   4.676   3.819 -1.4958  0.7254 -0.2376
   42DOPE   H5S 5333   1.546   4.744   3.742  0.2069 -0.7535 -2.0708
   42DOPE   C26 5334   1.660   4.879   3.864  0.4056  0.1687 -0.5747
   42DOPE   H6R 5335   1.598   4.964   3.829 -0.7965  0.9636  2.9854
   42DOPE   H6S 5336   1.766   4.912   3.864  0.4522  0.0486  0.0133
   42DOPE   C27 5337   1.616   4.848   4.008  0.3147 -0.2642  0.1395
   42DOPE   H7R 5338   1.654   4.936   4.065 -0.2994  0.4536 -0.5285
   42DOPE   H7S 5339   1.666   4.761   4.055 -3.8558 -2.2325  1.3548
   42DOPE   C28 5340   1.461   4.835   4.034  0.2281  0.3448 -0.3663
   42DOPE   H8R 5341   1.417   4.795   3.940  0.2210 -1.1687  0.2594
   42DOPE   H8S 5342   1.417   4.936   4.049  1.6630  1.1630 -1.3639
   42DOPE   C29 5343   1.422   4.729   4.141 -0.3867  0.0200  0.2036
   42DOPE   H9R 5344   1.481   4.636   4.137  1.7616  1.3190 -0.0572
   42DOPE  C210 5345   1.339   4.753   4.244 -0.2176 -0.3106  0.0945
   42DOPE  H10R 5346   1.322   4.673   4.317 -1.6558  0.8667  1.1078
   42DOPE  C211 5347   1.263   4.878   4.272  0.4341  0.1884  0.5780
   42DOPE  H11R 5348   1.217   4.924   4.182  1.6916  0.7844  0.2113
   42DOPE  H11S 5349   1.341   4.940   4.321  1.0450 -1.0150  1.1537
   42DOPE  C212 5350   1.154   4.879   4.374 -0.3620 -0.0892  0.2422
   42DOPE  H12R 5351   1.064   4.823   4.342 -1.0951  1.2664 -0.1699
   42DOPE  H12S 5352   1.128   4.987   4.372 -0.7478 -0.0639  2.7045
   42DOPE  C213 5353   1.192   4.831   4.523  0.3217 -0.0927 -0.2523
   42DOPE  H13R 5354   1.292   4.873   4.547  0.7280 -1.0540 -0.1966
   42DOPE  H13S 5355   1.200   4.720   4.531 -1.9637 -0.3419 -0.8246
   42DOPE  C214 5356   1.080   4.874   4.624 -0.5184 -0.1259  0.3512
   42DOPE  H14R 5357   0.989   4.813   4.612 -0.2589 -0.4643  0.0851
   42DOPE  H14S 5358   1.062   4.982   4.602 -0.0315 -0.3875 -1.5095
   42DOPE  C215 5359   1.121   4.859   4.764  0.2325  0.4068 -0.0098
   42DOPE  H15R 5360   1.213   4.921   4.771  0.0567  0.6762 -0.0808
   42DOPE  H15S 5361   1.155   4.755   4.782  1.6595  0.6265 -1.1668
   42DOPE  C216 5362   1.026   4.919   4.871 -0.5409 -0.3542  0.1222
   42DOPE  H16R 5363   1.096   4.930   4.957  1.0797  0.6477 -1.2463
   42DOPE  H16S 5364   0.938   4.853   4.886 -1.0454  0.4273  0.6505
   42DOPE  C217 5365   0.969   5.059   4.852  0.6293 -0.3678 -0.0835
   42DOPE  H17R 5366   0.896   5.063   4.768  0.1910  0.3101  0.3094
   42DOPE  H17S 5367   1.053   5.122   4.816  1.2582 -1.9781 -1.5435
   42DOPE  C218 5368   0.910   5.116   4.981  0.9268  0.4319 -0.0270
   42DOPE  H18R 5369   0.958   5.082   5.076 -0.9919  0.5390  1.0173
   42DOPE  H18S 5370   0.806   5.078   4.989  1.3942 -0.6534  1.5410
   42DOPE  H18T 5371   0.898   5.226   4.973  0.5624  0.5040  1.3027
   42DOPE   C33 5372   1.358   4.587   3.392  0.3262 -0.2815  0.3436
   42DOPE   H3X 5373   1.289   4.572   3.306 -0.1137  1.3988  0.3604
   42DOPE   H3Y 5374   1.363   4.697   3.412  1.1816  0.0692 -1.4964
   42DOPE   C34 5375   1.320   4.514   3.521  0.0311 -0.2482  0.3870
   42DOPE   H4X 5376   1.276   4.417   3.491 -1.3113  0.5259 -0.2461
   42DOPE   H4Y 5377   1.414   4.487   3.574 -0.3662 -1.1582  0.6453
   42DOPE   C35 5378   1.221   4.586   3.617 -0.0701 -0.1674 -0.1571
   42DOPE   H5X 5379   1.132   4.615   3.557 -0.3471 -1.4678 -0.4217
   42DOPE   H5Y 5380   1.275   4.676   3.651 -2.7893  1.7892 -0.7057
   42DOPE   C36 5381   1.182   4.499   3.740 -0.2122 -0.2047  0.1601
   42DOPE   H6X 5382   1.277   4.450   3.770  0.6076  1.8076  0.9648
   42DOPE   H6Y 5383   1.106   4.425   3.706 -0.4531 -0.2235  0.7365
   42DOPE   C37 5384   1.117   4.566   3.859  0.2676 -0.4560 -0.1813
   42DOPE   H7X 5385   1.198   4.623   3.908  0.4220  1.3110 -2.3507
   42DOPE   H7Y 5386   1.039   4.637   3.822 -0.8004 -1.6131 -0.2071
   42DOPE   C38 5387   1.046   4.469   3.952 -0.2503  0.1318  0.2964
   42DOPE   H8X 5388   1.119   4.400   4.000  1.1062  2.9317  2.6094
   42DOPE   H8Y 5389   0.972   4.408   3.895 -1.5259  1.2503  0.7107
   42DOPE   C39 5390   0.962   4.548   4.049 -0.3272 -0.2824  0.3317
   42DOPE   H9X 5391   0.883   4.607   3.999  1.1033  0.6962 -0.8533
   42DOPE  C310 5392   0.973   4.544   4.176  0.1909  0.2260  0.0800
   42DOPE  H10X 5393   0.898   4.595   4.239  0.1975  1.2345 -0.7031
   42DOPE  C311 5394   1.077   4.467   4.249  0.4783  0.1412 -0.5712
   42DOPE  H11X 5395   1.164   4.453   4.181  1.2121  2.1435 -0.1126
   42DOPE  H11Y 5396   1.127   4.527   4.329  1.6533 -0.4775 -0.8101
   42DOPE  C312 5397   1.036   4.330   4.306 -0.5340  0.3303 -0.0522
   42DOPE  H12X 5398   1.003   4.262   4.224 -0.8171  0.7393 -0.2782
   42DOPE  H12Y 5399   0.942   4.357   4.360 -0.0304  0.7789  0.6156
   42DOPE  C313 5400   1.150   4.260   4.379 -0.5311  0.2101  0.5880
   42DOPE  H13X 5401   1.107   4.163   4.414 -1.9169  0.4121 -0.4834
   42DOPE  H13Y 5402   1.228   4.241   4.303 -0.3407  0.3861  0.7396
   42DOPE  C314 5403   1.204   4.342   4.499 -0.4683  0.0486  0.4925
   42DOPE  H14X 5404   1.118   4.365   4.566 -0.6076 -2.3089  1.2260
   42DOPE  H14Y 5405   1.259   4.437   4.482  1.6857 -1.4612 -1.4788
   42DOPE  C315 5406   1.299   4.258   4.578 -0.4089 -0.1177 -1.0079
   42DOPE  H15X 5407   1.385   4.227   4.516  0.6575  2.0570 -0.7077
   42DOPE  H15Y 5408   1.247   4.163   4.606 -3.2688  1.2046 -1.4126
   42DOPE  C316 5409   1.352   4.326   4.703 -0.2458 -0.4876 -0.0490
   42DOPE  H16X 5410   1.266   4.344   4.771 -2.4857 -3.8488 -1.7419
   42DOPE  H16Y 5411   1.406   4.421   4.683 -1.1044 -0.2363 -1.2918
   42DOPE  C317 5412   1.446   4.220   4.768  0.4818  0.0350  0.2968
   42DOPE  H17X 5413   1.386   4.132   4.802 -0.0542  0.2747 -0.0153
   42DOPE  H17Y 5414   1.521   4.188   4.692  1.0674  0.1036  0.8431
   42DOPE  C318 5415   1.518   4.275   4.884  0.1975  0.3370  0.3307
   42DOPE  H18X 5416   1.445   4.314   4.959 -2.1291 -1.9394 -0.5834
   42DOPE  H18Y 5417   1.581   4.202   4.939 -1.7188 -1.8972 -0.2481
   42DOPE  H18Z 5418   1.575   4.365   4.854  0.2856  0.2382  0.1990
   43DOPE     N 5419   1.667   3.347   2.974 -0.3354 -0.1060 -0.1094
   43DOPE   HN1 5420   1.739   3.379   3.042  0.4131 -1.1855 -0.3803
   43DOPE   HN2 5421   1.588   3.414   2.985  0.2888  0.6689 -0.2435
   43DOPE   HN3 5422   1.616   3.261   3.003 -0.6232 -0.6132 -2.0215
   43DOPE   C12 5423   1.728   3.336   2.838  0.0126  0.1472  0.8299
   43DOPE  H12A 5424   1.789   3.428   2.829 -0.4031  0.2569 -1.1859
   43DOPE  H12B 5425   1.647   3.353   2.764  0.0922  1.9150  1.1044
   43DOPE   C11 5426   1.806   3.206   2.823  0.3802  0.0688  0.0367
   43DOPE  H11A 5427   1.897   3.202   2.886  0.7444 -0.3011 -0.5041
   43DOPE  H11B 5428   1.854   3.210   2.723  1.3397  3.6875  0.4916
   43DOPE     P 5429   1.790   2.951   2.830 -0.0017  0.3296  0.5864
   43DOPE   O13 5430   1.869   2.934   2.706 -0.6277  0.0901 -0.7005
   43DOPE   O14 5431   1.682   2.856   2.843  0.0101  0.3185  0.2114
   43DOPE   O11 5432   1.884   2.943   2.953 -0.2281 -0.2841  0.6266
   43DOPE   O12 5433   1.728   3.092   2.843  0.1948 -0.0223  0.3308
   43DOPE    C1 5434   1.833   2.956   3.088  0.6462  0.3643 -0.4183
   43DOPE    HA 5435   1.775   2.868   3.122  0.3455  1.1119  1.0951
   43DOPE    HB 5436   1.767   3.044   3.101  0.7117  0.7183 -2.2985
   43DOPE    C2 5437   1.949   2.978   3.181 -0.8019 -0.5041 -0.5971
   43DOPE    HS 5438   2.004   2.882   3.192  1.4888  0.6255 -1.4128
   43DOPE   O21 5439   1.918   3.046   3.310  0.0863 -0.0154  0.0877
   43DOPE   C21 5440   1.874   2.962   3.398  0.2183  0.5046 -0.0215
   43DOPE   O22 5441   1.850   2.838   3.386  0.2575 -0.2831 -0.3389
   43DOPE   C22 5442   1.863   3.046   3.527  0.0205 -0.0563  0.7805
   43DOPE   H2R 5443   1.769   3.103   3.511 -1.3129 -1.5533  2.8300
   43DOPE   H2S 5444   1.943   3.122   3.528  0.3862 -0.2050 -2.8524
   43DOPE    C3 5445   2.065   3.066   3.104 -0.0491  0.0843 -0.1256
   43DOPE    HX 5446   2.010   3.159   3.078  0.3020  0.8225  1.6249
   43DOPE    HY 5447   2.097   3.027   3.005  1.7432  0.5491  0.2432
   43DOPE   O31 5448   2.171   3.103   3.196 -0.6900 -0.1741  0.4237
   43DOPE   C31 5449   2.276   3.021   3.208  0.1330  0.2153  0.5850
   43DOPE   O32 5450   2.275   2.906   3.153 -0.6670 -0.3452 -0.7938
   43DOPE   C32 5451   2.389   3.085   3.292 -0.0019  0.1081 -0.2165
   43DOPE   H2X 5452   2.466   3.004   3.296  0.7013  0.6422 -2.1317
   43DOPE   H2Y 5453   2.425   3.171   3.232 -3.0408  1.9408  0.3975
   43DOPE   C23 5454   1.845   2.965   3.662  0.2389 -0.7129 -0.1899
   43DOPE   H3R 5455   1.945   2.919   3.677  0.4360  0.4545  2.5271
   43DOPE   H3S 5456   1.763   2.890   3.659 -1.3393  0.9763 -0.8921
   43DOPE   C24 5457   1.817   3.056   3.780  0.7998  0.1339 -0.5421
   43DOPE   H4R 5458   1.712   3.092   3.775  0.6860  0.0721  1.1038
   43DOPE   H4S 5459   1.886   3.143   3.784  0.9416 -0.0380  1.5917
   43DOPE   C25 5460   1.835   2.979   3.914 -0.0021  0.2759  0.2511
   43DOPE   H5R 5461   1.938   2.939   3.923 -0.5745 -1.3366  0.0257
   43DOPE   H5S 5462   1.771   2.888   3.905  2.4498 -1.5213 -0.2374
   43DOPE   C26 5463   1.790   3.055   4.040 -0.6595  0.7394  0.2565
   43DOPE   H6R 5464   1.802   3.004   4.138  0.5263  1.9382  0.7591
   43DOPE   H6S 5465   1.683   3.077   4.022 -0.2827  2.3097 -0.2461
   43DOPE   C27 5466   1.862   3.192   4.052  0.9901 -0.0652  0.7500
   43DOPE   H7R 5467   1.833   3.253   3.964  2.0934  1.2519  1.2676
   43DOPE   H7S 5468   1.970   3.166   4.046  1.4808  2.0686 -0.3463
   43DOPE   C28 5469   1.815   3.263   4.179  0.1801 -0.4161 -0.1941
   43DOPE   H8R 5470   1.841   3.192   4.261  0.7071 -0.8014 -0.6846
   43DOPE   H8S 5471   1.705   3.274   4.179  0.3423  1.5968  0.5744
   43DOPE   C29 5472   1.880   3.397   4.202  0.2350 -0.5608 -0.4515
   43DOPE   H9R 5473   1.863   3.463   4.116 -1.6197 -2.4385 -1.6209
   43DOPE  C210 5474   1.950   3.433   4.312  0.8806 -0.0528  0.3069
   43DOPE  H10R 5475   1.973   3.541   4.316 -3.8287  1.1539  1.4744
   43DOPE  C211 5476   1.991   3.344   4.428 -0.1652 -0.0876  0.5889
   43DOPE  H11R 5477   2.098   3.315   4.428 -0.1674 -0.1059 -0.1537
   43DOPE  H11S 5478   1.936   3.248   4.417  2.4920 -1.6370 -0.0851
   43DOPE  C212 5479   1.961   3.408   4.564 -0.0620 -0.1671  0.2958
   43DOPE  H12R 5480   1.977   3.336   4.647  0.4053 -0.5293 -0.1071
   43DOPE  H12S 5481   1.855   3.442   4.574  0.0182  0.1215  0.1716
   43DOPE  C213 5482   2.050   3.533   4.591  0.2308  0.4860 -0.1371
   43DOPE  H13R 5483   2.018   3.617   4.525  2.0770  0.2501 -1.4074
   43DOPE  H13S 5484   2.159   3.521   4.573  0.0435  0.5706 -1.4933
   43DOPE  C214 5485   2.032   3.587   4.730  0.0301  0.4633  0.5228
   43DOPE  H14R 5486   2.090   3.512   4.787 -0.3316 -0.6635 -0.5341
   43DOPE  H14S 5487   1.926   3.569   4.755 -0.2863 -1.3327 -1.7323
   43DOPE  C215 5488   2.081   3.726   4.746  0.6052 -0.8384 -0.9948
   43DOPE  H15R 5489   2.045   3.789   4.662 -0.0781  1.8694  1.2191
   43DOPE  H15S 5490   2.191   3.726   4.726  0.6073 -1.3351 -1.0045
   43DOPE  C216 5491   2.042   3.798   4.876  0.2105  0.0482 -0.1665
   43DOPE  H16R 5492   2.080   3.743   4.965 -0.5222 -1.6158 -0.8471
   43DOPE  H16S 5493   1.932   3.796   4.885  0.3317 -0.3009  1.5539
   43DOPE  C217 5494   2.092   3.941   4.875 -0.4071  0.4690  0.4997
   43DOPE  H17R 5495   2.037   4.001   4.799  0.1934  0.3869 -0.0067
   43DOPE  H17S 5496   2.195   3.948   4.835 -1.3821  2.5742 -1.9269
   43DOPE  C218 5497   2.076   4.012   5.009 -0.1190  0.5053 -0.4045
   43DOPE  H18R 5498   2.121   3.943   5.083  0.8451  1.8290  0.2952
   43DOPE  H18S 5499   1.969   4.034   5.032 -0.5587  0.1424 -1.9798
   43DOPE  H18T 5500   2.131   4.108   5.003  2.6425 -1.1140 -3.1032
   43DOPE   C33 5501   2.352   3.123   3.435  0.5724 -0.3338 -0.5830
   43DOPE   H3X 5502   2.261   3.186   3.437  0.4164 -0.4564  3.3081
   43DOPE   H3Y 5503   2.436   3.174   3.486 -0.2944  0.0201  0.5226
   43DOPE   C34 5504   2.322   2.998   3.520 -0.1938  0.0573 -0.8776
   43DOPE   H4X 5505   2.253   2.924   3.473 -2.1680 -0.7675  2.8944
   43DOPE   H4Y 5506   2.406   2.925   3.518 -0.7929 -0.6493 -0.8399
   43DOPE   C35 5507   2.264   3.035   3.656 -1.2689  0.4645  0.4512
   43DOPE   H5X 5508   2.165   3.081   3.637 -0.8441  1.8100  1.3700
   43DOPE   H5Y 5509   2.336   3.108   3.700  1.7085 -2.2299  0.4494
   43DOPE   C36 5510   2.259   2.918   3.753  0.0790  0.0780  0.0696
   43DOPE   H6X 5511   2.286   2.826   3.697 -1.2567 -0.0156 -0.4584
   43DOPE   H6Y 5512   2.152   2.899   3.773 -0.0511 -1.8589 -2.0842
   43DOPE   C37 5513   2.348   2.934   3.876  0.5489  0.3590  0.2216
   43DOPE   H7X 5514   2.456   2.949   3.856  1.0277 -2.9430 -0.1964
   43DOPE   H7Y 5515   2.312   3.016   3.941  0.3147 -0.8419  1.6583
   43DOPE   C38 5516   2.348   2.813   3.972  0.0260 -0.0390  0.2172
   43DOPE   H8X 5517   2.422   2.850   4.046  2.3601 -2.1075 -0.9496
   43DOPE   H8Y 5518   2.384   2.729   3.909 -0.7694  0.5673 -1.0867
   43DOPE   C39 5519   2.213   2.767   4.031 -0.0965  0.2293 -0.3161
   43DOPE   H9X 5520   2.144   2.734   3.952  2.3796 -0.4725 -2.3185
   43DOPE  C310 5521   2.175   2.777   4.162  0.1662 -0.2431 -0.3994
   43DOPE  H10X 5522   2.071   2.758   4.194  0.3693 -1.0047 -0.1720
   43DOPE  C311 5523   2.259   2.794   4.280  0.0103 -0.1452 -0.0100
   43DOPE  H11X 5524   2.271   2.705   4.346  3.2661  1.2761  1.5686
   43DOPE  H11Y 5525   2.364   2.809   4.247  0.8994 -0.6305  2.3346
   43DOPE  C312 5526   2.216   2.914   4.361 -0.1661  0.7501  0.1057
   43DOPE  H12X 5527   2.113   2.910   4.403 -0.5608 -2.1592 -0.9076
   43DOPE  H12Y 5528   2.224   3.014   4.312  0.1783  0.5052 -0.3447
   43DOPE  C313 5529   2.303   2.928   4.490 -0.7270  0.2406  0.6475
   43DOPE  H13X 5530   2.297   2.836   4.552  0.1845  0.0560  0.4807
   43DOPE  H13Y 5531   2.409   2.937   4.457 -1.2122 -0.1921 -1.1722
   43DOPE  C314 5532   2.276   3.051   4.562  0.5374 -0.1606 -0.6942
   43DOPE  H14X 5533   2.170   3.062   4.593  0.7194  1.4785 -0.5670
   43DOPE  H14Y 5534   2.291   3.135   4.491  0.4965  1.1600  0.8033
   43DOPE  C315 5535   2.356   3.059   4.692  0.7728 -0.7521 -0.1899
   43DOPE  H15X 5536   2.367   3.168   4.712 -0.5604 -0.6781  0.2948
   43DOPE  H15Y 5537   2.461   3.030   4.672  0.9608 -0.9963  1.0250
   43DOPE  C316 5538   2.294   2.989   4.815 -0.4806  0.2118  0.0467
   43DOPE  H16X 5539   2.301   2.879   4.807 -0.3522  0.2946 -1.1068
   43DOPE  H16Y 5540   2.184   3.003   4.824 -0.7331 -2.0610  1.1027
   43DOPE  C317 5541   2.369   3.023   4.943 -0.4515  0.1569  0.8131
   43DOPE  H17X 5542   2.479   3.035   4.931 -0.1904 -2.1542  0.4163
   43DOPE  H17Y 5543   2.336   3.125   4.970 -1.9454 -0.3835  1.1095
   43DOPE  C318 5544   2.350   2.920   5.059 -0.4457  0.3121 -0.1452
   43DOPE  H18X 5545   2.246   2.897   5.093  0.2178 -2.1896  0.3347
   43DOPE  H18Y 5546   2.388   2.821   5.029 -0.7823  0.0283  0.3526
   43DOPE  H18Z 5547   2.414   2.945   5.146  2.3260 -2.1304 -1.3572
   44DOPE     N 5548   4.192   1.695   2.975 -0.2108 -0.0375  0.3006
   44DOPE   HN1 5549   4.217   1.594   2.988 -1.9957 -0.3346  1.9951
   44DOPE   HN2 5550   4.255   1.743   2.909 -0.4394 -0.0022  0.1059
   44DOPE   HN3 5551   4.207   1.736   3.070  0.9401 -1.9927  1.0322
   44DOPE   C12 5552   4.053   1.690   2.921  0.2693  0.6811  0.5107
   44DOPE  H12A 5553   4.050   1.623   2.833 -0.2144 -0.1252  1.1218
   44DOPE  H12B 5554   4.017   1.793   2.899 -2.1377  0.2647  2.0988
   44DOPE   C11 5555   3.950   1.619   3.014  0.3548 -0.0297 -0.4463
   44DOPE  H11A 5556   3.972   1.510   3.019 -0.6199 -0.2566 -0.8537
   44DOPE  H11B 5557   3.852   1.619   2.961  0.2373 -1.9722 -0.3154
   44DOPE     P 5558   3.989   1.629   3.274 -0.1758  0.1132  0.2695
   44DOPE   O13 5559   3.985   1.483   3.267 -0.1350 -0.6698  0.3442
   44DOPE   O14 5560   3.912   1.691   3.381 -0.1457  0.2762  0.0332
   44DOPE   O11 5561   4.135   1.682   3.279  0.2128 -0.0749  0.2070
   44DOPE   O12 5562   3.932   1.692   3.134 -0.3520 -0.3819 -0.7570
   44DOPE    C1 5563   4.239   1.599   3.323  0.4713 -0.6089  0.5304
   44DOPE    HA 5564   4.330   1.625   3.265  0.5066 -1.2318  0.2947
   44DOPE    HB 5565   4.224   1.489   3.319 -1.8655 -0.3103 -1.2319
   44DOPE    C2 5566   4.287   1.630   3.474  0.0428 -0.5015  0.2469
   44DOPE    HS 5567   4.364   1.556   3.503 -1.1527 -1.5958  0.7760
   44DOPE   O21 5568   4.180   1.636   3.566  0.0933  0.5024 -0.3311
   44DOPE   C21 5569   4.118   1.518   3.586 -0.4375 -1.1244  0.4340
   44DOPE   O22 5570   4.156   1.413   3.536  0.2024 -0.4413 -0.4178
   44DOPE   C22 5571   3.997   1.533   3.680  0.1775  0.4840  0.2826
   44DOPE   H2R 5572   3.915   1.574   3.617  0.1963  0.8049  0.4641
   44DOPE   H2S 5573   4.026   1.593   3.769 -0.0891 -0.8439  1.2861
   44DOPE    C3 5574   4.368   1.761   3.472  0.2183 -0.0613 -0.2824
   44DOPE    HX 5575   4.308   1.852   3.447 -2.3524 -0.8802  2.3360
   44DOPE    HY 5576   4.440   1.749   3.388 -0.8958 -1.2318 -1.1154
   44DOPE   O31 5577   4.436   1.782   3.607 -0.0117  0.1830  0.0130
   44DOPE   C31 5578   4.360   1.856   3.692 -0.1256  0.0770 -0.0835
   44DOPE   O32 5579   4.253   1.907   3.659 -0.3340  0.5893  0.1209
   44DOPE   C32 5580   4.446   1.891   3.809 -0.1137  0.1475 -0.1414
   44DOPE   H2X 5581   4.488   1.798   3.853  0.7786 -0.6282 -2.4751
   44DOPE   H2Y 5582   4.523   1.959   3.768  0.3313 -2.2899 -3.8496
   44DOPE   C23 5583   3.940   1.397   3.722 -0.4825 -0.1011 -0.0992
   44DOPE   H3R 5584   4.011   1.336   3.782  0.0345  1.8735  1.4042
   44DOPE   H3S 5585   3.924   1.341   3.627  1.9339 -1.1971  0.0580
   44DOPE   C24 5586   3.818   1.412   3.820 -0.1230 -0.0100  0.6097
   44DOPE   H4R 5587   3.760   1.492   3.770  1.0858  1.0202  0.7986
   44DOPE   H4S 5588   3.849   1.448   3.920  0.8566 -2.2483  1.1836
   44DOPE   C25 5589   3.730   1.286   3.834 -0.1876 -0.2298 -0.0431
   44DOPE   H5R 5590   3.716   1.240   3.734  1.8359  0.6386 -0.7682
   44DOPE   H5S 5591   3.633   1.324   3.873 -0.9359 -0.5888 -1.5118
   44DOPE   C26 5592   3.795   1.173   3.916 -0.8369  0.1497 -0.2129
   44DOPE   H6R 5593   3.882   1.123   3.867  0.3009  0.0977  1.7630
   44DOPE   H6S 5594   3.719   1.093   3.928  0.2355 -0.9667 -0.6075
   44DOPE   C27 5595   3.839   1.213   4.062 -0.2981  0.5759  0.1917
   44DOPE   H7R 5596   3.931   1.272   4.047 -0.5503  1.0561  0.5206
   44DOPE   H7S 5597   3.862   1.119   4.117  0.1499  0.5833  0.0189
   44DOPE   C28 5598   3.739   1.295   4.140 -0.6938  0.5462  0.1987
   44DOPE   H8R 5599   3.713   1.387   4.083 -0.3293  0.7802  0.4085
   44DOPE   H8S 5600   3.792   1.334   4.230  0.6329 -2.0853  0.6607
   44DOPE   C29 5601   3.617   1.226   4.187  0.3149 -0.2656  0.1712
   44DOPE   H9R 5602   3.536   1.237   4.114  1.6493  3.0176 -0.9758
   44DOPE  C210 5603   3.597   1.135   4.281  0.0416 -0.1480 -0.7755
   44DOPE  H10R 5604   3.499   1.086   4.288 -0.2346  0.6418  2.9286
   44DOPE  C211 5605   3.697   1.087   4.388  1.6323  0.8309 -0.2170
   44DOPE  H11R 5606   3.797   1.132   4.371  0.8936  1.6749 -2.8765
   44DOPE  H11S 5607   3.704   0.978   4.366 -2.2118 -0.0667  2.0867
   44DOPE  C212 5608   3.659   1.097   4.538  1.1305  0.2875 -0.0502
   44DOPE  H12R 5609   3.557   1.058   4.562  0.6788  2.3058  1.5658
   44DOPE  H12S 5610   3.645   1.205   4.559 -0.1189  0.0972  0.2226
   44DOPE  C213 5611   3.755   1.035   4.641  0.7722 -0.1833 -0.0913
   44DOPE  H13R 5612   3.856   1.079   4.625  1.8881 -0.8973  3.9828
   44DOPE  H13S 5613   3.757   0.927   4.617  1.9449 -0.0349 -0.7397
   44DOPE  C214 5614   3.705   1.068   4.783  0.1670 -0.1716 -0.1137
   44DOPE  H14R 5615   3.609   1.017   4.806  0.1664 -0.3273 -0.4634
   44DOPE  H14S 5616   3.698   1.179   4.787 -1.2285 -0.1604 -1.9004
   44DOPE  C215 5617   3.805   1.013   4.888 -0.0532  0.1123 -0.4120
   44DOPE  H15R 5618   3.904   1.060   4.875 -0.3336  0.7020 -0.4570
   44DOPE  H15S 5619   3.821   0.904   4.869 -0.5589  0.3439 -2.3343
   44DOPE  C216 5620   3.759   1.043   5.030  0.3883  0.0670  0.2848
   44DOPE  H16R 5621   3.710   1.143   5.021 -0.6350 -0.5246 -1.1699
   44DOPE  H16S 5622   3.853   1.056   5.088  1.2922  0.6117 -1.2466
   44DOPE  C217 5623   3.669   0.934   5.083  0.3032  0.0795  0.0254
   44DOPE  H17R 5624   3.736   0.846   5.084  0.7511  0.4160  0.9545
   44DOPE  H17S 5625   3.588   0.904   5.013 -0.4164 -0.1127  0.9201
   44DOPE  C218 5626   3.629   0.955   5.224  0.0314 -0.5557 -0.0719
   44DOPE  H18R 5627   3.548   1.030   5.233  1.6704  1.2076  0.4464
   44DOPE  H18S 5628   3.713   0.990   5.287 -0.7684  0.4224  0.4635
   44DOPE  H18T 5629   3.585   0.861   5.265  1.3253 -0.6432  1.1587
   44DOPE   C33 5630   4.370   1.961   3.922  0.0672  1.0917  0.3566
   44DOPE   H3X 5631   4.297   2.033   3.880 -0.3641  0.0801 -0.6953
   44DOPE   H3Y 5632   4.451   2.014   3.976  0.2560  0.2882  0.8856
   44DOPE   C34 5633   4.293   1.879   4.023  0.5116  0.0527 -0.1297
   44DOPE   H4X 5634   4.354   1.797   4.066 -0.8197 -1.0287 -0.2422
   44DOPE   H4Y 5635   4.273   1.938   4.115  0.4896 -0.9516  0.5267
   44DOPE   C35 5636   4.158   1.822   3.984 -0.0582 -0.2740  0.8855
   44DOPE   H5X 5637   4.174   1.742   3.908  0.2289 -0.2954  0.9690
   44DOPE   H5Y 5638   4.097   1.901   3.935  2.2157  1.3017  0.4641
   44DOPE   C36 5639   4.088   1.755   4.097  0.1469  0.2614 -0.6173
   44DOPE   H6X 5640   4.078   1.824   4.183 -3.4634  0.9510 -1.4038
   44DOPE   H6Y 5641   4.140   1.664   4.132 -1.0768 -0.4424 -0.5688
   44DOPE   C37 5642   3.944   1.725   4.063  0.5298 -0.1636  0.2495
   44DOPE   H7X 5643   3.898   1.824   4.041  1.7139  0.5862  1.0460
   44DOPE   H7Y 5644   3.928   1.661   3.973 -1.6404  0.2700  0.2843
   44DOPE   C38 5645   3.860   1.664   4.177  0.4719  0.2443  0.2449
   44DOPE   H8X 5646   3.898   1.707   4.272 -0.8853 -0.2169  1.0336
   44DOPE   H8Y 5647   3.875   1.554   4.169 -1.5374 -0.0562 -0.0049
   44DOPE   C39 5648   3.711   1.683   4.161 -0.3523 -0.2297  0.3964
   44DOPE   H9X 5649   3.680   1.710   4.060  2.5142  0.9423 -0.2867
   44DOPE  C310 5650   3.623   1.691   4.262 -0.2923 -0.0663 -0.4879
   44DOPE  H10X 5651   3.517   1.713   4.244  0.1935  1.8958 -1.2058
   44DOPE  C311 5652   3.639   1.644   4.402 -0.3539 -0.0795  0.3423
   44DOPE  H11X 5653   3.616   1.536   4.390 -1.9822  0.4403 -1.8420
   44DOPE  H11Y 5654   3.742   1.662   4.439  0.2691  3.0987 -2.4722
   44DOPE  C312 5655   3.537   1.706   4.500  0.5004 -0.2192 -0.4476
   44DOPE  H12X 5656   3.441   1.652   4.484  0.6519 -0.4896 -0.4560
   44DOPE  H12Y 5657   3.526   1.816   4.490 -1.2491 -0.1781  1.3743
   44DOPE  C313 5658   3.562   1.664   4.643  0.2879 -0.5490  0.6831
   44DOPE  H13X 5659   3.470   1.679   4.703 -0.5337 -1.9193 -0.1977
   44DOPE  H13Y 5660   3.579   1.555   4.650  1.0977 -0.5747 -1.3012
   44DOPE  C314 5661   3.677   1.734   4.719  0.2310 -0.6509  0.2297
   44DOPE  H14X 5662   3.643   1.837   4.745  0.0636 -0.6814  0.1298
   44DOPE  H14Y 5663   3.768   1.751   4.657  0.2325  3.8808  1.1529
   44DOPE  C315 5664   3.716   1.667   4.844 -0.0854  0.7587  0.1879
   44DOPE  H15X 5665   3.827   1.672   4.857 -0.0991  0.0296  0.7036
   44DOPE  H15Y 5666   3.688   1.560   4.830  0.6636  0.5485  0.2115
   44DOPE  C316 5667   3.644   1.726   4.961 -0.0512  0.0393 -0.8446
   44DOPE  H16X 5668   3.534   1.728   4.946 -0.1189  0.4745 -0.2934
   44DOPE  H16Y 5669   3.691   1.827   4.970  1.3045 -0.6499  0.1259
   44DOPE  C317 5670   3.653   1.658   5.096  0.0895  0.2631 -0.2549
   44DOPE  H17X 5671   3.621   1.553   5.078 -1.8006  0.5080  1.3944
   44DOPE  H17Y 5672   3.760   1.658   5.126  0.6451  1.4658 -2.0491
   44DOPE  C318 5673   3.560   1.713   5.203 -0.4442  0.9053 -0.4110
   44DOPE  H18X 5674   3.584   1.819   5.226 -0.1553  0.4826  1.4405
   44DOPE  H18Y 5675   3.455   1.715   5.168 -0.7675  0.8632  0.5215
   44DOPE  H18Z 5676   3.564   1.649   5.294 -0.6192 -0.2855 -1.2078
   45DOPE     N 5677   3.677   0.454   3.177 -0.1520 -0.2007  0.1569
   45DOPE   HN1 5678   3.597   0.390   3.192  0.8150 -1.2403  1.0852
   45DOPE   HN2 5679   3.764   0.425   3.227  2.0086  1.4051 -2.4146
   45DOPE   HN3 5680   3.642   0.538   3.228 -1.1672  0.1735 -1.1172
   45DOPE   C12 5681   3.715   0.493   3.037  0.6608  0.1769 -0.3103
   45DOPE  H12A 5682   3.667   0.589   3.007 -1.7244 -0.8654 -0.0391
   45DOPE  H12B 5683   3.682   0.409   2.973 -1.3357 -0.0603  0.9445
   45DOPE   C11 5684   3.866   0.535   3.021  0.5584 -0.2174 -0.3586
   45DOPE  H11A 5685   3.884   0.555   2.913  2.0183  0.3853 -0.0262
   45DOPE  H11B 5686   3.930   0.449   3.051 -0.3848 -1.4629 -1.7232
   45DOPE     P 5687   4.043   0.704   3.096  0.1271 -0.5431  0.4247
   45DOPE   O13 5688   4.041   0.833   3.018  0.2973  0.2053 -0.3343
   45DOPE   O14 5689   4.143   0.601   3.052 -0.1674 -0.0831 -0.0087
   45DOPE   O11 5690   4.071   0.731   3.246 -0.0287 -0.3949  0.0186
   45DOPE   O12 5691   3.892   0.652   3.098  0.2267  0.0931  0.4100
   45DOPE    C1 5692   4.003   0.817   3.335  0.2625 -0.2438  0.8159
   45DOPE    HA 5693   3.894   0.818   3.314  0.6737 -2.5567 -1.9134
   45DOPE    HB 5694   4.053   0.916   3.330 -1.5057  0.7451  1.5905
   45DOPE    C2 5695   4.016   0.761   3.478  0.2963 -0.8346 -0.0851
   45DOPE    HS 5696   3.944   0.813   3.544  0.8466 -0.5411  0.2966
   45DOPE   O21 5697   4.158   0.791   3.525  0.3763 -0.0573  0.2245
   45DOPE   C21 5698   4.170   0.915   3.570  0.1532  0.2879 -0.2334
   45DOPE   O22 5699   4.083   0.996   3.567  0.4629 -0.0705  0.3110
   45DOPE   C22 5700   4.322   0.938   3.598  1.0265  0.6880  0.1009
   45DOPE   H2R 5701   4.342   1.019   3.525  1.1868  0.4555 -0.1130
   45DOPE   H2S 5702   4.376   0.843   3.578  2.7040  1.2821  1.4663
   45DOPE    C3 5703   3.979   0.610   3.501  0.1748 -0.3373  0.0356
   45DOPE    HX 5704   4.066   0.559   3.454  1.0774  2.9698 -2.2539
   45DOPE    HY 5705   3.888   0.581   3.445  0.8860 -0.7472 -0.9337
   45DOPE   O31 5706   3.974   0.580   3.637 -0.2196 -0.5626  0.1206
   45DOPE   C31 5707   3.849   0.572   3.692  0.5664  0.4356  0.6127
   45DOPE   O32 5708   3.745   0.591   3.627  0.1021  0.5143  0.2920
   45DOPE   C32 5709   3.858   0.550   3.843  0.6828  0.0068  0.2087
   45DOPE   H2X 5710   3.752   0.545   3.873  0.0478  2.0447 -1.4038
   45DOPE   H2Y 5711   3.919   0.458   3.856  2.1042  0.8058 -0.4891
   45DOPE   C23 5712   4.359   0.997   3.743  1.0762 -1.1774  0.5080
   45DOPE   H3R 5713   4.469   0.999   3.756  1.4651 -0.2363 -2.1904
   45DOPE   H3S 5714   4.315   0.938   3.826 -1.1372  0.3961  0.5572
   45DOPE   C24 5715   4.305   1.142   3.768  0.2660 -0.5358  0.0906
   45DOPE   H4R 5716   4.196   1.151   3.748  0.2018  1.0860  0.9682
   45DOPE   H4S 5717   4.351   1.221   3.703  0.5657  0.3562  1.3525
   45DOPE   C25 5718   4.351   1.184   3.906  0.2258 -0.9519  0.4585
   45DOPE   H5R 5719   4.462   1.192   3.900  0.0360  2.1580 -0.4091
   45DOPE   H5S 5720   4.317   1.111   3.982 -0.1651 -1.0997  0.1438
   45DOPE   C26 5721   4.294   1.323   3.940  0.2779 -0.2941  0.5535
   45DOPE   H6R 5722   4.184   1.319   3.925  0.6493 -0.6498 -3.2505
   45DOPE   H6S 5723   4.344   1.394   3.870  0.5618  0.6491  1.6919
   45DOPE   C27 5724   4.337   1.368   4.081 -0.2378  1.2243 -0.4231
   45DOPE   H7R 5725   4.262   1.439   4.121 -0.9250  0.2796  0.0147
   45DOPE   H7S 5726   4.443   1.401   4.078  0.7688 -1.6988 -0.6541
   45DOPE   C28 5727   4.334   1.251   4.190 -0.2514 -0.1149  0.0928
   45DOPE   H8R 5728   4.376   1.293   4.285 -1.0273  4.1892 -1.2532
   45DOPE   H8S 5729   4.403   1.171   4.156  1.0280  0.8564  0.3023
   45DOPE   C29 5730   4.198   1.186   4.204 -0.3100 -0.2327 -0.4564
   45DOPE   H9R 5731   4.158   1.142   4.112 -3.9060  2.0531 -0.2052
   45DOPE  C210 5732   4.105   1.191   4.302  0.0315 -0.1122  0.0542
   45DOPE  H10R 5733   4.008   1.140   4.294 -0.7072  0.6189  3.1350
   45DOPE  C211 5734   4.136   1.268   4.428  0.2456  0.6051  0.8803
   45DOPE  H11R 5735   4.244   1.272   4.454  0.9996 -0.2607 -1.8496
   45DOPE  H11S 5736   4.093   1.200   4.505 -0.6609 -1.0923 -1.0143
   45DOPE  C212 5737   4.052   1.381   4.455  0.1143  0.0868  0.4572
   45DOPE  H12R 5738   3.944   1.365   4.433 -0.6668  2.8613  1.7525
   45DOPE  H12S 5739   4.064   1.465   4.383  2.7523  0.3174  1.0743
   45DOPE  C213 5740   4.069   1.436   4.597 -0.0690 -0.2546  0.1403
   45DOPE  H13R 5741   4.021   1.536   4.599 -0.3058 -0.3818  0.9036
   45DOPE  H13S 5742   4.177   1.446   4.622 -0.3232  0.0523  1.1373
   45DOPE  C214 5743   3.999   1.360   4.710  0.4748 -0.0786 -0.3525
   45DOPE  H14R 5744   4.024   1.252   4.699 -0.4153 -0.1335 -2.1670
   45DOPE  H14S 5745   3.889   1.371   4.701  0.5466  0.9383 -0.0816
   45DOPE  C215 5746   4.044   1.416   4.850  0.4695  0.1475  1.5790
   45DOPE  H15R 5747   3.990   1.513   4.859 -1.9489 -0.8463 -0.7908
   45DOPE  H15S 5748   4.155   1.420   4.848  0.5495 -1.4113  1.2589
   45DOPE  C216 5749   4.012   1.319   4.964  1.2393 -0.0588  0.0303
   45DOPE  H16R 5750   4.065   1.226   4.935  1.5186  0.1911 -0.2656
   45DOPE  H16S 5751   3.904   1.291   4.970  1.3886 -1.0138 -1.2006
   45DOPE  C217 5752   4.060   1.373   5.095  0.4731 -1.0431 -0.2398
   45DOPE  H17R 5753   4.003   1.467   5.110  0.3187 -1.2094  0.2540
   45DOPE  H17S 5754   4.166   1.406   5.081 -0.7056  3.3434 -0.2405
   45DOPE  C218 5755   4.048   1.281   5.219 -0.4127  0.8051 -0.4586
   45DOPE  H18R 5756   3.947   1.239   5.233  0.7123 -2.1400 -0.5394
   45DOPE  H18S 5757   4.083   1.326   5.314 -0.4590 -0.9220  0.4122
   45DOPE  H18T 5758   4.112   1.193   5.198 -0.6130  0.8751 -1.4005
   45DOPE   C33 5759   3.933   0.652   3.929  0.4001  0.1003  0.0827
   45DOPE   H3X 5760   3.894   0.753   3.904 -0.9996 -0.7839 -1.5670
   45DOPE   H3Y 5761   4.040   0.656   3.898  0.9543 -0.2172  1.8895
   45DOPE   C34 5762   3.915   0.634   4.083  0.0874  0.1189 -0.0371
   45DOPE   H4X 5763   3.807   0.618   4.106  0.5592 -0.5985  1.7930
   45DOPE   H4Y 5764   3.970   0.542   4.114  0.5016 -0.1475 -1.4562
   45DOPE   C35 5765   3.976   0.747   4.163  0.2057  0.0838  0.1797
   45DOPE   H5X 5766   3.926   0.847   4.164  0.7364  0.3557  2.1179
   45DOPE   H5Y 5767   4.082   0.768   4.138  0.6459 -0.5829  1.4295
   45DOPE   C36 5768   3.971   0.710   4.313 -0.3330  0.0609  0.0993
   45DOPE   H6X 5769   4.044   0.628   4.327  2.4542  2.1716 -1.1625
   45DOPE   H6Y 5770   3.870   0.670   4.339 -0.0696 -0.3026  0.5852
   45DOPE   C37 5771   4.002   0.822   4.415 -0.1491 -0.4531  0.1332
   45DOPE   H7X 5772   3.939   0.906   4.378  0.0545 -0.3603 -0.0025
   45DOPE   H7Y 5773   3.963   0.791   4.514 -0.6556 -2.5917 -0.6916
   45DOPE   C38 5774   4.149   0.871   4.436 -0.0787 -0.5648 -0.3071
   45DOPE   H8X 5775   4.169   0.975   4.468  2.9703 -1.0516 -0.2926
   45DOPE   H8Y 5776   4.192   0.865   4.334  2.5673 -0.6612  0.7387
   45DOPE   C39 5777   4.221   0.781   4.533  0.7023  0.4104 -0.0791
   45DOPE   H9X 5778   4.274   0.701   4.480 -0.2050  0.3034 -0.8666
   45DOPE  C310 5779   4.248   0.815   4.663 -0.5303 -0.1174 -0.3545
   45DOPE  H10X 5780   4.315   0.751   4.723 -0.2558  0.4185 -0.0847
   45DOPE  C311 5781   4.194   0.932   4.739 -0.0366  0.6070 -0.7370
   45DOPE  H11X 5782   4.123   0.991   4.677 -0.8181  0.4321 -0.0249
   45DOPE  H11Y 5783   4.143   0.901   4.833  0.8645  0.7898 -0.1714
   45DOPE  C312 5784   4.300   1.028   4.791  0.7723  0.0256  0.0685
   45DOPE  H12X 5785   4.376   0.982   4.858  3.0052  2.7578 -0.4001
   45DOPE  H12Y 5786   4.251   1.097   4.863  0.6434 -0.6698  0.6637
   45DOPE  C313 5787   4.370   1.109   4.683 -0.8200 -1.1728  1.0368
   45DOPE  H13X 5788   4.452   1.052   4.633 -0.4631 -0.7929  1.1774
   45DOPE  H13Y 5789   4.293   1.141   4.610 -0.7620  0.2700  1.5668
   45DOPE  C314 5790   4.439   1.235   4.745 -0.0102 -0.4013 -0.1016
   45DOPE  H14X 5791   4.535   1.218   4.799  0.0192  0.8143  0.2566
   45DOPE  H14Y 5792   4.362   1.280   4.811 -0.6325  0.4379 -1.3638
   45DOPE  C315 5793   4.472   1.330   4.634 -0.4221 -0.0248  0.3609
   45DOPE  H15X 5794   4.494   1.429   4.680 -0.6078 -0.2990  1.0545
   45DOPE  H15Y 5795   4.393   1.361   4.562  2.0581  0.8515 -2.1164
   45DOPE  C316 5796   4.580   1.274   4.539  0.3796 -0.1164 -0.7555
   45DOPE  H16X 5797   4.539   1.192   4.477 -0.6650 -0.4010  0.2669
   45DOPE  H16Y 5798   4.675   1.242   4.589  1.4217  1.3507 -1.7229
   45DOPE  C317 5799   4.628   1.378   4.432 -0.0063 -0.2278  0.6666
   45DOPE  H17X 5800   4.546   1.417   4.368  1.5145  1.5502 -0.3121
   45DOPE  H17Y 5801   4.666   1.470   4.482  0.3024  1.3143 -2.1645
   45DOPE  C318 5802   4.740   1.318   4.349  0.0235 -0.0618 -0.2530
   45DOPE  H18X 5803   4.805   1.255   4.413 -0.1475  0.5101  0.4996
   45DOPE  H18Y 5804   4.695   1.262   4.264  0.5175  0.3802 -0.8140
   45DOPE  H18Z 5805   4.795   1.405   4.307 -1.9243  0.6465 -1.5367
   46DOPE     N 5806   4.237   7.311   2.833 -0.2738 -0.1185  0.3533
   46DOPE   HN1 5807   4.149   7.367   2.830  1.1472  2.2250 -1.2499
   46DOPE   HN2 5808   4.295   7.325   2.748 -1.3446 -3.3993 -1.1065
   46DOPE   HN3 5809   4.213   7.210   2.834 -0.1949 -0.1704  2.9985
   46DOPE   C12 5810   4.324   7.338   2.953  0.0511 -0.1663 -0.3879
   46DOPE  H12A 5811   4.248   7.352   3.033  0.9095  0.6514  0.3020
   46DOPE  H12B 5812   4.394   7.422   2.934 -2.2243  1.6579 -1.1745
   46DOPE   C11 5813   4.401   7.204   2.982 -0.1547  0.2714  0.6826
   46DOPE  H11A 5814   4.458   7.228   3.074 -2.4651  1.2510  1.9357
   46DOPE  H11B 5815   4.471   7.194   2.896 -0.6328 -1.4702  0.4474
   46DOPE     P 5816   4.327   6.952   3.040  0.3191 -0.2166  0.0997
   46DOPE   O13 5817   4.472   6.911   3.035  0.0078  0.2010  0.4272
   46DOPE   O14 5818   4.237   6.859   2.967  0.1649  0.3993 -0.0808
   46DOPE   O11 5819   4.293   6.950   3.194 -0.2267 -0.3294 -0.4271
   46DOPE   O12 5820   4.297   7.101   3.001 -0.4455  0.7315  0.5000
   46DOPE    C1 5821   4.163   7.003   3.232  0.1433  0.2244  0.3183
   46DOPE    HA 5822   4.099   7.047   3.152 -0.2581 -2.0099 -0.6665
   46DOPE    HB 5823   4.180   7.086   3.304  0.0746  1.0623 -0.6059
   46DOPE    C2 5824   4.076   6.893   3.295  0.2912  0.2465  0.1139
   46DOPE    HS 5825   3.980   6.938   3.328  0.4228 -0.3852  1.4474
   46DOPE   O21 5826   4.145   6.833   3.404  0.1507 -0.6463 -0.1666
   46DOPE   C21 5827   4.157   6.916   3.512  0.0292 -0.4444  0.0590
   46DOPE   O22 5828   4.104   7.024   3.522  0.2863 -0.2123  0.1553
   46DOPE   C22 5829   4.240   6.851   3.626 -0.0158 -0.0508  0.2595
   46DOPE   H2R 5830   4.345   6.831   3.594 -0.7497 -2.0532 -1.0906
   46DOPE   H2S 5831   4.198   6.749   3.641 -0.0302 -0.3565 -1.5869
   46DOPE    C3 5832   4.036   6.787   3.189 -0.1756 -0.0071  0.3379
   46DOPE    HX 5833   4.129   6.737   3.155 -1.1384 -1.1747 -0.6692
   46DOPE    HY 5834   3.987   6.856   3.117  0.9477 -0.3490 -0.7966
   46DOPE   O31 5835   3.941   6.692   3.238  0.3023  0.1617 -0.3880
   46DOPE   C31 5836   3.926   6.571   3.175 -0.6939  0.0718  0.6502
   46DOPE   O32 5837   3.985   6.547   3.069  0.1808  0.4209 -0.4664
   46DOPE   C32 5838   3.844   6.482   3.259  0.2354  1.0657 -1.2955
   46DOPE   H2X 5839   3.773   6.540   3.322  0.4342  0.6873 -0.7209
   46DOPE   H2Y 5840   3.792   6.415   3.187  0.8301 -2.0031  0.9478
   46DOPE   C23 5841   4.234   6.936   3.751 -0.2971  0.6564 -0.0416
   46DOPE   H3R 5842   4.132   6.942   3.796 -0.8959 -0.5424 -1.1613
   46DOPE   H3S 5843   4.267   7.040   3.733 -0.0186  0.5192 -0.3412
   46DOPE   C24 5844   4.318   6.875   3.870 -0.6262 -0.9538  0.0826
   46DOPE   H4R 5845   4.425   6.864   3.843 -0.1929  1.7610  0.3220
   46DOPE   H4S 5846   4.280   6.782   3.917  1.7250 -2.5802 -1.0939
   46DOPE   C25 5847   4.307   6.982   3.981  0.3921 -0.2671  0.2979
   46DOPE   H5R 5848   4.203   6.990   4.019  0.6726 -2.1327  1.5868
   46DOPE   H5S 5849   4.326   7.085   3.946 -2.2271 -0.1749 -1.1244
   46DOPE   C26 5850   4.393   6.950   4.098  0.3592  0.4046 -0.4132
   46DOPE   H6R 5851   4.499   6.959   4.063  0.5665  0.1577  0.1494
   46DOPE   H6S 5852   4.392   6.842   4.121  0.4001 -0.0002 -2.1309
   46DOPE   C27 5853   4.376   7.028   4.225  0.6254  0.4952  0.2187
   46DOPE   H7R 5854   4.269   7.048   4.248 -0.3502 -3.2875 -0.4835
   46DOPE   H7S 5855   4.420   7.127   4.198  0.2070  0.4031 -0.8141
   46DOPE   C28 5856   4.443   6.974   4.349  0.0431  0.2569 -0.2758
   46DOPE   H8R 5857   4.486   7.054   4.413 -2.2735 -0.8751  3.0087
   46DOPE   H8S 5858   4.530   6.920   4.307 -0.1181  0.9227 -1.5148
   46DOPE   C29 5859   4.367   6.874   4.426  0.2521  0.2272 -0.3022
   46DOPE   H9R 5860   4.360   6.774   4.381  1.5123  0.6078 -1.4060
   46DOPE  C210 5861   4.296   6.896   4.538 -0.4744  0.6845 -0.3890
   46DOPE  H10R 5862   4.246   6.810   4.585 -0.4312  1.5251  1.2568
   46DOPE  C211 5863   4.287   7.018   4.615  0.0287  0.2743  0.2687
   46DOPE  H11R 5864   4.356   7.098   4.581 -0.4908 -0.4189 -2.6042
   46DOPE  H11S 5865   4.327   7.007   4.718  2.9686  1.7679 -0.6021
   46DOPE  C212 5866   4.144   7.063   4.605  0.5165 -0.3579 -0.0923
   46DOPE  H12R 5867   4.072   6.980   4.616 -0.7786  0.7339 -0.1698
   46DOPE  H12S 5868   4.122   7.111   4.507 -1.5917  1.2730  1.1240
   46DOPE  C213 5869   4.079   7.161   4.715 -0.2207 -0.5017  0.0376
   46DOPE  H13R 5870   4.005   7.227   4.664  0.9350  3.4711  3.0309
   46DOPE  H13S 5871   4.159   7.229   4.749 -0.9907 -0.6661  2.3381
   46DOPE  C214 5872   4.004   7.099   4.830  0.1398 -0.1597 -0.0904
   46DOPE  H14R 5873   3.933   7.031   4.776  0.9752 -0.5856 -0.6789
   46DOPE  H14S 5874   3.938   7.170   4.884  1.2645  1.8764 -1.2697
   46DOPE  C215 5875   4.085   7.011   4.927  0.3676  0.2672 -0.1205
   46DOPE  H15R 5876   4.132   6.940   4.855 -1.7607  0.0099 -1.3572
   46DOPE  H15S 5877   4.019   6.945   4.987  0.0901  1.9978  1.5858
   46DOPE  C216 5878   4.169   7.103   5.011 -0.0846  0.2020  0.1369
   46DOPE  H16R 5879   4.122   7.195   5.050  0.7734 -0.0317  1.8067
   46DOPE  H16S 5880   4.256   7.143   4.953 -1.8767  1.7891 -1.6151
   46DOPE  C217 5881   4.226   7.025   5.130 -0.7638 -0.1405  0.2980
   46DOPE  H17R 5882   4.144   6.963   5.172 -1.4370 -0.2553 -1.1222
   46DOPE  H17S 5883   4.261   7.093   5.211  2.2714  0.4175 -1.3268
   46DOPE  C218 5884   4.335   6.932   5.088 -0.5181  0.3224  0.1104
   46DOPE  H18R 5885   4.304   6.874   4.998 -2.3449  1.0571  0.2249
   46DOPE  H18S 5886   4.363   6.872   5.177  0.5772  2.4470  1.2640
   46DOPE  H18T 5887   4.425   6.986   5.051 -0.3940  1.0710  1.4692
   46DOPE   C33 5888   3.940   6.386   3.341  0.0322 -0.5603 -0.2070
   46DOPE   H3X 5889   4.032   6.367   3.282 -0.7958 -0.7496 -1.4750
   46DOPE   H3Y 5890   3.888   6.288   3.350 -0.6657 -0.0034  2.8135
   46DOPE   C34 5891   3.970   6.438   3.480 -0.5944  0.4583 -0.2031
   46DOPE   H4X 5892   4.021   6.536   3.467 -0.4700  0.6912  1.6822
   46DOPE   H4Y 5893   3.884   6.453   3.549 -0.8015 -0.8020 -0.1675
   46DOPE   C35 5894   4.084   6.347   3.543  0.3920 -0.2528 -0.2128
   46DOPE   H5X 5895   4.186   6.369   3.503  2.4649 -2.4976  3.2541
   46DOPE   H5Y 5896   4.055   6.243   3.518 -1.6366 -0.3437  2.1557
   46DOPE   C36 5897   4.078   6.351   3.694  0.1612  0.4212 -0.3603
   46DOPE   H6X 5898   4.135   6.266   3.736  0.7135  1.1525  0.4019
   46DOPE   H6Y 5899   3.972   6.350   3.727  0.3251  0.0088  0.1720
   46DOPE   C37 5900   4.140   6.476   3.754  0.3570  0.2674  0.4483
   46DOPE   H7X 5901   4.241   6.489   3.712  0.7367 -2.2354  0.4603
   46DOPE   H7Y 5902   4.075   6.557   3.713  0.0744  0.4114  1.1596
   46DOPE   C38 5903   4.147   6.481   3.907  0.1618  0.6355 -0.4735
   46DOPE   H8X 5904   4.041   6.489   3.940 -0.3673  0.3115 -2.0175
   46DOPE   H8Y 5905   4.196   6.576   3.935 -1.6387  1.2423  0.8168
   46DOPE   C39 5906   4.211   6.364   3.977 -0.9546 -0.0203 -0.3281
   46DOPE   H9X 5907   4.295   6.319   3.923  0.6777  1.5502  0.7763
   46DOPE  C310 5908   4.176   6.309   4.095  0.2024 -0.2785 -0.5584
   46DOPE  H10X 5909   4.237   6.226   4.134  0.6851 -0.0878 -0.8912
   46DOPE  C311 5910   4.059   6.351   4.180 -0.2367 -0.8655  0.0774
   46DOPE  H11X 5911   4.096   6.377   4.281 -0.5437  0.6500 -0.1767
   46DOPE  H11Y 5912   4.018   6.446   4.140 -0.5322 -0.3880  1.4519
   46DOPE  C312 5913   3.947   6.236   4.191 -0.3994  0.0291  0.2548
   46DOPE  H12X 5914   3.931   6.197   4.089 -0.6205 -1.9177  0.9880
   46DOPE  H12Y 5915   3.846   6.273   4.218 -1.6930 -0.8240 -2.9368
   46DOPE  C313 5916   3.984   6.116   4.279  0.3101  0.0149 -0.0347
   46DOPE  H13X 5917   4.087   6.080   4.257  0.6610  0.7244  0.3915
   46DOPE  H13Y 5918   3.988   6.161   4.381 -1.4021 -0.4779  0.2897
   46DOPE  C314 5919   3.881   6.007   4.277 -0.1930  0.4197  0.6723
   46DOPE  H14X 5920   3.930   5.928   4.339  0.8795  1.2942  0.9721
   46DOPE  H14Y 5921   3.871   5.980   4.170 -2.6777 -0.6876  1.1108
   46DOPE  C315 5922   3.744   6.033   4.341  0.0754  0.4279  0.7432
   46DOPE  H15X 5923   3.703   6.114   4.277  2.1723  1.9144  1.1637
   46DOPE  H15Y 5924   3.767   6.085   4.436  2.6397 -0.1583  0.5393
   46DOPE  C316 5925   3.648   5.913   4.344  0.6072  0.3181 -0.0820
   46DOPE  H16X 5926   3.623   5.877   4.242  0.1128 -0.0852  0.1749
   46DOPE  H16Y 5927   3.549   5.942   4.386 -0.9720 -3.0285 -1.1518
   46DOPE  C317 5928   3.709   5.797   4.428 -0.0505  0.4242  0.2914
   46DOPE  H17X 5929   3.772   5.852   4.502 -2.1541  1.4899  1.3857
   46DOPE  H17Y 5930   3.627   5.741   4.477 -0.1231  1.0729  0.9390
   46DOPE  C318 5931   3.788   5.689   4.347 -0.7063  0.5558 -0.6574
   46DOPE  H18X 5932   3.872   5.741   4.296  0.7653 -1.1450 -0.0786
   46DOPE  H18Y 5933   3.826   5.614   4.419  2.6311 -1.3610 -4.0295
   46DOPE  H18Z 5934   3.715   5.644   4.277 -0.0534  0.9515 -1.6191
   47DOPE     N 5935   1.594   5.918   2.826 -0.1410  0.0273 -0.1418
   47DOPE   HN1 5936   1.632   5.839   2.770  1.6701  0.6220  0.1817
   47DOPE   HN2 5937   1.525   5.884   2.895  2.6633  0.5236  3.1381
   47DOPE   HN3 5938   1.543   5.978   2.758  1.0595  0.7721 -0.4123
   47DOPE   C12 5939   1.695   5.983   2.916 -0.5794 -0.0763 -0.4137
   47DOPE  H12A 5940   1.634   6.064   2.963 -2.4743 -1.4474 -0.3824
   47DOPE  H12B 5941   1.772   6.042   2.863  0.6997  0.1717  1.6279
   47DOPE   C11 5942   1.747   5.882   3.015 -0.3002  0.9242  0.1520
   47DOPE  H11A 5943   1.817   5.927   3.090 -0.7849 -0.3920  1.4561
   47DOPE  H11B 5944   1.803   5.810   2.951 -2.0149  2.9697 -4.0088
   47DOPE     P 5945   1.621   5.806   3.235 -0.2214  0.1369  0.1182
   47DOPE   O13 5946   1.588   5.671   3.280 -0.3270  0.1745  0.1635
   47DOPE   O14 5947   1.525   5.910   3.263  0.5829  0.3489  0.2999
   47DOPE   O11 5948   1.762   5.848   3.292  0.1529  0.6864 -0.4132
   47DOPE   O12 5949   1.642   5.807   3.077 -0.5011 -0.5082 -0.1117
   47DOPE    C1 5950   1.779   5.956   3.390  0.1613 -0.1600  0.1537
   47DOPE    HA 5951   1.709   6.040   3.369  0.6273  0.2426  0.1976
   47DOPE    HB 5952   1.881   6.000   3.381  0.3087 -0.3541  0.7721
   47DOPE    C2 5953   1.775   5.908   3.541 -0.2966  0.7536 -0.8594
   47DOPE    HS 5954   1.796   5.992   3.611 -0.3054  0.7661 -0.8715
   47DOPE   O21 5955   1.866   5.798   3.561 -0.3842 -0.3866  0.5606
   47DOPE   C21 5956   1.998   5.828   3.566  0.6030 -0.4318  0.3020
   47DOPE   O22 5957   2.034   5.943   3.564 -0.4668 -0.2545 -0.3646
   47DOPE   C22 5958   2.086   5.710   3.576 -0.0934 -0.6744 -0.4438
   47DOPE   H2R 5959   2.038   5.628   3.520 -1.9701  0.8922 -1.2576
   47DOPE   H2S 5960   2.085   5.679   3.683 -0.4209  0.8928  0.0359
   47DOPE    C3 5961   1.631   5.860   3.590 -0.1950  0.2849 -0.1835
   47DOPE    HX 5962   1.588   5.769   3.544  1.2508  0.1497 -1.3514
   47DOPE    HY 5963   1.565   5.942   3.556 -1.8830 -0.3923  1.2981
   47DOPE   O31 5964   1.631   5.861   3.735  0.3680  0.0354 -0.4768
   47DOPE   C31 5965   1.648   5.745   3.789  0.5107 -0.5310  0.6934
   47DOPE   O32 5966   1.626   5.637   3.738 -0.3242 -0.0833  0.0201
   47DOPE   C32 5967   1.673   5.751   3.943  0.0102 -0.4577 -0.0475
   47DOPE   H2X 5968   1.767   5.698   3.967  0.4271  0.2801 -0.0133
   47DOPE   H2Y 5969   1.704   5.853   3.973 -3.5426  0.8348 -0.2122
   47DOPE   C23 5970   2.230   5.737   3.522 -0.0499 -0.0235  0.4885
   47DOPE   H3R 5971   2.273   5.826   3.573  0.5675  0.0410 -0.1333
   47DOPE   H3S 5972   2.220   5.764   3.415 -0.3899 -0.2682  0.4589
   47DOPE   C24 5973   2.323   5.625   3.550 -0.3462  0.1210  0.0213
   47DOPE   H4R 5974   2.299   5.543   3.480  1.1179 -0.7636  0.5058
   47DOPE   H4S 5975   2.305   5.585   3.652  0.6577 -1.4418 -0.3737
   47DOPE   C25 5976   2.463   5.662   3.534 -0.1975  0.2038  0.2061
   47DOPE   H5R 5977   2.488   5.753   3.593 -0.1995  0.4297 -0.1405
   47DOPE   H5S 5978   2.479   5.691   3.428  0.8022  0.9015  0.5360
   47DOPE   C26 5979   2.550   5.545   3.568 -0.2112  0.2521  0.2398
   47DOPE   H6R 5980   2.535   5.463   3.495 -0.1640 -0.4971  1.0583
   47DOPE   H6S 5981   2.520   5.517   3.672 -2.5225  1.2368 -0.0966
   47DOPE   C27 5982   2.695   5.583   3.566  0.0138  1.0661  0.7643
   47DOPE   H7R 5983   2.701   5.681   3.617  1.6122  1.2517  0.2537
   47DOPE   H7S 5984   2.734   5.594   3.463 -2.6235  0.0827 -0.4367
   47DOPE   C28 5985   2.784   5.478   3.639  1.3179 -0.2011  0.0749
   47DOPE   H8R 5986   2.772   5.376   3.596  0.0957 -1.0714  2.3140
   47DOPE   H8S 5987   2.746   5.460   3.742  0.5066 -2.8705 -0.5917
   47DOPE   C29 5988   2.925   5.525   3.623  0.2933 -0.2885 -0.3233
   47DOPE   H9R 5989   2.974   5.514   3.525  1.2940 -1.5074  0.2775
   47DOPE  C210 5990   2.999   5.571   3.731 -0.4873  1.0664 -0.2473
   47DOPE  H10R 5991   3.102   5.602   3.707  1.2615 -1.6812  2.9382
   47DOPE  C211 5992   2.973   5.585   3.880  0.5671  0.5936 -0.5794
   47DOPE  H11R 5993   2.877   5.638   3.896  0.8322  0.5971  1.1276
   47DOPE  H11S 5994   3.059   5.632   3.933  0.4008 -1.5356  1.6967
   47DOPE  C212 5995   2.977   5.444   3.945  0.1938  0.0519  0.8841
   47DOPE  H12R 5996   2.906   5.386   3.883  2.5742 -0.0657 -1.9292
   47DOPE  H12S 5997   2.944   5.462   4.050  0.3958 -1.0905  1.1620
   47DOPE  C213 5998   3.116   5.372   3.943  0.6993 -0.1542  0.3473
   47DOPE  H13R 5999   3.192   5.437   3.992 -0.6797  0.0415  2.3075
   47DOPE  H13S 6000   3.149   5.364   3.837  0.8716 -0.7762  0.4428
   47DOPE  C214 6001   3.119   5.222   3.984 -0.1129  0.7345  0.4330
   47DOPE  H14R 6002   3.222   5.179   3.984  0.1978  1.2872 -2.4543
   47DOPE  H14S 6003   3.060   5.178   3.900  1.7918  1.5092 -1.4001
   47DOPE  C215 6004   3.040   5.173   4.106 -0.1205 -0.3017 -0.2392
   47DOPE  H15R 6005   2.936   5.211   4.091  0.3041  1.0022 -0.0805
   47DOPE  H15S 6006   3.084   5.215   4.199  0.7553 -0.7830 -0.4288
   47DOPE  C216 6007   3.036   5.019   4.121  0.1460  0.4063 -0.2393
   47DOPE  H16R 6008   3.125   4.972   4.074  0.5626 -1.3331  2.1154
   47DOPE  H16S 6009   2.941   4.981   4.079  0.1596 -2.1926  1.8548
   47DOPE  C217 6010   3.055   4.956   4.267 -0.1348  0.2649 -0.3410
   47DOPE  H17R 6011   2.969   4.889   4.288 -0.3642  0.7889  0.4066
   47DOPE  H17S 6012   3.052   5.038   4.342 -0.0888  0.6056 -0.7103
   47DOPE  C218 6013   3.182   4.865   4.273 -0.8834 -0.7327 -0.8644
   47DOPE  H18R 6014   3.212   4.855   4.380  0.1903  0.7699 -0.9928
   47DOPE  H18S 6015   3.275   4.913   4.238  0.8976 -0.5090  3.5101
   47DOPE  H18T 6016   3.176   4.763   4.228 -2.5228 -0.4372 -1.3755
   47DOPE   C33 6017   1.555   5.696   4.032 -0.2668 -0.0777  0.3074
   47DOPE   H3X 6018   1.509   5.606   3.984 -1.6507  0.0357  1.3398
   47DOPE   H3Y 6019   1.472   5.769   4.020 -1.5536 -1.6993 -1.1474
   47DOPE   C34 6020   1.581   5.671   4.182  0.0165 -0.5032 -0.1813
   47DOPE   H4X 6021   1.628   5.571   4.185  1.2043  0.0712  1.5321
   47DOPE   H4Y 6022   1.655   5.741   4.226  0.2911 -1.3432  0.7125
   47DOPE   C35 6023   1.447   5.667   4.262  0.9131  0.1048 -0.3726
   47DOPE   H5X 6024   1.366   5.616   4.205  1.0387 -0.8997  0.3172
   47DOPE   H5Y 6025   1.407   5.770   4.268  3.1293  1.0214 -0.5837
   47DOPE   C36 6026   1.456   5.603   4.398 -1.1610  0.6065  0.2076
   47DOPE   H6X 6027   1.475   5.495   4.381 -0.2338  1.2601 -3.8601
   47DOPE   H6Y 6028   1.359   5.619   4.450 -1.0196 -0.7465  0.9363
   47DOPE   C37 6029   1.573   5.659   4.477 -0.2237 -0.0984 -0.0437
   47DOPE   H7X 6030   1.660   5.644   4.409 -0.0346  2.5944 -0.5219
   47DOPE   H7Y 6031   1.561   5.769   4.490 -2.6148 -0.4335  1.2721
   47DOPE   C38 6032   1.609   5.590   4.612  0.1564 -0.1669  0.1898
   47DOPE   H8X 6033   1.648   5.491   4.579  0.1578 -0.3114  0.6122
   47DOPE   H8Y 6034   1.514   5.555   4.656  0.6326 -0.7490  0.7723
   47DOPE   C39 6035   1.700   5.676   4.691 -1.0807 -0.3802  0.4624
   47DOPE   H9X 6036   1.653   5.774   4.708 -1.7684 -0.6088 -0.0923
   47DOPE  C310 6037   1.825   5.652   4.729  0.4603 -0.2681 -1.0205
   47DOPE  H10X 6038   1.858   5.730   4.800 -3.3847 -0.0638  0.7520
   47DOPE  C311 6039   1.905   5.530   4.709 -0.3290  0.0965 -0.1777
   47DOPE  H11X 6040   1.911   5.489   4.605 -0.0672 -1.9050  0.5669
   47DOPE  H11Y 6041   2.010   5.559   4.730 -0.2167 -1.6896  2.1705
   47DOPE  C312 6042   1.876   5.410   4.800  0.0143  0.0120  0.2226
   47DOPE  H12X 6043   1.791   5.356   4.754  0.0109  0.8305 -0.7676
   47DOPE  H12Y 6044   1.862   5.433   4.908 -0.5865 -0.6205  0.2850
   47DOPE  C313 6045   1.990   5.302   4.804 -0.0996  0.4655  0.3379
   47DOPE  H13X 6046   2.043   5.305   4.706 -0.4248 -0.0738  0.1383
   47DOPE  H13Y 6047   2.060   5.324   4.888 -0.1674  0.8399  0.2974
   47DOPE  C314 6048   1.946   5.155   4.827  0.0975  0.1244  0.1408
   47DOPE  H14X 6049   2.038   5.098   4.801  0.1369  0.5140 -0.6226
   47DOPE  H14Y 6050   1.861   5.140   4.756 -1.4480  4.6891  0.7091
   47DOPE  C315 6051   1.901   5.122   4.971  0.5522 -0.1663  0.4005
   47DOPE  H15X 6052   1.851   5.025   4.956 -0.0155  0.3245 -1.0417
   47DOPE  H15Y 6053   1.831   5.198   5.012  1.1251  1.5123 -1.5554
   47DOPE  C316 6054   2.025   5.096   5.069 -0.3005 -0.5581  0.2816
   47DOPE  H16X 6055   2.083   5.189   5.087 -2.5778  0.3713  3.8698
   47DOPE  H16Y 6056   2.088   5.011   5.035 -0.3197 -1.2543  1.9042
   47DOPE  C317 6057   1.993   5.054   5.214 -0.2762  0.0900  0.4309
   47DOPE  H17X 6058   1.951   5.143   5.263  1.0193  0.7667  0.3602
   47DOPE  H17Y 6059   1.920   4.970   5.205  0.4352 -0.4404 -0.6149
   47DOPE  C318 6060   2.113   4.997   5.290  0.4709  0.3002  0.0736
   47DOPE  H18X 6061   2.200   5.063   5.270  0.3798  0.1219 -0.9773
   47DOPE  H18Y 6062   2.102   4.981   5.399  1.2949 -2.3028 -0.1570
   47DOPE  H18Z 6063   2.134   4.897   5.247 -1.1995 -0.7128  1.4468
   48DOPE     N 6064   7.474   0.729   3.280  0.4688  0.3282 -0.8680
   48DOPE   HN1 6065   7.389   0.670   3.270  0.4420  0.1587  0.1901
   48DOPE   HN2 6066   7.560   0.691   3.236  0.3529  0.0177 -0.8295
   48DOPE   HN3 6067   7.478   0.723   3.384 -2.0068  0.5939 -0.6957
   48DOPE   C12 6068   7.434   0.856   3.225 -0.6105 -0.3974  0.2196
   48DOPE  H12A 6069   7.343   0.885   3.283  0.8771 -1.3752  3.2557
   48DOPE  H12B 6070   7.400   0.839   3.120 -3.3217  0.0626  0.9297
   48DOPE   C11 6071   7.536   0.967   3.218  0.0011 -0.1358  0.0650
   48DOPE  H11A 6072   7.561   1.013   3.317  1.3556  0.6307 -0.6057
   48DOPE  H11B 6073   7.494   1.053   3.161  2.5611  2.1057  1.3137
   48DOPE     P 6074   7.783   0.984   3.149 -0.0855  0.0986 -0.0137
   48DOPE   O13 6075   7.745   1.124   3.110  0.1907  0.0004 -0.3687
   48DOPE   O14 6076   7.873   0.912   3.053 -0.5167  0.0267 -0.2178
   48DOPE   O11 6077   7.829   0.978   3.295 -0.5089  0.2650 -0.4995
   48DOPE   O12 6078   7.650   0.908   3.161  0.3626 -0.6155  0.1761
   48DOPE    C1 6079   7.898   0.864   3.340  0.8902  0.5182 -0.7788
   48DOPE    HA 6080   8.008   0.877   3.333  1.1601 -1.7564 -1.2468
   48DOPE    HB 6081   7.887   0.770   3.283  0.8542 -1.6210  2.4986
   48DOPE    C2 6082   7.873   0.835   3.487 -0.1719 -0.9385 -0.0732
   48DOPE    HS 6083   7.776   0.782   3.492 -0.3664 -0.4883  1.2419
   48DOPE   O21 6084   7.883   0.957   3.566  0.0124  0.0865  0.2584
   48DOPE   C21 6085   7.793   0.970   3.669 -0.1776  0.0623 -0.0257
   48DOPE   O22 6086   7.720   0.882   3.704 -0.0802 -0.0129  0.0788
   48DOPE   C22 6087   7.801   1.110   3.720  0.9864 -0.1832 -0.0577
   48DOPE   H2R 6088   7.771   1.182   3.640 -1.2497  0.8359  1.6123
   48DOPE   H2S 6089   7.904   1.132   3.754  0.9968  0.8192 -0.6920
   48DOPE    C3 6090   7.975   0.734   3.545 -0.6183  0.7875 -0.5186
   48DOPE    HX 6091   8.069   0.792   3.533 -0.6789  1.2557  0.9670
   48DOPE    HY 6092   7.978   0.642   3.482 -1.5253  0.1189  0.3724
   48DOPE   O31 6093   7.961   0.694   3.686  1.2211 -0.3332  0.2379
   48DOPE   C31 6094   7.861   0.609   3.698  0.2947 -0.4118  0.1480
   48DOPE   O32 6095   7.796   0.566   3.605 -0.2415 -0.0879  0.2470
   48DOPE   C32 6096   7.822   0.597   3.840  0.2002  0.4239 -0.3825
   48DOPE   H2X 6097   7.911   0.584   3.905 -0.2748  1.0264  0.3995
   48DOPE   H2Y 6098   7.778   0.694   3.871 -1.6322 -0.0661 -1.3017
   48DOPE   C23 6099   7.688   1.144   3.828  0.0653  0.1073  0.0435
   48DOPE   H3R 6100   7.684   1.059   3.899  0.3137 -0.5359 -0.6942
   48DOPE   H3S 6101   7.593   1.163   3.772  1.1595 -0.0810 -1.9661
   48DOPE   C24 6102   7.707   1.271   3.904 -0.4429 -0.4844 -0.3353
   48DOPE   H4R 6103   7.643   1.273   3.994  1.7887  0.8167  1.3293
   48DOPE   H4S 6104   7.679   1.362   3.846  1.4497  2.0154  2.3208
   48DOPE   C25 6105   7.847   1.286   3.973  0.2804  0.2845 -0.4837
   48DOPE   H5R 6106   7.935   1.291   3.905  1.7132  2.7249  1.4127
   48DOPE   H5S 6107   7.866   1.203   4.045 -0.0166 -0.5253 -1.3122
   48DOPE   C26 6108   7.853   1.425   4.051 -0.0920  0.2910 -0.6103
   48DOPE   H6R 6109   7.811   1.504   3.986  3.4230  0.6743 -2.5965
   48DOPE   H6S 6110   7.958   1.443   4.080 -0.6428 -0.4857  2.2527
   48DOPE   C27 6111   7.779   1.418   4.183  0.1153  0.6421 -0.1404
   48DOPE   H7R 6112   7.719   1.324   4.186  0.6880  0.2948  0.9582
   48DOPE   H7S 6113   7.710   1.505   4.182 -0.8472 -0.0436 -2.5875
   48DOPE   C28 6114   7.869   1.425   4.308  0.1470  0.1898  0.2337
   48DOPE   H8R 6115   7.804   1.450   4.395 -0.9874 -0.6784 -0.3509
   48DOPE   H8S 6116   7.941   1.508   4.289 -0.4458  0.9833  1.3207
   48DOPE   C29 6117   7.941   1.295   4.334  0.0429  0.4231 -0.0730
   48DOPE   H9R 6118   7.882   1.207   4.303  3.0146 -1.5498 -0.4684
   48DOPE  C210 6119   8.066   1.269   4.366 -0.1889 -0.0702  0.0794
   48DOPE  H10R 6120   8.111   1.170   4.351  3.8937  1.6439 -0.5796
   48DOPE  C211 6121   8.176   1.371   4.383 -0.0261  0.0902  0.3480
   48DOPE  H11R 6122   8.218   1.371   4.486  1.0329 -0.0544 -0.0726
   48DOPE  H11S 6123   8.134   1.473   4.371  3.1969  1.5317  0.3488
   48DOPE  C212 6124   8.291   1.346   4.283 -0.0004  0.2047 -0.1829
   48DOPE  H12R 6125   8.328   1.241   4.278  0.2073  0.1657  1.6167
   48DOPE  H12S 6126   8.384   1.402   4.307 -0.3021  0.2893  0.8097
   48DOPE  C213 6127   8.262   1.399   4.146  0.0580  0.5082  0.1805
   48DOPE  H13R 6128   8.236   1.507   4.146 -2.1435  0.0352  0.0770
   48DOPE  H13S 6129   8.169   1.358   4.100  0.5078  1.6552 -1.9038
   48DOPE  C214 6130   8.372   1.371   4.056 -0.0826 -0.2466  0.6980
   48DOPE  H14R 6131   8.397   1.263   4.052  1.2053  0.0732 -1.2387
   48DOPE  H14S 6132   8.466   1.420   4.087 -0.9372  1.2082  1.1094
   48DOPE  C215 6133   8.343   1.402   3.903 -0.1124  0.5086 -0.4987
   48DOPE  H15R 6134   8.269   1.333   3.856  0.3907 -0.2258 -0.2319
   48DOPE  H15S 6135   8.433   1.388   3.840 -0.4998 -2.1370 -0.5911
   48DOPE  C216 6136   8.315   1.558   3.883 -0.1913 -0.5743  0.5595
   48DOPE  H16R 6137   8.227   1.590   3.942 -1.7031 -2.0364 -0.8070
   48DOPE  H16S 6138   8.288   1.577   3.778 -1.1141  2.0071  1.2060
   48DOPE  C217 6139   8.430   1.648   3.916 -0.5762 -0.2912  0.0143
   48DOPE  H17R 6140   8.485   1.625   4.010  1.0801  0.0466 -0.8227
   48DOPE  H17S 6141   8.395   1.753   3.926  0.4135 -0.1460  2.8065
   48DOPE  C218 6142   8.544   1.647   3.809 -0.0941  0.4543 -0.4408
   48DOPE  H18R 6143   8.621   1.719   3.842  2.4872 -2.7519  1.1361
   48DOPE  H18S 6144   8.513   1.684   3.709  0.6013  0.3131 -0.7182
   48DOPE  H18T 6145   8.592   1.550   3.783  1.0318  1.3135 -1.6824
   48DOPE   C33 6146   7.724   0.482   3.863  0.1127  0.5039 -0.0454
   48DOPE   H3X 6147   7.760   0.388   3.816 -0.1902 -0.0281  0.7718
   48DOPE   H3Y 6148   7.624   0.490   3.816 -0.5087  1.5969  1.4057
   48DOPE   C34 6149   7.705   0.452   4.010 -0.1607  0.1493  0.0204
   48DOPE   H4X 6150   7.777   0.375   4.045 -0.9243 -0.2765  0.6876
   48DOPE   H4Y 6151   7.708   0.543   4.075 -1.2327  0.0923  0.1551
   48DOPE   C35 6152   7.578   0.385   4.060  0.4885  0.4582 -0.8207
   48DOPE   H5X 6153   7.574   0.286   4.009 -0.6588 -0.1553  0.4003
   48DOPE   H5Y 6154   7.492   0.447   4.028 -1.6188 -1.5416  0.6740
   48DOPE   C36 6155   7.578   0.379   4.212  0.0875  0.1026 -0.2074
   48DOPE   H6X 6156   7.590   0.483   4.249  0.9059 -0.2410  0.5100
   48DOPE   H6Y 6157   7.670   0.324   4.239  0.9028  1.3023 -0.4404
   48DOPE   C37 6158   7.451   0.309   4.264 -0.1742  0.1437  0.6943
   48DOPE   H7X 6159   7.352   0.340   4.226 -1.1969 -4.3666 -0.8977
   48DOPE   H7Y 6160   7.452   0.205   4.225 -2.8883  0.7696 -1.3372
   48DOPE   C38 6161   7.458   0.312   4.419  0.4790 -0.3704 -0.3126
   48DOPE   H8X 6162   7.540   0.259   4.471 -1.8767 -2.5838  1.4076
   48DOPE   H8Y 6163   7.378   0.240   4.449  0.3289 -0.9406 -1.9770
   48DOPE   C39 6164   7.415   0.443   4.480  0.1160  0.3943  0.2092
   48DOPE   H9X 6165   7.492   0.520   4.489  0.9598 -0.5408  1.2541
   48DOPE  C310 6166   7.298   0.465   4.539 -0.6396 -0.3149 -0.2540
   48DOPE  H10X 6167   7.282   0.568   4.574 -0.5706 -0.9887  1.9232
   48DOPE  C311 6168   7.171   0.385   4.529 -0.3699  0.4465  0.2517
   48DOPE  H11X 6169   7.159   0.354   4.423 -1.5926 -0.0392  0.5160
   48DOPE  H11Y 6170   7.172   0.294   4.593  0.3582 -0.6382 -1.2185
   48DOPE  C312 6171   7.050   0.470   4.572  0.0200 -0.5072  0.5265
   48DOPE  H12X 6172   6.964   0.415   4.529  0.0444 -1.3398  1.4976
   48DOPE  H12Y 6173   7.060   0.577   4.545  0.2372 -0.0147  2.4140
   48DOPE  C313 6174   7.037   0.462   4.724 -0.1427  0.1612  0.0381
   48DOPE  H13X 6175   7.033   0.354   4.747 -1.6387 -0.0089 -0.9068
   48DOPE  H13Y 6176   7.126   0.508   4.772  0.4088  0.9863 -1.6806
   48DOPE  C314 6177   6.909   0.520   4.784  0.5690 -0.0993 -1.0963
   48DOPE  H14X 6178   6.918   0.511   4.894 -1.9393 -0.0112 -0.8479
   48DOPE  H14Y 6179   6.817   0.471   4.746  0.4979 -0.2722 -0.6992
   48DOPE  C315 6180   6.896   0.678   4.750  0.1256 -0.0423  0.1756
   48DOPE  H15X 6181   6.799   0.709   4.794  0.0113 -0.1458 -0.0017
   48DOPE  H15Y 6182   6.882   0.683   4.640  1.9853 -0.3399 -0.0924
   48DOPE  C316 6183   7.008   0.770   4.798  1.0160  0.0647  0.1469
   48DOPE  H16X 6184   7.022   0.857   4.730  1.3212 -0.4454 -0.4612
   48DOPE  H16Y 6185   7.104   0.715   4.785 -0.1831 -1.8790 -0.9926
   48DOPE  C317 6186   6.982   0.807   4.945  0.4633  0.3113 -0.2304
   48DOPE  H17X 6187   6.883   0.853   4.960  0.6504  0.4570  0.6045
   48DOPE  H17Y 6188   6.973   0.719   5.012 -3.0459 -0.3321 -1.3695
   48DOPE  C318 6189   7.091   0.908   4.997 -0.0912  0.5550 -1.3675
   48DOPE  H18X 6190   7.073   0.942   5.102  0.7645  0.5517 -1.2082
   48DOPE  H18Y 6191   7.189   0.857   5.010 -1.0900 -0.8524  1.9465
   48DOPE  H18Z 6192   7.082   0.988   4.920 -1.9245  0.8566 -0.8857
   49DOPE     N 6193   2.154   6.527   3.089 -0.4891  0.0096 -0.3430
   49DOPE   HN1 6194   2.197   6.620   3.071 -0.0417  0.4771  2.6701
   49DOPE   HN2 6195   2.223   6.450   3.079  0.8973  1.1915 -0.1219
   49DOPE   HN3 6196   2.062   6.516   3.041 -0.9739  0.2179  0.5306
   49DOPE   C12 6197   2.122   6.515   3.236 -0.3734 -0.0689 -0.3532
   49DOPE  H12A 6198   2.073   6.612   3.263  1.7936  1.7025 -2.3744
   49DOPE  H12B 6199   2.220   6.511   3.288  0.5468  0.1468 -2.0149
   49DOPE   C11 6200   2.021   6.404   3.262  0.5411 -0.2197  0.5892
   49DOPE  H11A 6201   2.007   6.407   3.372  1.5974  3.0285  0.7217
   49DOPE  H11B 6202   2.062   6.307   3.227 -0.8938 -0.5794 -0.1670
   49DOPE     P 6203   1.790   6.299   3.190 -0.1565  0.1520  0.1289
   49DOPE   O13 6204   1.860   6.185   3.131 -0.1474 -0.1142 -0.5063
   49DOPE   O14 6205   1.671   6.356   3.121  0.8136  0.6638 -0.2537
   49DOPE   O11 6206   1.759   6.271   3.345 -0.6797  0.2948  0.8374
   49DOPE   O12 6207   1.891   6.415   3.198  0.6440 -0.2183 -0.2830
   49DOPE    C1 6208   1.687   6.375   3.416 -0.0225  0.1255  0.0280
   49DOPE    HA 6209   1.600   6.397   3.350  0.4238 -2.3058 -1.4945
   49DOPE    HB 6210   1.745   6.469   3.424  0.8478 -0.3685 -0.3315
   49DOPE    C2 6211   1.634   6.326   3.554  0.6518 -0.5813 -0.3014
   49DOPE    HS 6212   1.595   6.409   3.616 -1.9531 -2.5680  0.8942
   49DOPE   O21 6213   1.737   6.248   3.624  0.3887 -0.0819  0.6095
   49DOPE   C21 6214   1.848   6.318   3.646 -0.3808 -0.4622 -0.2881
   49DOPE   O22 6215   1.859   6.435   3.630 -0.2293  0.3051  0.3376
   49DOPE   C22 6216   1.956   6.238   3.713  0.7675 -0.3197 -0.5026
   49DOPE   H2R 6217   1.948   6.139   3.664  0.4371  0.2782 -1.6919
   49DOPE   H2S 6218   1.953   6.231   3.824  0.3864  2.5456 -0.2713
   49DOPE    C3 6219   1.511   6.228   3.538 -0.0692  0.2528 -0.4706
   49DOPE    HX 6220   1.545   6.147   3.469  1.8673  0.1408  0.5701
   49DOPE    HY 6221   1.433   6.296   3.497 -0.4595  0.1689  0.1314
   49DOPE   O31 6222   1.484   6.164   3.665 -0.2483 -0.2194  0.5448
   49DOPE   C31 6223   1.361   6.114   3.678  0.2333  0.0618 -0.0278
   49DOPE   O32 6224   1.278   6.118   3.590 -0.6920  0.2297 -0.0050
   49DOPE   C32 6225   1.352   6.031   3.803 -0.3211  0.0118 -0.4599
   49DOPE   H2X 6226   1.322   5.928   3.775  0.0973 -0.8727  2.0542
   49DOPE   H2Y 6227   1.448   6.025   3.859 -1.0932  0.4114  0.9615
   49DOPE   C23 6228   2.099   6.279   3.696 -0.3474  0.3432  0.5215
   49DOPE   H3R 6229   2.126   6.313   3.593 -1.3906  1.6662  0.6604
   49DOPE   H3S 6230   2.170   6.194   3.709 -1.9415 -0.8859  1.4949
   49DOPE   C24 6231   2.152   6.386   3.794  0.2780  0.1407  0.2535
   49DOPE   H4R 6232   2.167   6.321   3.884  1.5552 -0.3146 -0.2646
   49DOPE   H4S 6233   2.080   6.467   3.814 -2.0043 -1.8490  0.5174
   49DOPE   C25 6234   2.288   6.451   3.751  0.1210 -0.1737  0.2966
   49DOPE   H5R 6235   2.275   6.493   3.649 -3.1295  2.1408  1.4769
   49DOPE   H5S 6236   2.368   6.375   3.759 -0.6385 -1.1436 -1.0762
   49DOPE   C26 6237   2.325   6.568   3.850 -0.3266 -0.1438 -0.9328
   49DOPE   H6R 6238   2.346   6.528   3.951  3.2078 -1.6729 -2.1132
   49DOPE   H6S 6239   2.238   6.636   3.856  0.6455  1.0342  0.4052
   49DOPE   C27 6240   2.457   6.646   3.811  0.2968 -0.2056 -0.1047
   49DOPE   H7R 6241   2.534   6.568   3.800  1.4874  0.9788 -0.4960
   49DOPE   H7S 6242   2.482   6.720   3.891  0.5425  0.4351 -0.7615
   49DOPE   C28 6243   2.445   6.729   3.681  0.3076  0.3824  0.1001
   49DOPE   H8R 6244   2.365   6.803   3.701 -0.4006 -0.6219  1.0824
   49DOPE   H8S 6245   2.412   6.659   3.602 -0.3160  1.5293 -0.6887
   49DOPE   C29 6246   2.572   6.795   3.644  0.2639  0.1462 -0.9623
   49DOPE   H9R 6247   2.657   6.726   3.629  0.3573 -0.8228  2.8221
   49DOPE  C210 6248   2.590   6.929   3.634 -0.1537  0.7955 -0.3882
   49DOPE  H10R 6249   2.685   6.959   3.589  1.5816 -2.1077  1.0414
   49DOPE  C211 6250   2.494   7.044   3.660 -0.1646  0.5467  0.1410
   49DOPE  H11R 6251   2.393   7.007   3.689  0.6844 -1.9061  0.1734
   49DOPE  H11S 6252   2.476   7.111   3.573 -3.3395  0.0613  0.2939
   49DOPE  C212 6253   2.541   7.135   3.779  0.0300  0.5800 -0.0551
   49DOPE  H12R 6254   2.619   7.198   3.732  0.4063  0.3076  0.1979
   49DOPE  H12S 6255   2.595   7.073   3.854  0.2394 -1.5436 -1.8575
   49DOPE  C213 6256   2.435   7.229   3.836 -0.6549  0.3299  0.1695
   49DOPE  H13R 6257   2.352   7.163   3.872  0.8870 -1.3118  0.8584
   49DOPE  H13S 6258   2.384   7.289   3.757  0.7833 -0.3275 -1.2951
   49DOPE  C214 6259   2.485   7.313   3.951 -0.1665 -0.5739 -0.3367
   49DOPE  H14R 6260   2.422   7.404   3.960 -0.0304 -0.2493 -2.3025
   49DOPE  H14S 6261   2.577   7.365   3.919 -1.7823  3.7175  1.2327
   49DOPE  C215 6262   2.498   7.246   4.084  0.0048  0.2287  0.6714
   49DOPE  H15R 6263   2.586   7.178   4.082 -1.1607 -1.3565  0.9450
   49DOPE  H15S 6264   2.413   7.179   4.110  1.3480 -1.4129  1.0623
   49DOPE  C216 6265   2.513   7.350   4.198  0.2391  0.1213 -0.4406
   49DOPE  H16R 6266   2.417   7.406   4.190 -0.0937 -0.2153  1.0350
   49DOPE  H16S 6267   2.584   7.432   4.174 -1.1168  1.1745 -0.9652
   49DOPE  C217 6268   2.531   7.299   4.345 -0.4282  0.8813  0.2562
   49DOPE  H17R 6269   2.612   7.224   4.357 -3.6580 -2.9728  0.2906
   49DOPE  H17S 6270   2.447   7.228   4.360  0.4662 -0.4244 -0.6869
   49DOPE  C218 6271   2.548   7.411   4.449 -0.2614 -0.0549  0.3196
   49DOPE  H18R 6272   2.475   7.494   4.438  0.4400  0.4659 -0.5164
   49DOPE  H18S 6273   2.645   7.456   4.418 -0.0183  0.5161  1.8331
   49DOPE  H18T 6274   2.566   7.370   4.551 -0.7469 -0.0828  0.3992
   49DOPE   C33 6275   1.251   6.095   3.891 -0.0160  0.7826 -0.5491
   49DOPE   H3X 6276   1.156   6.088   3.834 -0.9691  0.1589  1.0397
   49DOPE   H3Y 6277   1.276   6.198   3.922  1.9137  0.4617 -0.9355
   49DOPE   C34 6278   1.227   6.014   4.019  0.1198  0.5868 -0.2142
   49DOPE   H4X 6279   1.207   5.908   3.993  0.3516  0.0492  1.6964
   49DOPE   H4Y 6280   1.316   6.015   4.085 -0.1479  3.3221  0.1976
   49DOPE   C35 6281   1.101   6.076   4.091 -0.1781  0.7975 -0.2034
   49DOPE   H5X 6282   1.066   6.013   4.176  0.0786  0.2400 -0.5003
   49DOPE   H5Y 6283   1.017   6.081   4.018 -0.6543  2.3183  0.4190
   49DOPE   C36 6284   1.130   6.212   4.146 -0.0247 -0.9963  0.3788
   49DOPE   H6X 6285   1.164   6.280   4.065  0.3471 -0.6597  0.8129
   49DOPE   H6Y 6286   1.215   6.207   4.218 -0.2254  0.8507  0.8045
   49DOPE   C37 6287   1.006   6.272   4.204 -0.2416 -0.3702  0.7265
   49DOPE   H7X 6288   0.935   6.292   4.121  0.4475 -2.2089 -0.3621
   49DOPE   H7Y 6289   0.966   6.192   4.269  1.4956 -1.4465  0.5302
   49DOPE   C38 6290   1.013   6.408   4.279 -0.0539  0.3609  0.2819
   49DOPE   H8X 6291   1.059   6.479   4.208 -2.6015  1.6069 -0.2323
   49DOPE   H8Y 6292   1.075   6.404   4.372 -0.5616 -1.6591  0.5810
   49DOPE   C39 6293   0.873   6.455   4.307  1.0113  0.1238 -0.4261
   49DOPE   H9X 6294   0.813   6.391   4.374  1.3347  0.5741  0.3041
   49DOPE  C310 6295   0.808   6.557   4.252 -0.3146  0.1100  0.3220
   49DOPE  H10X 6296   0.712   6.590   4.294 -1.3712 -1.0784 -1.0782
   49DOPE  C311 6297   0.864   6.663   4.158  0.7921 -0.5520 -0.3614
   49DOPE  H11X 6298   0.973   6.648   4.140  0.7760 -0.4830 -0.5140
   49DOPE  H11Y 6299   0.816   6.642   4.060 -0.4932  3.0968 -0.6470
   49DOPE  C312 6300   0.823   6.807   4.196 -0.7670  0.1044 -0.5584
   49DOPE  H12X 6301   0.714   6.805   4.215 -0.9709  1.8768 -1.3239
   49DOPE  H12Y 6302   0.839   6.881   4.114  1.3289 -0.1586 -0.4423
   49DOPE  C313 6303   0.897   6.860   4.323 -0.5400 -0.2209  0.2773
   49DOPE  H13X 6304   0.817   6.913   4.379 -3.0402 -4.1533  0.8148
   49DOPE  H13Y 6305   0.926   6.778   4.392  0.0457 -0.0925  0.1935
   49DOPE  C314 6306   1.011   6.954   4.293 -0.5693  0.1069 -0.2432
   49DOPE  H14X 6307   0.975   7.055   4.265  0.7298  1.1366  1.5688
   49DOPE  H14Y 6308   1.073   6.916   4.209  1.2670  1.1927  0.5432
   49DOPE  C315 6309   1.107   6.959   4.413 -0.5154  0.5994  0.0129
   49DOPE  H15X 6310   1.163   6.863   4.419  0.0207  0.9960  1.6831
   49DOPE  H15Y 6311   1.063   6.978   4.513  2.5503 -1.9519  2.0180
   49DOPE  C316 6312   1.203   7.076   4.401  0.1118  0.3706 -0.0534
   49DOPE  H16X 6313   1.145   7.164   4.366  0.6013  1.3681  1.5586
   49DOPE  H16Y 6314   1.280   7.052   4.324  2.8670  0.4504  2.5120
   49DOPE  C317 6315   1.273   7.108   4.533  0.1800 -1.1152  0.7138
   49DOPE  H17X 6316   1.205   7.116   4.621  0.8227  0.3027  1.1097
   49DOPE  H17Y 6317   1.342   7.024   4.558  0.0308 -1.1279  1.0888
   49DOPE  C318 6318   1.343   7.242   4.527 -0.0279  0.3807 -0.0634
   49DOPE  H18X 6319   1.267   7.323   4.523 -1.3965 -0.8982 -2.5352
   49DOPE  H18Y 6320   1.396   7.260   4.623  1.3382 -2.2680 -0.2473
   49DOPE  H18Z 6321   1.422   7.244   4.449  0.6287 -2.1910  0.4617
   50DOPE     N 6322   1.243   3.698   2.654 -0.0098  0.8345 -0.0128
   50DOPE   HN1 6323   1.252   3.673   2.554  0.3050  0.6047  0.0728
   50DOPE   HN2 6324   1.293   3.788   2.673  1.8895 -0.0168 -0.8112
   50DOPE   HN3 6325   1.303   3.628   2.701 -0.1500  1.5064  1.2361
   50DOPE   C12 6326   1.107   3.673   2.716 -0.6902 -0.8479 -0.5932
   50DOPE  H12A 6327   1.061   3.579   2.679 -2.6154 -1.2830  2.5658
   50DOPE  H12B 6328   1.048   3.764   2.693 -0.8302 -0.1799  2.0785
   50DOPE   C11 6329   1.124   3.639   2.868  0.3952 -0.9141 -0.1746
   50DOPE  H11A 6330   1.168   3.538   2.885  0.3781 -0.6539  1.6226
   50DOPE  H11B 6331   1.027   3.628   2.923 -0.7899 -3.0324 -2.4542
   50DOPE     P 6332   1.181   3.858   2.999 -0.0650 -0.1667 -0.0306
   50DOPE   O13 6333   1.064   3.916   2.937  0.3906 -0.0037  0.0720
   50DOPE   O14 6334   1.301   3.945   3.015 -0.2232 -0.1858 -0.2320
   50DOPE   O11 6335   1.139   3.811   3.140 -0.5008 -0.0499  0.6303
   50DOPE   O12 6336   1.219   3.724   2.930  0.0183  0.1459  0.7780
   50DOPE    C1 6337   1.011   3.844   3.201 -0.6637  0.0649  1.1731
   50DOPE    HA 6338   0.993   3.772   3.283  0.9132  1.5974  2.9558
   50DOPE    HB 6339   0.923   3.856   3.134 -0.3291  0.4844  0.8041
   50DOPE    C2 6340   1.011   3.977   3.292 -0.7422 -0.7790 -0.1317
   50DOPE    HS 6341   1.051   4.063   3.234 -0.0322 -0.9988  0.0194
   50DOPE   O21 6342   1.104   3.946   3.401 -0.5717 -0.6943 -0.1676
   50DOPE   C21 6343   1.128   4.053   3.471 -0.7243 -0.0997 -0.3738
   50DOPE   O22 6344   1.093   4.170   3.447  0.0407  0.3414 -0.3869
   50DOPE   C22 6345   1.192   4.006   3.603 -0.0811 -0.0605  0.0856
   50DOPE   H2R 6346   1.266   3.926   3.581  0.1152 -0.0106  0.5388
   50DOPE   H2S 6347   1.117   3.966   3.674  0.0527  1.8511  1.3743
   50DOPE    C3 6348   0.862   4.012   3.342 -0.0763 -0.6051  0.0040
   50DOPE    HX 6349   0.795   3.997   3.255  1.2172  1.2406 -1.3899
   50DOPE    HY 6350   0.852   4.117   3.376 -3.6739 -0.6120 -0.7013
   50DOPE   O31 6351   0.817   3.933   3.459  0.4058  0.0258 -0.3920
   50DOPE   C31 6352   0.751   3.818   3.444  0.0407 -0.5880  0.7872
   50DOPE   O32 6353   0.734   3.769   3.338  0.5373  0.0718 -0.6434
   50DOPE   C32 6354   0.706   3.754   3.577 -0.7623  0.4978 -0.3728
   50DOPE   H2X 6355   0.646   3.664   3.552  2.3436 -2.6763  2.4232
   50DOPE   H2Y 6356   0.791   3.717   3.638 -0.4056  0.0247 -1.1354
   50DOPE   C23 6357   1.261   4.118   3.672  0.0403 -0.6961 -0.1661
   50DOPE   H3R 6358   1.184   4.182   3.719 -1.7565  0.0274 -3.7806
   50DOPE   H3S 6359   1.318   4.176   3.596 -0.6486 -0.6310 -0.6378
   50DOPE   C24 6360   1.357   4.063   3.776 -0.4877 -0.6866 -0.0878
   50DOPE   H4R 6361   1.450   4.124   3.782 -0.6866 -0.4842  1.0919
   50DOPE   H4S 6362   1.396   3.960   3.757  2.5793  0.0457  1.6106
   50DOPE   C25 6363   1.301   4.057   3.916 -0.1457  0.0993 -0.1454
   50DOPE   H5R 6364   1.221   3.981   3.929 -1.8148  1.3410 -2.3068
   50DOPE   H5S 6365   1.247   4.153   3.923  1.1892  0.9005 -0.4664
   50DOPE   C26 6366   1.416   4.049   4.018  0.2998 -0.4266 -0.8595
   50DOPE   H6R 6367   1.386   4.114   4.103 -0.1187 -1.7675  0.0476
   50DOPE   H6S 6368   1.512   4.083   3.974 -0.4041  0.5307 -1.7021
   50DOPE   C27 6369   1.442   3.904   4.061 -0.3329 -0.7648  0.3063
   50DOPE   H7R 6370   1.463   3.855   3.964  0.8632  0.4883 -0.0963
   50DOPE   H7S 6371   1.353   3.860   4.111  0.1389 -1.4762  0.5279
   50DOPE   C28 6372   1.568   3.890   4.153 -0.3572  0.3006 -0.8263
   50DOPE   H8R 6373   1.650   3.944   4.101  0.0807 -0.5970 -1.0862
   50DOPE   H8S 6374   1.596   3.784   4.163 -0.1381  0.4465  0.1887
   50DOPE   C29 6375   1.536   3.948   4.290  0.4584  1.1265  0.4599
   50DOPE   H9R 6376   1.449   4.015   4.292 -2.0782 -1.9524  1.7237
   50DOPE  C210 6377   1.598   3.916   4.404  0.3454  0.1263  0.1341
   50DOPE  H10R 6378   1.554   3.951   4.498  0.7168  3.1235 -0.7220
   50DOPE  C211 6379   1.716   3.819   4.409 -0.0075  0.1816  0.1128
   50DOPE  H11R 6380   1.730   3.763   4.314  1.3344 -0.7325  0.8224
   50DOPE  H11S 6381   1.698   3.740   4.485  0.0273 -0.6715 -0.7497
   50DOPE  C212 6382   1.861   3.869   4.442 -0.0250 -0.5731 -0.3692
   50DOPE  H12R 6383   1.939   3.790   4.447 -0.8418 -1.5308 -1.7122
   50DOPE  H12S 6384   1.845   3.918   4.540 -3.2453 -0.7984 -0.6689
   50DOPE  C213 6385   1.917   3.967   4.337 -0.2782 -0.0287 -0.3415
   50DOPE  H13R 6386   1.984   4.029   4.400 -0.1132 -1.6987  1.2210
   50DOPE  H13S 6387   1.839   4.041   4.309 -1.3824 -0.9181  0.2821
   50DOPE  C214 6388   1.995   3.904   4.219  0.2861 -0.1935  0.2854
   50DOPE  H14R 6389   1.921   3.842   4.164 -0.7038  1.1709  0.0252
   50DOPE  H14S 6390   2.081   3.843   4.252 -0.1874 -1.2458 -0.3544
   50DOPE  C215 6391   2.040   4.010   4.112  0.1290  0.1591 -0.2331
   50DOPE  H15R 6392   2.093   4.094   4.161  0.5669 -0.2972  0.0800
   50DOPE  H15S 6393   1.949   4.050   4.062  0.3647  1.1215  0.0900
   50DOPE  C216 6394   2.126   3.940   4.003 -0.3173  0.1964 -1.3310
   50DOPE  H16R 6395   2.221   3.902   4.048 -0.5155  1.7323  0.4927
   50DOPE  H16S 6396   2.161   4.023   3.939 -1.1246  1.2454 -0.4592
   50DOPE  C217 6397   2.065   3.831   3.911  0.3555 -0.3406  0.3603
   50DOPE  H17R 6398   2.039   3.751   3.983  0.5524  0.6241  1.5429
   50DOPE  H17S 6399   2.140   3.785   3.842  1.2847 -3.1848  3.0245
   50DOPE  C218 6400   1.940   3.869   3.835  0.5758 -0.0561 -0.2080
   50DOPE  H18R 6401   1.904   3.784   3.772  1.8636 -1.0604  0.3578
   50DOPE  H18S 6402   1.961   3.955   3.769  1.4785  0.0399  0.1880
   50DOPE  H18T 6403   1.861   3.897   3.908 -1.0966  0.0114 -1.9649
   50DOPE   C33 6404   0.624   3.851   3.667 -0.0749  0.0825  0.2344
   50DOPE   H3X 6405   0.557   3.907   3.598 -1.1448  0.4694  1.5473
   50DOPE   H3Y 6406   0.686   3.929   3.715  0.8744 -0.1626 -0.5571
   50DOPE   C34 6407   0.529   3.784   3.770  0.1510  0.2241  0.4609
   50DOPE   H4X 6408   0.426   3.819   3.746  0.3769 -1.6885 -4.4958
   50DOPE   H4Y 6409   0.518   3.674   3.756  0.1215  0.2877 -0.0418
   50DOPE   C35 6410   0.565   3.820   3.913  0.0114  0.0903 -0.2700
   50DOPE   H5X 6411   0.594   3.926   3.931  0.4159 -0.3002  1.5712
   50DOPE   H5Y 6412   0.656   3.768   3.951 -0.7719  0.1318  1.7860
   50DOPE   C36 6413   0.463   3.762   4.014 -0.7241 -0.2317 -0.3164
   50DOPE   H6X 6414   0.446   3.653   4.001 -0.0099 -0.4196  0.2916
   50DOPE   H6Y 6415   0.361   3.807   4.007 -0.8050 -0.2744  0.5208
   50DOPE   C37 6416   0.520   3.797   4.154 -0.1212  0.2215 -0.0776
   50DOPE   H7X 6417   0.618   3.746   4.164  0.3211  1.3279  1.5354
   50DOPE   H7Y 6418   0.556   3.902   4.160  1.8040 -0.4806  2.4456
   50DOPE   C38 6419   0.429   3.771   4.280 -0.2257 -0.2313 -0.3905
   50DOPE   H8X 6420   0.323   3.797   4.262 -0.0541  0.2816 -0.6599
   50DOPE   H8Y 6421   0.458   3.846   4.356  0.8443  0.6536 -1.6295
   50DOPE   C39 6422   0.447   3.630   4.341 -0.1257 -0.6414 -0.4087
   50DOPE   H9X 6423   0.440   3.545   4.272  0.4211  0.7841 -2.2846
   50DOPE  C310 6424   0.473   3.604   4.468  0.2641  0.6054  0.0180
   50DOPE  H10X 6425   0.489   3.496   4.486 -1.0562  0.0998 -1.5740
   50DOPE  C311 6426   0.472   3.690   4.587 -0.0704  0.6947  0.3274
   50DOPE  H11X 6427   0.407   3.779   4.572 -2.1051 -0.9323 -1.0757
   50DOPE  H11Y 6428   0.427   3.632   4.670 -1.9854  0.5696 -0.7343
   50DOPE  C312 6429   0.611   3.734   4.641 -0.8046 -0.2467  0.6289
   50DOPE  H12X 6430   0.655   3.812   4.575 -0.6778 -1.8722 -1.3154
   50DOPE  H12Y 6431   0.689   3.656   4.645 -0.9470 -0.3527  1.5211
   50DOPE  C313 6432   0.604   3.796   4.778 -0.2443 -0.4716 -0.3813
   50DOPE  H13X 6433   0.568   3.901   4.773  0.7271 -0.0540  0.9624
   50DOPE  H13Y 6434   0.538   3.730   4.839 -2.4281 -1.1608 -3.2449
   50DOPE  C314 6435   0.742   3.799   4.862 -0.2341  0.0438 -0.1199
   50DOPE  H14X 6436   0.808   3.869   4.807  1.0170 -2.1519 -1.5434
   50DOPE  H14Y 6437   0.792   3.700   4.864  1.0313  0.6808  1.2189
   50DOPE  C315 6438   0.718   3.858   5.000  0.6488  0.0511  0.6014
   50DOPE  H15X 6439   0.648   3.795   5.059  1.5144  0.1280  1.7645
   50DOPE  H15Y 6440   0.680   3.962   4.993  0.5406  0.0299  0.8397
   50DOPE  C316 6441   0.846   3.856   5.086 -0.6952  0.1133 -0.3414
   50DOPE  H16X 6442   0.923   3.907   5.025  1.2520 -0.3864  1.5653
   50DOPE  H16Y 6443   0.882   3.751   5.093 -1.6101 -0.2298 -0.5988
   50DOPE  C317 6444   0.832   3.915   5.224 -0.1117 -0.6193 -0.0853
   50DOPE  H17X 6445   0.819   4.023   5.201  0.6752  0.0041  2.1808
   50DOPE  H17Y 6446   0.743   3.878   5.279 -0.2326 -2.5476 -1.4611
   50DOPE  C318 6447   0.963   3.889   5.297 -0.4206 -0.3051  0.1865
   50DOPE  H18X 6448   0.981   3.781   5.316  0.0718  0.1866  2.8704
   50DOPE  H18Y 6449   1.053   3.927   5.244 -1.3467  1.0322 -0.4850
   50DOPE  H18Z 6450   0.959   3.929   5.400  0.9363  0.3888 -0.0146
   51DOPE     N 6451   3.517   6.915   2.572 -0.3597 -0.7289 -0.3443
   51DOPE   HN1 6452   3.563   6.945   2.661 -2.8794  0.1385  0.7422
   51DOPE   HN2 6453   3.577   6.930   2.488  0.4450  0.8402  0.4766
   51DOPE   HN3 6454   3.435   6.976   2.556  0.3483  0.3420  0.0394
   51DOPE   C12 6455   3.475   6.770   2.584  0.1964 -0.4733 -0.8631
   51DOPE  H12A 6456   3.562   6.701   2.578 -1.3949 -3.3294  3.7867
   51DOPE  H12B 6457   3.415   6.749   2.493 -2.6463  2.1597  0.2508
   51DOPE   C11 6458   3.388   6.732   2.702 -0.5806  0.3854 -0.3898
   51DOPE  H11A 6459   3.444   6.723   2.798 -0.5301  0.1580 -0.4408
   51DOPE  H11B 6460   3.341   6.632   2.693 -0.5956  0.3797 -0.2569
   51DOPE     P 6461   3.288   6.954   2.829 -0.0788 -0.1216  0.3725
   51DOPE   O13 6462   3.154   6.979   2.876  0.3466  0.0202  0.1517
   51DOPE   O14 6463   3.360   7.062   2.759  0.4403 -0.2363  0.1873
   51DOPE   O11 6464   3.377   6.895   2.950  0.1881 -0.5157 -0.1580
   51DOPE   O12 6465   3.286   6.834   2.727 -0.0380 -0.5482  0.0461
   51DOPE    C1 6466   3.313   6.793   3.034 -0.3122  0.0659  0.0808
   51DOPE    HA 6467   3.394   6.716   3.041  1.8460  2.2631  0.7362
   51DOPE    HB 6468   3.216   6.757   2.993 -0.3245 -1.0504  1.0426
   51DOPE    C2 6469   3.291   6.834   3.175 -0.2663 -0.3360 -0.3285
   51DOPE    HS 6470   3.238   6.932   3.174 -0.0738 -0.2174  0.2553
   51DOPE   O21 6471   3.417   6.862   3.237  0.6423 -0.7625 -0.3366
   51DOPE   C21 6472   3.410   6.944   3.339 -0.4538 -0.3803 -0.1389
   51DOPE   O22 6473   3.316   7.010   3.377  0.4309 -0.2656  0.2450
   51DOPE   C22 6474   3.558   6.941   3.392  0.2699  0.0167  0.1784
   51DOPE   H2R 6475   3.592   7.040   3.430 -0.6183  0.8417 -1.0909
   51DOPE   H2S 6476   3.626   6.929   3.305 -1.4169 -2.8611 -0.8888
   51DOPE    C3 6477   3.204   6.727   3.257  0.3430 -0.1198  0.0675
   51DOPE    HX 6478   3.263   6.633   3.248 -1.1075 -0.9792 -0.7007
   51DOPE    HY 6479   3.108   6.721   3.203  1.0213  1.3939 -1.4016
   51DOPE   O31 6480   3.185   6.761   3.396 -0.2436  0.2451 -0.2929
   51DOPE   C31 6481   3.071   6.825   3.431 -0.5433 -0.3993  0.5789
   51DOPE   O32 6482   2.982   6.852   3.356  0.5873 -0.0722 -1.2439
   51DOPE   C32 6483   3.096   6.879   3.573 -0.1151  0.1906 -0.5059
   51DOPE   H2X 6484   3.176   6.820   3.621  0.1632  0.9156 -0.0643
   51DOPE   H2Y 6485   3.134   6.982   3.559  0.2064  0.2090  0.4849
   51DOPE   C23 6486   3.581   6.820   3.487  0.2709 -0.0613 -0.6499
   51DOPE   H3R 6487   3.537   6.736   3.428 -0.6722 -0.8536  1.1236
   51DOPE   H3S 6488   3.522   6.824   3.580 -1.1439  0.3594 -1.5340
   51DOPE   C24 6489   3.731   6.797   3.512 -0.2778 -0.0970 -0.4277
   51DOPE   H4R 6490   3.777   6.895   3.539 -0.9788  0.2007 -0.2954
   51DOPE   H4S 6491   3.776   6.751   3.421  0.0962  1.5060 -1.0953
   51DOPE   C25 6492   3.764   6.699   3.626  0.0844 -0.0163  0.0731
   51DOPE   H5R 6493   3.874   6.691   3.612 -0.1880 -1.1527 -1.6639
   51DOPE   H5S 6494   3.713   6.602   3.607 -0.5088 -0.0572  1.6906
   51DOPE   C26 6495   3.719   6.749   3.762 -0.1291 -0.3880  0.3532
   51DOPE   H6R 6496   3.610   6.749   3.780  0.2233  0.8063  2.9068
   51DOPE   H6S 6497   3.751   6.854   3.775 -1.1471 -0.1916  1.4203
   51DOPE   C27 6498   3.780   6.665   3.866  0.0056  0.2087  0.2633
   51DOPE   H7R 6499   3.891   6.671   3.855  0.2871 -0.3378  2.4203
   51DOPE   H7S 6500   3.748   6.559   3.867  1.2157 -0.1707  1.4619
   51DOPE   C28 6501   3.748   6.728   4.004  0.2566  0.1061 -0.0320
   51DOPE   H8R 6502   3.745   6.644   4.077  1.7231  1.1036  1.2481
   51DOPE   H8S 6503   3.642   6.759   4.002 -0.0980 -1.0326 -2.3832
   51DOPE   C29 6504   3.847   6.833   4.044 -0.5424 -0.2265 -0.2041
   51DOPE   H9R 6505   3.876   6.890   3.954 -1.7783 -0.5049 -0.7973
   51DOPE  C210 6506   3.917   6.851   4.157  0.4520  0.1718  0.3765
   51DOPE  H10R 6507   3.977   6.943   4.161 -1.3022  1.3158  1.3996
   51DOPE  C211 6508   3.896   6.782   4.287 -0.7883  0.0576  0.3215
   51DOPE  H11R 6509   3.827   6.697   4.274 -1.2534  0.4807 -0.0163
   51DOPE  H11S 6510   3.840   6.851   4.354  0.8450  1.5481  0.2272
   51DOPE  C212 6511   4.024   6.728   4.354 -0.2919  0.4742 -0.1707
   51DOPE  H12R 6512   4.100   6.807   4.334  1.6206 -1.4708 -0.9201
   51DOPE  H12S 6513   4.058   6.651   4.282  0.5178  1.1873 -0.5742
   51DOPE  C213 6514   4.011   6.679   4.500 -0.6328 -0.1856  0.3586
   51DOPE  H13R 6515   3.995   6.760   4.574 -0.0729  0.2616  0.0056
   51DOPE  H13S 6516   4.097   6.609   4.515 -1.0526 -0.9774 -0.7888
   51DOPE  C214 6517   3.889   6.588   4.506  0.5765  0.6893 -0.4101
   51DOPE  H14R 6518   3.893   6.521   4.417 -2.0517 -2.7092  1.7889
   51DOPE  H14S 6519   3.792   6.641   4.501  0.1350 -0.1357 -0.7938
   51DOPE  C215 6520   3.878   6.509   4.632 -0.5159  0.4428 -0.2752
   51DOPE  H15R 6521   3.869   6.574   4.721  1.7545  0.8287 -0.2791
   51DOPE  H15S 6522   3.961   6.439   4.654 -2.9384 -2.1931  1.2963
   51DOPE  C216 6523   3.753   6.419   4.629  0.3833  0.1148 -0.8490
   51DOPE  H16R 6524   3.773   6.354   4.541  1.1241 -0.9143  0.0562
   51DOPE  H16S 6525   3.656   6.468   4.608  0.4167  0.0789 -1.0896
   51DOPE  C217 6526   3.728   6.322   4.744  0.0849  0.7188 -0.0389
   51DOPE  H17R 6527   3.626   6.276   4.742  0.7483 -0.8917  1.1041
   51DOPE  H17S 6528   3.724   6.375   4.842  0.7219  2.9236 -1.1362
   51DOPE  C218 6529   3.815   6.202   4.760 -0.6664  0.4474 -0.2162
   51DOPE  H18R 6530   3.830   6.169   4.655 -0.6793 -2.0175  0.4892
   51DOPE  H18S 6531   3.779   6.115   4.818  1.2815 -0.8407 -0.8124
   51DOPE  H18T 6532   3.921   6.220   4.787  0.4620 -2.0999 -2.3862
   51DOPE   C33 6533   2.964   6.871   3.660 -0.7591 -0.3041 -0.2758
   51DOPE   H3X 6534   2.927   6.767   3.668  2.6165 -1.8874 -2.6265
   51DOPE   H3Y 6535   2.888   6.937   3.612  0.3729 -0.7180 -2.8071
   51DOPE   C34 6536   2.999   6.919   3.801  0.4103  0.6669  0.1534
   51DOPE   H4X 6537   3.070   6.844   3.843 -0.0382  0.3917  0.4262
   51DOPE   H4Y 6538   3.069   7.005   3.796  3.5570 -1.7322 -0.3982
   51DOPE   C35 6539   2.876   6.934   3.891 -0.4364  0.1183  0.4685
   51DOPE   H5X 6540   2.829   6.834   3.885  2.6090 -1.3897 -0.7708
   51DOPE   H5Y 6541   2.807   7.018   3.867 -1.6689 -0.7983  0.7356
   51DOPE   C36 6542   2.922   6.937   4.039  0.4076 -0.0572  0.6622
   51DOPE   H6X 6543   2.993   7.022   4.044  1.2845 -0.7833  0.8960
   51DOPE   H6Y 6544   2.990   6.855   4.071 -1.0402 -0.6598  2.4178
   51DOPE   C37 6545   2.803   6.962   4.137  0.8901 -0.3401  0.7005
   51DOPE   H7X 6546   2.854   6.995   4.230 -0.0515  2.5181  0.2922
   51DOPE   H7Y 6547   2.750   7.057   4.114  0.7922 -0.1382  1.6931
   51DOPE   C38 6548   2.704   6.848   4.170  0.5063 -0.2182  0.1586
   51DOPE   H8X 6549   2.746   6.760   4.222 -2.2763 -2.3056 -0.8888
   51DOPE   H8Y 6550   2.653   6.808   4.080  0.3930 -0.2090  0.2188
   51DOPE   C39 6551   2.598   6.906   4.262 -0.4018  0.0591 -0.1499
   51DOPE   H9X 6552   2.544   6.994   4.223 -0.3416  0.3449  0.4044
   51DOPE  C310 6553   2.582   6.882   4.392  0.3764  0.0347  0.6277
   51DOPE  H10X 6554   2.521   6.957   4.445  0.4046  0.3555  0.2162
   51DOPE  C311 6555   2.663   6.790   4.464 -0.5799  0.3277 -0.3695
   51DOPE  H11X 6556   2.600   6.765   4.553 -1.8708 -1.4734 -1.7166
   51DOPE  H11Y 6557   2.682   6.692   4.416 -1.0809  0.0196  0.0586
   51DOPE  C312 6558   2.799   6.851   4.513 -0.2632  0.2220 -1.3628
   51DOPE  H12X 6559   2.815   6.958   4.487  3.3397 -0.2983 -1.8649
   51DOPE  H12Y 6560   2.878   6.807   4.448  1.2741 -1.0086  1.2055
   51DOPE  C313 6561   2.825   6.824   4.663  0.4642 -0.2655  0.0472
   51DOPE  H13X 6562   2.741   6.861   4.725  0.3068 -0.9210  0.2292
   51DOPE  H13Y 6563   2.829   6.716   4.687 -1.6463 -0.1149  1.3018
   51DOPE  C314 6564   2.948   6.895   4.714 -0.8452 -0.1156  0.1261
   51DOPE  H14X 6565   2.945   7.005   4.696 -2.3048 -0.2560 -0.5853
   51DOPE  H14Y 6566   3.038   6.847   4.672 -0.4488  0.0380  0.7822
   51DOPE  C315 6567   2.976   6.857   4.865  0.1023  0.7179  0.4043
   51DOPE  H15X 6568   2.955   6.748   4.876  2.0703  0.1239 -1.2241
   51DOPE  H15Y 6569   2.916   6.929   4.926 -2.1008  0.7601 -1.6681
   51DOPE  C316 6570   3.117   6.880   4.901  0.3138  0.5280  0.8788
   51DOPE  H16X 6571   3.140   6.981   4.860  0.1179  0.7281  1.2574
   51DOPE  H16Y 6572   3.184   6.799   4.864 -0.0900  0.1402  0.9907
   51DOPE  C317 6573   3.136   6.883   5.057 -0.3650  0.9021  0.0087
   51DOPE  H17X 6574   3.066   6.805   5.093 -1.5526  2.6496  1.7131
   51DOPE  H17Y 6575   3.238   6.844   5.082 -1.5588 -1.3488  1.7353
   51DOPE  C318 6576   3.104   7.016   5.115  0.3450 -0.9077  0.3017
   51DOPE  H18X 6577   3.108   7.028   5.226 -1.6131  0.6201  0.2537
   51DOPE  H18Y 6578   3.172   7.083   5.060  0.7006 -0.5527  1.1510
   51DOPE  H18Z 6579   2.999   7.049   5.099  1.0597  0.9594 -0.7607
   52DOPE     N 6580   0.075   4.463   2.818  0.5359 -0.0023  0.7254
   52DOPE   HN1 6581   0.037   4.515   2.736  2.4734  0.3642  0.0112
   52DOPE   HN2 6582   0.039   4.502   2.907  0.0365 -0.6348  0.8096
   52DOPE   HN3 6583   0.179   4.466   2.821  0.4957  1.7979  1.3976
   52DOPE   C12 6584   0.027   4.317   2.808  0.2297 -0.4329  0.1217
   52DOPE  H12A 6585   0.052   4.282   2.706 -0.6162  0.7672 -0.5291
   52DOPE  H12B 6586  -0.083   4.322   2.826  0.0328 -2.5297 -0.2307
   52DOPE   C11 6587   0.101   4.232   2.915  0.1322 -0.3539 -0.0141
   52DOPE  H11A 6588   0.053   4.132   2.921  1.5755 -1.1202 -0.8812
   52DOPE  H11B 6589   0.091   4.279   3.015 -1.3896 -0.9351  0.1381
   52DOPE     P 6590   0.359   4.290   2.956  0.3574  0.1964  0.2979
   52DOPE   O13 6591   0.334   4.439   2.935 -0.3965  0.2509  0.0439
   52DOPE   O14 6592   0.487   4.233   2.918 -0.4485 -0.4411 -0.1251
   52DOPE   O11 6593   0.350   4.253   3.109  0.1693 -0.1047  0.7941
   52DOPE   O12 6594   0.238   4.210   2.881 -0.0155  0.0773 -0.1116
   52DOPE    C1 6595   0.325   4.135   3.183 -0.2537  0.8105  0.6224
   52DOPE    HA 6596   0.406   4.062   3.166 -0.0891  0.6747  1.8981
   52DOPE    HB 6597   0.224   4.095   3.160  0.8224 -0.8294 -1.5217
   52DOPE    C2 6598   0.333   4.172   3.337  0.3701  0.1895  0.6479
   52DOPE    HS 6599   0.248   4.240   3.358  0.1701  1.0046 -2.3494
   52DOPE   O21 6600   0.461   4.230   3.368  0.1841  0.0730  0.1338
   52DOPE   C21 6601   0.474   4.359   3.361  0.3718 -0.0215  0.6578
   52DOPE   O22 6602   0.386   4.437   3.339  0.1110 -0.6373  0.4633
   52DOPE   C22 6603   0.623   4.380   3.399  0.3909 -0.0991  0.3174
   52DOPE   H2R 6604   0.678   4.437   3.322  0.0126  0.1597  0.2356
   52DOPE   H2S 6605   0.684   4.288   3.386  0.8019  0.2836 -0.5304
   52DOPE    C3 6606   0.327   4.045   3.428 -0.5401 -0.2108  0.7781
   52DOPE    HX 6607   0.404   3.977   3.387 -0.2939  1.2249 -1.3001
   52DOPE    HY 6608   0.230   3.997   3.401 -0.3424 -1.3363  1.9991
   52DOPE   O31 6609   0.345   4.077   3.567 -0.5887 -0.4588 -0.0531
   52DOPE   C31 6610   0.243   4.049   3.650  0.9735 -0.6331  0.1552
   52DOPE   O32 6611   0.137   4.005   3.616 -0.1641  0.0760  0.0462
   52DOPE   C32 6612   0.275   4.074   3.792 -1.0549 -0.8108  0.2780
   52DOPE   H2X 6613   0.380   4.041   3.807 -0.0086  1.6737 -1.0270
   52DOPE   H2Y 6614   0.271   4.185   3.803  0.2639 -0.8259  1.0146
   52DOPE   C23 6615   0.645   4.421   3.543 -0.5003  0.4475  0.5829
   52DOPE   H3R 6616   0.570   4.492   3.585 -1.0568 -0.4491  1.1203
   52DOPE   H3S 6617   0.750   4.454   3.557 -0.5866  1.3591 -0.6884
   52DOPE   C24 6618   0.640   4.293   3.633 -0.5648  0.7596  0.4584
   52DOPE   H4R 6619   0.725   4.230   3.597  1.5327  2.8561  1.4373
   52DOPE   H4S 6620   0.541   4.243   3.629  0.6498 -1.7534 -0.3241
   52DOPE   C25 6621   0.687   4.336   3.776 -0.4596 -0.4844  0.2651
   52DOPE   H5R 6622   0.625   4.423   3.806  3.0078  1.9063  1.1186
   52DOPE   H5S 6623   0.789   4.380   3.767 -1.9287  3.2890  0.2876
   52DOPE   C26 6624   0.691   4.220   3.880  0.5001  0.1358  0.3926
   52DOPE   H6R 6625   0.602   4.158   3.853  0.4731 -0.5494  1.9344
   52DOPE   H6S 6626   0.675   4.271   3.977 -2.4065  0.0771  0.0352
   52DOPE   C27 6627   0.824   4.151   3.899  0.2750 -0.6151  0.4972
   52DOPE   H7R 6628   0.890   4.217   3.839 -0.0570  0.1217  0.9332
   52DOPE   H7S 6629   0.821   4.044   3.867  0.3121 -0.6991  0.7776
   52DOPE   C28 6630   0.868   4.156   4.050 -0.6492  0.5435 -0.1675
   52DOPE   H8R 6631   0.863   4.263   4.079 -1.1366  0.1061  1.4232
   52DOPE   H8S 6632   0.975   4.129   4.053  0.2902  3.7747 -0.7925
   52DOPE   C29 6633   0.787   4.095   4.156  0.2790  0.0282  0.9820
   52DOPE   H9R 6634   0.703   4.146   4.206 -0.6035 -1.6634  1.3185
   52DOPE  C210 6635   0.804   3.970   4.202  0.1268 -0.5252 -0.0945
   52DOPE  H10R 6636   0.733   3.928   4.275  0.1638 -1.1455 -0.4118
   52DOPE  C211 6637   0.911   3.875   4.154  0.5868 -0.5227  0.2096
   52DOPE  H11R 6638   0.945   3.893   4.050 -1.4208 -0.7677 -0.5401
   52DOPE  H11S 6639   0.858   3.778   4.146  1.5040 -1.0433  0.2598
   52DOPE  C212 6640   1.039   3.876   4.240  0.3570  0.1743  0.6256
   52DOPE  H12R 6641   1.106   3.960   4.211 -1.1969  0.9881 -0.7846
   52DOPE  H12S 6642   1.090   3.778   4.229 -1.0483 -0.5489  0.2775
   52DOPE  C213 6643   1.007   3.876   4.389 -0.2273  0.1053  0.6553
   52DOPE  H13R 6644   0.921   3.808   4.411  0.8215 -0.6941  2.4869
   52DOPE  H13S 6645   0.961   3.973   4.416 -0.2638  0.1891  0.3038
   52DOPE  C214 6646   1.122   3.842   4.472 -0.5075  0.2628  0.6496
   52DOPE  H14R 6647   1.209   3.906   4.449  0.0010 -0.3450  0.8654
   52DOPE  H14S 6648   1.160   3.742   4.443 -2.4035  0.3260 -2.5786
   52DOPE  C215 6649   1.087   3.849   4.622 -0.4903 -0.2355 -0.1007
   52DOPE  H15R 6650   1.008   3.774   4.644 -1.4331  0.8189  0.1708
   52DOPE  H15S 6651   1.065   3.951   4.660 -1.9564 -1.0221  1.2592
   52DOPE  C216 6652   1.209   3.801   4.715  0.0676 -0.5904  0.4656
   52DOPE  H16R 6653   1.192   3.804   4.824  1.8815  0.6662  0.7488
   52DOPE  H16S 6654   1.289   3.877   4.714 -0.1403 -0.2595 -2.5366
   52DOPE  C217 6655   1.276   3.677   4.670  0.0715 -0.4205  0.3971
   52DOPE  H17R 6656   1.360   3.654   4.739  0.9630  1.0926 -0.1289
   52DOPE  H17S 6657   1.337   3.693   4.578 -0.0323  0.2601  0.4444
   52DOPE  C218 6658   1.184   3.555   4.652 -0.0367  0.7706  0.7387
   52DOPE  H18R 6659   1.098   3.572   4.584  1.1342 -1.6969 -1.5719
   52DOPE  H18S 6660   1.234   3.468   4.604 -3.7209 -1.1999  0.1155
   52DOPE  H18T 6661   1.141   3.532   4.751 -0.5931  0.0214  0.3324
   52DOPE   C33 6662   0.179   4.009   3.898 -1.0990 -0.2140  0.2627
   52DOPE   H3X 6663   0.189   3.899   3.882  1.2996  0.0991 -0.8238
   52DOPE   H3Y 6664   0.073   4.031   3.871 -1.2669 -2.5784 -1.3380
   52DOPE   C34 6665   0.210   4.046   4.046  0.4295  0.1037 -0.5290
   52DOPE   H4X 6666   0.311   4.014   4.079 -0.0016  1.2642  2.1931
   52DOPE   H4Y 6667   0.210   4.157   4.055 -2.4650  0.1666 -0.2572
   52DOPE   C35 6668   0.109   3.997   4.151 -0.2623  0.2654  0.7177
   52DOPE   H5X 6669   0.093   3.887   4.141 -2.2492  0.4568  1.2266
   52DOPE   H5Y 6670   0.009   4.042   4.131 -1.0569 -1.1848  1.1956
   52DOPE   C36 6671   0.154   4.040   4.289  0.0988  0.5411 -0.5146
   52DOPE   H6X 6672   0.177   4.149   4.291  0.3948  0.4709  0.3846
   52DOPE   H6Y 6673   0.250   3.989   4.309  0.2959  0.2915 -2.0441
   52DOPE   C37 6674   0.064   3.995   4.407 -0.2910 -0.4771  0.5705
   52DOPE   H7X 6675  -0.037   4.036   4.382 -0.1494 -0.1737  0.4905
   52DOPE   H7Y 6676   0.066   3.886   4.426 -0.3162 -0.2459  1.9749
   52DOPE   C38 6677   0.117   4.051   4.543 -0.4845  0.1558  0.5158
   52DOPE   H8X 6678   0.097   4.160   4.552 -0.8585  0.0202  1.4676
   52DOPE   H8Y 6679   0.227   4.041   4.554 -0.6630  0.5204  3.3541
   52DOPE   C39 6680   0.046   3.994   4.667 -0.6443 -0.1037  0.2047
   52DOPE   H9X 6681  -0.010   4.067   4.727 -0.8360  0.5034 -0.6865
   52DOPE  C310 6682   0.043   3.868   4.715 -0.5409 -0.0367  0.2406
   52DOPE  H10X 6683  -0.011   3.846   4.808 -0.9080  1.3528  0.3800
   52DOPE  C311 6684   0.114   3.744   4.660  0.4426 -0.5157 -0.2989
   52DOPE  H11X 6685   0.175   3.769   4.571  1.7306 -0.2689  0.6221
   52DOPE  H11Y 6686   0.172   3.696   4.742  0.6484 -1.7263 -1.1264
   52DOPE  C312 6687   0.010   3.650   4.611 -0.4539 -0.4979  0.3402
   52DOPE  H12X 6688  -0.054   3.701   4.537  0.0659 -0.2670  0.0434
   52DOPE  H12Y 6689  -0.052   3.608   4.693  0.5154 -1.9449  0.3627
   52DOPE  C313 6690   0.078   3.532   4.542  0.1702  0.0039 -0.2147
   52DOPE  H13X 6691   0.165   3.571   4.485  1.2780 -0.8848  0.8414
   52DOPE  H13Y 6692   0.097   3.450   4.613 -0.9916  0.9458  1.2401
   52DOPE  C314 6693  -0.030   3.480   4.440  0.6150 -0.2394  0.2679
   52DOPE  H14X 6694  -0.125   3.453   4.492  0.2872 -2.3864 -1.3176
   52DOPE  H14Y 6695   0.017   3.395   4.388  0.0009  0.3385 -1.2772
   52DOPE  C315 6696  -0.056   3.577   4.326 -0.1628  0.0877 -0.1278
   52DOPE  H15X 6697   0.041   3.615   4.287  0.4244 -0.7090  0.5263
   52DOPE  H15Y 6698  -0.127   3.662   4.335 -2.3988 -1.4988 -1.6137
   52DOPE  C316 6699  -0.117   3.499   4.194  0.1911 -0.3182 -0.5006
   52DOPE  H16X 6700  -0.211   3.453   4.232  0.1610  0.0770 -0.0838
   52DOPE  H16Y 6701  -0.043   3.419   4.171  2.1117  0.7453  1.6431
   52DOPE  C317 6702  -0.155   3.594   4.075 -0.0592  0.6470  1.0292
   52DOPE  H17X 6703  -0.231   3.560   4.003  1.4106  0.2278 -0.3866
   52DOPE  H17Y 6704  -0.187   3.693   4.114 -1.1807  0.4197  0.7130
   52DOPE  C318 6705  -0.038   3.627   3.981 -0.1946  0.4905  0.0059
   52DOPE  H18X 6706  -0.074   3.703   3.908 -2.8928 -0.4936  0.1797
   52DOPE  H18Y 6707   0.057   3.656   4.030  1.4901 -3.2493 -0.7154
   52DOPE  H18Z 6708  -0.010   3.539   3.920  0.8456 -0.8718  2.2919
   53DOPE     N 6709   5.384   7.063   2.613  0.1365  0.3023  0.1912
   53DOPE   HN1 6710   5.363   7.160   2.583  3.3731  1.2044  0.3993
   53DOPE   HN2 6711   5.318   6.993   2.575  0.9146 -1.2223  1.4888
   53DOPE   HN3 6712   5.371   7.072   2.716 -1.0343  0.2416  0.0589
   53DOPE   C12 6713   5.519   7.003   2.579 -0.5060 -0.3262  0.3365
   53DOPE  H12A 6714   5.594   7.080   2.605 -0.1508 -1.0055  1.3534
   53DOPE  H12B 6715   5.522   6.981   2.470 -0.3277  0.3873  0.1897
   53DOPE   C11 6716   5.550   6.867   2.641 -0.3145  0.0258  0.0388
   53DOPE  H11A 6717   5.614   6.805   2.575 -3.9670 -1.8057 -2.0949
   53DOPE  H11B 6718   5.454   6.811   2.638  1.6461 -3.6161 -1.9602
   53DOPE     P 6719   5.643   6.768   2.860 -0.0488 -0.4329 -0.0790
   53DOPE   O13 6720   5.785   6.789   2.901  0.2365  0.4177 -0.3139
   53DOPE   O14 6721   5.614   6.643   2.790  0.4992 -0.3927 -0.0362
   53DOPE   O11 6722   5.549   6.784   2.994  0.0187 -0.3728  0.7451
   53DOPE   O12 6723   5.599   6.888   2.773 -0.2700 -0.0877 -0.1854
   53DOPE    C1 6724   5.521   6.920   3.023  0.0624 -0.6372 -0.4568
   53DOPE    HA 6725   5.448   6.928   3.106  0.3948  4.0674 -0.3227
   53DOPE    HB 6726   5.469   6.973   2.941  0.6253 -1.2859 -1.2492
   53DOPE    C2 6727   5.638   7.002   3.076  0.0303 -0.2725 -0.6276
   53DOPE    HS 6728   5.688   7.039   2.984  0.5413  0.7744  0.0577
   53DOPE   O21 6729   5.734   6.929   3.162 -0.2884 -0.2043  0.2607
   53DOPE   C21 6730   5.855   6.988   3.168 -0.0343 -0.2990 -0.2196
   53DOPE   O22 6731   5.887   7.084   3.099 -0.3810  0.6093  0.5515
   53DOPE   C22 6732   5.942   6.897   3.259 -0.4525 -0.3698 -0.3617
   53DOPE   H2R 6733   5.984   6.826   3.184 -2.8742 -1.7197 -0.5647
   53DOPE   H2S 6734   5.882   6.832   3.327  1.0979 -2.2630 -0.6918
   53DOPE    C3 6735   5.591   7.136   3.142  0.1348  0.5499  0.0228
   53DOPE    HX 6736   5.513   7.172   3.072 -2.2967 -1.5250  1.5104
   53DOPE    HY 6737   5.674   7.209   3.141  2.2466 -1.6971 -0.7329
   53DOPE   O31 6738   5.538   7.117   3.275 -0.0969 -0.0851 -0.1589
   53DOPE   C31 6739   5.455   7.206   3.326  0.0687 -0.2913 -0.1878
   53DOPE   O32 6740   5.433   7.321   3.284 -0.4497  0.2348  0.3951
   53DOPE   C32 6741   5.417   7.141   3.452  1.0915  0.5466 -0.5102
   53DOPE   H2X 6742   5.390   7.034   3.439  0.4479  0.6861 -0.3814
   53DOPE   H2Y 6743   5.500   7.146   3.526  0.7895 -0.5539 -0.0773
   53DOPE   C23 6744   6.047   6.976   3.344  0.9976 -0.6308 -0.2194
   53DOPE   H3R 6745   6.128   7.017   3.280  0.9731  0.4437  0.4151
   53DOPE   H3S 6746   6.104   6.910   3.413  0.1174 -0.3459  0.7995
   53DOPE   C24 6747   5.989   7.097   3.430 -0.6781  0.3313  0.5578
   53DOPE   H4R 6748   5.939   7.042   3.513  1.6544 -3.1965 -0.1766
   53DOPE   H4S 6749   5.924   7.166   3.371 -0.6214  2.0694  2.4217
   53DOPE   C25 6750   6.100   7.186   3.490  0.8971  0.1886  0.4172
   53DOPE   H5R 6751   6.062   7.291   3.484 -0.9804 -0.4958 -0.3321
   53DOPE   H5S 6752   6.194   7.170   3.433  1.1310  1.0026  0.5591
   53DOPE   C26 6753   6.136   7.150   3.637  0.3773  0.0681  0.0346
   53DOPE   H6R 6754   6.159   7.041   3.642  0.0508 -0.0349 -0.5936
   53DOPE   H6S 6755   6.046   7.176   3.697  1.2983  2.3584  0.5186
   53DOPE   C27 6756   6.257   7.223   3.690 -0.1821 -0.2074 -0.0572
   53DOPE   H7R 6757   6.271   7.330   3.663  0.4518  0.5045  2.7023
   53DOPE   H7S 6758   6.333   7.160   3.638 -1.3255 -1.5642 -0.1511
   53DOPE   C28 6759   6.280   7.213   3.847 -0.2896  0.0848 -0.3944
   53DOPE   H8R 6760   6.381   7.252   3.870 -0.2387 -0.0974 -0.3022
   53DOPE   H8S 6761   6.275   7.102   3.859 -0.3092  0.1166 -0.1059
   53DOPE   C29 6762   6.175   7.287   3.933  0.0520 -0.1075 -0.6506
   53DOPE   H9R 6763   6.072   7.274   3.896  0.2820 -1.0913 -0.9721
   53DOPE  C210 6764   6.189   7.370   4.038 -0.2971  0.3601  0.1658
   53DOPE  H10R 6765   6.102   7.421   4.082 -1.7786 -0.2456 -1.9081
   53DOPE  C211 6766   6.318   7.422   4.091 -0.1194 -0.7556 -0.4576
   53DOPE  H11R 6767   6.400   7.365   4.043  2.0043  1.6072  0.1216
   53DOPE  H11S 6768   6.328   7.395   4.199 -0.1306 -1.3731 -0.6054
   53DOPE  C212 6769   6.350   7.575   4.067  0.5815 -0.1846  0.1715
   53DOPE  H12R 6770   6.262   7.626   4.110 -1.1349 -2.2247 -0.7266
   53DOPE  H12S 6771   6.344   7.576   3.956  1.8359 -0.8106  0.0845
   53DOPE  C213 6772   6.478   7.618   4.142 -0.2949 -0.5193 -0.1363
   53DOPE  H13R 6773   6.575   7.599   4.093  1.0296  0.8146  1.8308
   53DOPE  H13S 6774   6.470   7.554   4.232 -1.1962 -1.1435 -0.6327
   53DOPE  C214 6775   6.473   7.763   4.186 -0.0686  0.4048  0.0014
   53DOPE  H14R 6776   6.391   7.777   4.260  1.1556  1.5033  1.1982
   53DOPE  H14S 6777   6.464   7.824   4.093  1.1276 -0.7654 -0.9178
   53DOPE  C215 6778   6.609   7.805   4.245 -0.6726 -0.4251 -0.2613
   53DOPE  H15R 6779   6.615   7.915   4.264  1.2618 -0.8899  2.3955
   53DOPE  H15S 6780   6.685   7.794   4.165 -1.0183  1.8608 -0.9969
   53DOPE  C216 6781   6.663   7.727   4.367 -0.1932  0.4182  0.2821
   53DOPE  H16R 6782   6.673   7.620   4.339 -0.2384  0.5961 -0.4391
   53DOPE  H16S 6783   6.597   7.712   4.455 -0.1900 -0.1614  0.1910
   53DOPE  C217 6784   6.797   7.771   4.423 -0.0656 -0.1325  0.4937
   53DOPE  H17R 6785   6.784   7.878   4.448  0.4040 -0.6676  3.3371
   53DOPE  H17S 6786   6.868   7.775   4.337 -1.7291  1.9781 -0.8712
   53DOPE  C218 6787   6.849   7.685   4.538 -0.6510 -0.1614 -0.1413
   53DOPE  H18R 6788   6.860   7.577   4.517 -1.2011 -0.5992  1.6361
   53DOPE  H18S 6789   6.768   7.694   4.613  0.8764 -1.2876  1.7259
   53DOPE  H18T 6790   6.944   7.727   4.578 -1.3748  1.0939  0.3340
   53DOPE   C33 6791   5.295   7.214   3.515  0.4440 -0.0392 -0.2316
   53DOPE   H3X 6792   5.226   7.259   3.441  0.7297 -1.0551 -1.1468
   53DOPE   H3Y 6793   5.332   7.292   3.585 -0.6702  0.8604 -0.6225
   53DOPE   C34 6794   5.210   7.122   3.608  0.4008 -0.1989 -0.1028
   53DOPE   H4X 6795   5.146   7.185   3.673  0.3771  1.4029 -1.5951
   53DOPE   H4Y 6796   5.151   7.044   3.554 -0.0688 -0.9305  1.4164
   53DOPE   C35 6797   5.289   7.032   3.703 -0.1398 -0.3838  0.3968
   53DOPE   H5X 6798   5.356   7.098   3.763 -0.2160  0.0475  0.0149
   53DOPE   H5Y 6799   5.354   6.967   3.641 -0.8599  0.4132 -1.2795
   53DOPE   C36 6800   5.203   6.948   3.795 -0.0849  0.4178 -0.4617
   53DOPE   H6X 6801   5.137   6.871   3.750 -1.1533 -0.0482  1.7680
   53DOPE   H6Y 6802   5.140   7.015   3.857  0.4759  0.6550 -0.1377
   53DOPE   C37 6803   5.295   6.875   3.895 -1.5737  0.2155 -0.4644
   53DOPE   H7X 6804   5.349   6.792   3.845  0.6061 -0.1769  2.3127
   53DOPE   H7Y 6805   5.363   6.953   3.935  1.2488 -2.2340 -0.1268
   53DOPE   C38 6806   5.228   6.792   4.011 -0.9492 -0.0117  0.5019
   53DOPE   H8X 6807   5.317   6.738   4.051  0.4196  0.6036 -1.5302
   53DOPE   H8Y 6808   5.160   6.714   3.971  0.4648 -0.4520 -1.1353
   53DOPE   C39 6809   5.162   6.875   4.114 -0.8806 -0.0816 -0.1914
   53DOPE   H9X 6810   5.112   6.966   4.079  0.7675  1.4774  1.3277
   53DOPE  C310 6811   5.193   6.888   4.244  0.0994 -0.3743 -0.2161
   53DOPE  H10X 6812   5.132   6.958   4.303  2.1753  0.0050  1.5666
   53DOPE  C311 6813   5.295   6.810   4.322  0.9964  0.7645 -0.0264
   53DOPE  H11X 6814   5.260   6.706   4.339  2.4111  0.3254  0.3785
   53DOPE  H11Y 6815   5.384   6.802   4.255  0.9109  1.1470 -0.1847
   53DOPE  C312 6816   5.325   6.869   4.463  0.2291  0.0297 -0.0261
   53DOPE  H12X 6817   5.354   6.975   4.478  1.5741 -0.2947 -0.2558
   53DOPE  H12Y 6818   5.406   6.809   4.509 -1.1570 -0.1234  2.3454
   53DOPE  C313 6819   5.213   6.835   4.558 -0.6724  0.5389  0.4973
   53DOPE  H13X 6820   5.174   6.934   4.591 -0.3019  1.4944 -1.7529
   53DOPE  H13Y 6821   5.136   6.773   4.507  0.4585 -0.2148 -0.3214
   53DOPE  C314 6822   5.262   6.757   4.679  0.2705  0.1846 -0.5531
   53DOPE  H14X 6823   5.338   6.820   4.730 -0.6675 -0.0824  1.2786
   53DOPE  H14Y 6824   5.317   6.664   4.654  1.1059  0.7722 -0.9480
   53DOPE  C315 6825   5.155   6.724   4.782 -0.4511 -0.9709  0.0199
   53DOPE  H15X 6826   5.080   6.805   4.795  2.0937  1.8501 -1.4925
   53DOPE  H15Y 6827   5.213   6.733   4.876 -1.5956  1.7337  0.5526
   53DOPE  C316 6828   5.086   6.587   4.769 -0.2126 -0.3202 -0.8228
   53DOPE  H16X 6829   5.167   6.510   4.767 -1.0277 -1.3017  0.9568
   53DOPE  H16Y 6830   5.028   6.589   4.674  0.6013 -1.3927 -1.3699
   53DOPE  C317 6831   5.014   6.560   4.902  0.0124  0.1785  0.4084
   53DOPE  H17X 6832   4.922   6.622   4.898  0.1428  0.3016 -1.5683
   53DOPE  H17Y 6833   4.979   6.455   4.910  2.8798 -0.7365  3.6732
   53DOPE  C318 6834   5.099   6.570   5.032 -0.0520 -0.3139  0.1268
   53DOPE  H18X 6835   5.114   6.675   5.066  2.9338 -0.8761  0.7981
   53DOPE  H18Y 6836   5.055   6.511   5.116  0.3024  0.6358  0.9959
   53DOPE  H18Z 6837   5.194   6.518   5.011  0.1628 -0.3470  1.1209
   54DOPE     N 6838   1.480   2.929   3.008 -0.3390  0.7368  0.5428
   54DOPE   HN1 6839   1.479   3.032   3.020  0.8463  1.0742 -1.7287
   54DOPE   HN2 6840   1.512   2.878   3.093  2.7657  1.4321 -0.0781
   54DOPE   HN3 6841   1.548   2.912   2.931 -0.7944 -0.2513  0.3462
   54DOPE   C12 6842   1.346   2.879   2.972  0.3393  0.0127 -0.2872
   54DOPE  H12A 6843   1.348   2.769   2.985 -2.4785 -0.2426 -1.2543
   54DOPE  H12B 6844   1.324   2.890   2.864 -2.6252 -1.6389  0.0359
   54DOPE   C11 6845   1.246   2.949   3.063 -0.0174 -0.4300  0.4307
   54DOPE  H11A 6846   1.259   2.919   3.169 -1.7676 -0.4243  0.6809
   54DOPE  H11B 6847   1.148   2.912   3.025 -0.0283 -0.0299  0.0508
   54DOPE     P 6848   1.325   3.194   3.118  0.0913 -0.0111  0.1456
   54DOPE   O13 6849   1.279   3.334   3.108 -0.1231  0.1161  0.1173
   54DOPE   O14 6850   1.464   3.185   3.059  0.6854 -0.1625 -0.4144
   54DOPE   O11 6851   1.328   3.151   3.268  0.8444  0.1040  0.2311
   54DOPE   O12 6852   1.228   3.090   3.043  0.1786  0.0324  0.1243
   54DOPE    C1 6853   1.237   3.194   3.375 -0.1239  0.4731  0.5865
   54DOPE    HA 6854   1.249   3.122   3.458  0.7344 -0.0181  0.0554
   54DOPE    HB 6855   1.133   3.188   3.338 -0.1408  0.2998  0.6636
   54DOPE    C2 6856   1.261   3.339   3.429  0.1261  0.1367 -0.5910
   54DOPE    HS 6857   1.278   3.415   3.348  1.1630  0.2587 -0.2791
   54DOPE   O21 6858   1.387   3.330   3.502 -0.0296 -0.5471 -0.5383
   54DOPE   C21 6859   1.439   3.446   3.522  0.2067  0.2634  0.4877
   54DOPE   O22 6860   1.405   3.554   3.479 -0.9094  0.4813  0.0891
   54DOPE   C22 6861   1.544   3.420   3.631  0.0269  0.2617 -0.0227
   54DOPE   H2R 6862   1.611   3.342   3.590 -1.0819 -0.0767 -1.2337
   54DOPE   H2S 6863   1.484   3.381   3.715  1.2233 -1.3067  0.1398
   54DOPE    C3 6864   1.142   3.367   3.518 -0.3431 -0.2308  0.6083
   54DOPE    HX 6865   1.132   3.276   3.581  1.6008 -1.5256 -0.8430
   54DOPE    HY 6866   1.060   3.370   3.444 -2.1742  0.9646  2.5741
   54DOPE   O31 6867   1.153   3.480   3.610 -0.0785  0.0782 -0.1550
   54DOPE   C31 6868   1.060   3.569   3.591 -0.1362 -0.2319 -0.4958
   54DOPE   O32 6869   0.970   3.573   3.510 -0.3779  0.0301 -0.1986
   54DOPE   C32 6870   1.099   3.693   3.679  0.4198 -0.6000  0.5123
   54DOPE   H2X 6871   1.200   3.721   3.642  0.8262 -0.8756  1.3768
   54DOPE   H2Y 6872   1.031   3.770   3.638  0.2024 -0.7052  0.6728
   54DOPE   C23 6873   1.620   3.547   3.668 -0.7756  0.6491 -0.5352
   54DOPE   H3R 6874   1.553   3.629   3.701 -1.5736  0.4271 -1.5225
   54DOPE   H3S 6875   1.647   3.592   3.570 -3.3871 -0.2987 -1.8102
   54DOPE   C24 6876   1.737   3.520   3.767 -0.2316  0.5944 -0.3934
   54DOPE   H4R 6877   1.704   3.451   3.848 -0.8600  1.4390  0.0863
   54DOPE   H4S 6878   1.762   3.615   3.818 -0.0930 -0.3318  1.3454
   54DOPE   C25 6879   1.859   3.470   3.694  0.0591  0.3106 -0.3194
   54DOPE   H5R 6880   1.864   3.513   3.592  3.0139  1.2328  0.1450
   54DOPE   H5S 6881   1.836   3.362   3.679 -1.3646  0.6361 -0.6628
   54DOPE   C26 6882   1.985   3.484   3.784 -0.5918 -0.2659  0.0131
   54DOPE   H6R 6883   1.975   3.435   3.884  1.3422 -2.1099 -0.6167
   54DOPE   H6S 6884   1.994   3.594   3.796 -1.5670 -0.1965  0.2427
   54DOPE   C27 6885   2.100   3.419   3.713 -0.7000  0.2276  0.2467
   54DOPE   H7R 6886   2.111   3.483   3.623  2.6123 -3.9418 -2.7272
   54DOPE   H7S 6887   2.079   3.314   3.684  0.8041  0.4283 -1.7443
   54DOPE   C28 6888   2.241   3.427   3.777  0.0756  0.1313  0.3552
   54DOPE   H8R 6889   2.258   3.537   3.786  0.4207 -0.0619  3.0416
   54DOPE   H8S 6890   2.317   3.386   3.707 -1.0867  0.9026 -1.4329
   54DOPE   C29 6891   2.247   3.361   3.913 -0.1959  0.0205 -0.3712
   54DOPE   H9R 6892   2.213   3.257   3.921 -2.3405  0.7761  0.8996
   54DOPE  C210 6893   2.289   3.422   4.027  0.5584  0.3543 -0.5668
   54DOPE  H10R 6894   2.293   3.359   4.117  0.3384  0.9574 -0.1303
   54DOPE  C211 6895   2.346   3.555   4.051 -0.8511 -0.2941  0.3453
   54DOPE  H11R 6896   2.302   3.636   3.989  0.2737 -1.3963 -2.0115
   54DOPE  H11S 6897   2.456   3.554   4.036 -0.7261  0.2050  1.1845
   54DOPE  C212 6898   2.316   3.598   4.195  0.1911 -0.3935  0.4707
   54DOPE  H12R 6899   2.325   3.513   4.265  0.9136 -0.0791  0.7729
   54DOPE  H12S 6900   2.209   3.626   4.200 -0.4598 -2.9029  2.1707
   54DOPE  C213 6901   2.390   3.723   4.243 -0.0337 -0.1573 -0.6580
   54DOPE  H13R 6902   2.368   3.806   4.173 -3.2324 -0.6603 -0.4180
   54DOPE  H13S 6903   2.496   3.690   4.243 -0.1547 -0.6351 -2.3943
   54DOPE  C214 6904   2.341   3.756   4.393 -0.3588 -0.0139  0.0906
   54DOPE  H14R 6905   2.374   3.675   4.461  0.6406  0.9238  0.7595
   54DOPE  H14S 6906   2.230   3.757   4.396 -0.4105 -1.9620  0.2453
   54DOPE  C215 6907   2.404   3.887   4.429  0.1964 -0.4547  0.6539
   54DOPE  H15R 6908   2.352   3.966   4.371  2.7224  1.6139  0.9977
   54DOPE  H15S 6909   2.511   3.875   4.401 -0.0214 -2.1879  0.4712
   54DOPE  C216 6910   2.404   3.913   4.580 -0.0232 -0.3497 -0.3310
   54DOPE  H16R 6911   2.422   3.818   4.634 -0.9046 -1.1227 -1.3591
   54DOPE  H16S 6912   2.301   3.936   4.618  0.6702 -1.1669  2.2882
   54DOPE  C217 6913   2.499   4.025   4.631  0.2503  0.3386  0.6473
   54DOPE  H17R 6914   2.477   4.117   4.573 -1.1725  0.1485  0.8497
   54DOPE  H17S 6915   2.603   3.996   4.605 -0.2806 -1.5618  0.5143
   54DOPE  C218 6916   2.500   4.041   4.779  0.0342  0.7456  0.7846
   54DOPE  H18R 6917   2.396   4.066   4.812  0.1832  0.3280  1.6068
   54DOPE  H18S 6918   2.567   4.120   4.821  1.0066  0.2045  0.2665
   54DOPE  H18T 6919   2.518   3.940   4.820 -0.4333 -1.2275 -3.4036
   54DOPE   C33 6920   1.093   3.691   3.833  1.2722  0.2810 -0.2068
   54DOPE   H3X 6921   0.987   3.682   3.867  1.7279 -0.8663  0.9863
   54DOPE   H3Y 6922   1.143   3.784   3.868 -2.1487  3.4792 -2.9419
   54DOPE   C34 6923   1.146   3.561   3.901  0.1431 -0.7604 -0.2248
   54DOPE   H4X 6924   1.115   3.558   4.008  2.3596  0.0677  0.5211
   54DOPE   H4Y 6925   1.094   3.472   3.861 -0.5981  0.3298 -1.7739
   54DOPE   C35 6926   1.298   3.559   3.898 -0.6292  0.6003 -0.0688
   54DOPE   H5X 6927   1.327   3.666   3.894 -2.1686  1.0242 -4.0009
   54DOPE   H5Y 6928   1.323   3.516   3.799  0.2599 -2.8890  1.4923
   54DOPE   C36 6929   1.372   3.484   4.012 -0.5672  0.0707  0.1097
   54DOPE   H6X 6930   1.483   3.484   4.005 -0.5948 -0.5089 -0.4108
   54DOPE   H6Y 6931   1.349   3.376   4.017 -1.7427  0.3680  3.5135
   54DOPE   C37 6932   1.341   3.526   4.153 -0.0149 -0.0340  0.5775
   54DOPE   H7X 6933   1.354   3.636   4.143  0.7181 -0.1982 -0.3334
   54DOPE   H7Y 6934   1.235   3.504   4.176  0.1847 -1.5180  0.1646
   54DOPE   C38 6935   1.446   3.492   4.262  0.1162 -0.0420  0.1579
   54DOPE   H8X 6936   1.438   3.564   4.346  1.4164 -0.0762  0.3362
   54DOPE   H8Y 6937   1.545   3.501   4.212  0.3816  1.1185  0.8529
   54DOPE   C39 6938   1.436   3.352   4.298 -0.1538 -0.1670 -0.3730
   54DOPE   H9X 6939   1.380   3.283   4.232  0.6419 -0.9660 -0.2330
   54DOPE  C310 6940   1.479   3.291   4.406 -0.4207  0.1431  0.0702
   54DOPE  H10X 6941   1.483   3.182   4.415 -1.1943  0.0490 -0.6754
   54DOPE  C311 6942   1.551   3.361   4.515  0.5531 -0.3205 -0.1559
   54DOPE  H11X 6943   1.658   3.332   4.511  0.0896 -2.2766  0.4485
   54DOPE  H11Y 6944   1.550   3.472   4.520 -1.7544 -0.3242  1.0419
   54DOPE  C312 6945   1.518   3.322   4.659 -0.2771 -0.1072  0.6424
   54DOPE  H12X 6946   1.538   3.213   4.668 -0.3177 -0.0942  0.8879
   54DOPE  H12Y 6947   1.407   3.317   4.668 -0.3486  1.4372  0.7421
   54DOPE  C313 6948   1.572   3.419   4.768  0.1578 -0.1335  0.7580
   54DOPE  H13X 6949   1.682   3.401   4.759  0.0350  0.0510 -1.8372
   54DOPE  H13Y 6950   1.547   3.525   4.749 -0.2740 -0.1446  1.2607
   54DOPE  C314 6951   1.520   3.393   4.915  0.5133  0.4189 -0.8563
   54DOPE  H14X 6952   1.577   3.458   4.983  0.5344  0.3239 -0.7833
   54DOPE  H14Y 6953   1.545   3.288   4.941  2.4223  0.6158 -1.7352
   54DOPE  C315 6954   1.375   3.432   4.932  0.1932  0.6815  0.0912
   54DOPE  H15X 6955   1.328   3.386   4.842  0.4543  0.7521 -0.0840
   54DOPE  H15Y 6956   1.365   3.542   4.916  1.5631  0.8108 -0.0022
   54DOPE  C316 6957   1.329   3.379   5.067  0.2346 -0.0707  0.7434
   54DOPE  H16X 6958   1.379   3.419   5.158  1.1869  0.5542 -0.0306
   54DOPE  H16Y 6959   1.349   3.270   5.072  2.4328  0.1934 -0.7075
   54DOPE  C317 6960   1.181   3.407   5.081  0.4187  0.1979  0.1837
   54DOPE  H17X 6961   1.126   3.355   5.000 -0.0317 -0.3637  0.8384
   54DOPE  H17Y 6962   1.150   3.366   5.179 -0.5995  1.7485  0.5499
   54DOPE  C318 6963   1.125   3.558   5.086 -0.4051 -0.8227  0.2445
   54DOPE  H18X 6964   1.017   3.554   5.114  0.2744 -1.2619  3.2031
   54DOPE  H18Y 6965   1.187   3.610   5.163 -0.1648 -0.3230 -0.2812
   54DOPE  H18Z 6966   1.141   3.603   4.986 -1.1786 -1.6487 -0.2629
   55DOPE     N 6967   6.951   6.197   2.993 -0.0455 -0.4086 -0.8325
   55DOPE   HN1 6968   6.897   6.120   2.949 -1.6618 -1.2554  2.3261
   55DOPE   HN2 6969   6.941   6.180   3.095  0.0563 -4.2951 -1.3045
   55DOPE   HN3 6970   6.908   6.288   2.967 -0.0733 -1.2163 -4.0257
   55DOPE   C12 6971   7.094   6.189   2.956  0.3986  0.1970  0.0819
   55DOPE  H12A 6972   7.113   6.264   2.876  1.2152  0.0964  0.1651
   55DOPE  H12B 6973   7.105   6.092   2.902 -0.9699  1.6579 -3.0853
   55DOPE   C11 6974   7.189   6.209   3.073 -0.2624  0.6296  0.3878
   55DOPE  H11A 6975   7.166   6.302   3.130 -0.3078 -0.0790  1.5527
   55DOPE  H11B 6976   7.290   6.224   3.030  1.2862  2.1126  4.0394
   55DOPE     P 6977   7.147   6.067   3.290 -0.3712 -0.0147 -0.4082
   55DOPE   O13 6978   7.201   5.935   3.339 -0.1245 -0.1813  0.5880
   55DOPE   O14 6979   7.001   6.080   3.271  0.1337 -0.6982 -0.2727
   55DOPE   O11 6980   7.197   6.190   3.369  0.3025  0.5967  0.0811
   55DOPE   O12 6981   7.206   6.089   3.145 -0.0541 -0.6265 -0.2411
   55DOPE    C1 6982   7.331   6.212   3.415  0.4430  0.0397  0.6580
   55DOPE    HA 6983   7.371   6.309   3.376 -1.8832  0.2862 -1.3188
   55DOPE    HB 6984   7.400   6.132   3.380  1.3062  0.8205  0.5105
   55DOPE    C2 6985   7.344   6.218   3.566  0.5120 -0.3434 -0.4998
   55DOPE    HS 6986   7.452   6.220   3.591  0.6017  0.9091 -0.9359
   55DOPE   O21 6987   7.271   6.115   3.629  0.0066 -0.1083  0.3060
   55DOPE   C21 6988   7.321   5.997   3.641  0.7933 -0.2521  0.4326
   55DOPE   O22 6989   7.429   5.965   3.588 -0.3049  0.2112 -0.1457
   55DOPE   C22 6990   7.229   5.917   3.729 -0.1208 -0.6910 -0.4320
   55DOPE   H2R 6991   7.237   5.808   3.707  0.6356 -0.5697 -0.7936
   55DOPE   H2S 6992   7.126   5.938   3.695 -1.1319 -1.0142  2.2297
   55DOPE    C3 6993   7.282   6.354   3.622 -0.2002  0.3310  0.9751
   55DOPE    HX 6994   7.171   6.358   3.614 -0.4976 -1.3658  3.1201
   55DOPE    HY 6995   7.336   6.434   3.568  1.2117 -0.9475  0.4057
   55DOPE   O31 6996   7.329   6.376   3.755  0.1875  0.7527 -0.1365
   55DOPE   C31 6997   7.245   6.333   3.845  0.5740  0.4945 -0.0328
   55DOPE   O32 6998   7.131   6.292   3.823  0.1905 -0.0063 -0.3414
   55DOPE   C32 6999   7.284   6.380   3.984  0.3103  0.2611 -0.2745
   55DOPE   H2X 7000   7.395   6.378   3.999  0.1683 -1.0320  0.7673
   55DOPE   H2Y 7001   7.243   6.483   3.985  0.2259  0.2336 -0.8436
   55DOPE   C23 7002   7.240   5.957   3.881  0.1217 -0.6552 -0.1787
   55DOPE   H3R 7003   7.150   5.915   3.932  0.7747 -0.9149  0.7820
   55DOPE   H3S 7004   7.241   6.067   3.893 -2.4778 -0.5480 -0.2923
   55DOPE   C24 7005   7.375   5.900   3.942 -0.3006 -0.0499  0.4692
   55DOPE   H4R 7006   7.453   5.925   3.867 -0.6302 -1.6725 -0.4460
   55DOPE   H4S 7007   7.361   5.790   3.931  1.4762 -0.3199  0.5563
   55DOPE   C25 7008   7.412   5.936   4.083  0.2042 -1.2707 -0.5481
   55DOPE   H5R 7009   7.466   6.033   4.093  0.1216 -1.1979 -0.8111
   55DOPE   H5S 7010   7.491   5.872   4.127  1.5025  1.0290  0.6146
   55DOPE   C26 7011   7.300   5.945   4.188  0.4793 -0.4848  0.6079
   55DOPE   H6R 7012   7.258   5.844   4.205 -2.1908  0.2247 -1.1355
   55DOPE   H6S 7013   7.220   6.013   4.149  0.0209 -1.4354 -0.1592
   55DOPE   C27 7014   7.363   5.993   4.319 -0.0171  0.8307  0.1870
   55DOPE   H7R 7015   7.414   6.092   4.322  0.2831  0.7023 -0.5625
   55DOPE   H7S 7016   7.440   5.918   4.346 -1.3577 -0.4224  0.6830
   55DOPE   C28 7017   7.265   5.979   4.441 -0.5551  0.5158 -0.2223
   55DOPE   H8R 7018   7.319   5.993   4.537 -0.7480  0.6910 -0.1374
   55DOPE   H8S 7019   7.228   5.875   4.437  1.4686 -0.2057 -2.1466
   55DOPE   C29 7020   7.153   6.078   4.441 -0.0024 -0.2535 -0.4581
   55DOPE   H9R 7021   7.186   6.181   4.463  1.1848 -0.6102 -0.5138
   55DOPE  C210 7022   7.022   6.051   4.421 -0.1663  0.1670 -0.6701
   55DOPE  H10R 7023   6.945   6.129   4.431 -0.4012 -0.1719  0.3357
   55DOPE  C211 7024   6.960   5.920   4.394  0.9402 -0.5179 -0.4536
   55DOPE  H11R 7025   6.968   5.858   4.486  1.6758  0.6899  0.3309
   55DOPE  H11S 7026   7.019   5.872   4.314 -1.4142 -0.2787 -2.4360
   55DOPE  C212 7027   6.818   5.940   4.338 -0.1333 -0.4995 -0.5007
   55DOPE  H12R 7028   6.751   5.959   4.424  1.5258  0.5714  0.6072
   55DOPE  H12S 7029   6.787   5.841   4.299  0.0432 -0.4364 -0.8006
   55DOPE  C213 7030   6.793   6.039   4.222  0.2587 -0.0479 -0.2646
   55DOPE  H13R 7031   6.803   6.143   4.260 -0.4625 -0.2838  0.6022
   55DOPE  H13S 7032   6.691   6.014   4.187 -0.1952  1.1470  0.1500
   55DOPE  C214 7033   6.897   6.004   4.122  0.0301  0.0898  0.3419
   55DOPE  H14R 7034   6.901   5.897   4.091 -1.1679  0.0628  0.2322
   55DOPE  H14S 7035   6.995   6.039   4.159 -0.1386  0.2944  0.5984
   55DOPE  C215 7036   6.884   6.091   3.988 -0.9262 -0.0319 -0.6902
   55DOPE  H15R 7037   6.942   6.040   3.909  0.2148 -0.2210  0.2421
   55DOPE  H15S 7038   6.939   6.186   4.003  0.2712 -0.7944 -0.1710
   55DOPE  C216 7039   6.746   6.110   3.936 -0.6087 -0.3383  0.0991
   55DOPE  H16R 7040   6.749   6.181   3.852 -2.7860  0.3832  0.5566
   55DOPE  H16S 7041   6.678   6.155   4.012 -1.9933 -1.2293 -0.5764
   55DOPE  C217 7042   6.675   5.976   3.889  0.1841  0.1379  0.2062
   55DOPE  H17R 7043   6.695   5.912   3.978 -0.5434  2.1293  1.8944
   55DOPE  H17S 7044   6.730   5.930   3.805 -1.6045 -3.2442  0.7454
   55DOPE  C218 7045   6.528   5.996   3.857  0.0760 -0.0082  0.9653
   55DOPE  H18R 7046   6.522   6.036   3.754  3.5306 -1.2642  0.1359
   55DOPE  H18S 7047   6.469   6.060   3.926 -0.6808 -1.0528  1.3136
   55DOPE  H18T 7048   6.477   5.897   3.853 -0.6286  0.3546  0.6738
   55DOPE   C33 7049   7.212   6.317   4.107  0.1745 -0.5826 -0.0670
   55DOPE   H3X 7050   7.246   6.212   4.109  0.5680 -0.5369 -2.1707
   55DOPE   H3Y 7051   7.103   6.325   4.084 -0.0448  1.1841  1.3405
   55DOPE   C34 7052   7.241   6.390   4.240 -0.0130  0.1175  0.4202
   55DOPE   H4X 7053   7.314   6.335   4.302  1.2582  1.3141  0.0297
   55DOPE   H4Y 7054   7.287   6.486   4.209 -0.5802  0.6591  1.2125
   55DOPE   C35 7055   7.114   6.419   4.322 -0.1517 -0.4091  0.2976
   55DOPE   H5X 7056   7.067   6.328   4.364 -0.1475 -0.8566 -0.6382
   55DOPE   H5Y 7057   7.041   6.477   4.261 -1.2170  0.5255  2.3581
   55DOPE   C36 7058   7.155   6.492   4.455  0.6831  0.0326  0.3248
   55DOPE   H6X 7059   7.159   6.595   4.415  1.1460 -0.3404 -0.6168
   55DOPE   H6Y 7060   7.256   6.463   4.490  0.0730 -1.5722  0.8866
   55DOPE   C37 7061   7.046   6.485   4.569 -0.9382 -0.5215  0.0972
   55DOPE   H7X 7062   6.948   6.527   4.538 -0.9833 -0.1090  0.7935
   55DOPE   H7Y 7063   7.013   6.384   4.600 -0.5779  0.0856  2.6543
   55DOPE   C38 7064   7.083   6.566   4.699 -0.3071  0.1903 -0.7185
   55DOPE   H8X 7065   7.089   6.670   4.661  0.4415  0.3214 -0.2687
   55DOPE   H8Y 7066   7.187   6.541   4.731 -0.2585  0.3847 -0.7219
   55DOPE   C39 7067   6.976   6.580   4.799 -0.1133 -0.6527  0.0614
   55DOPE   H9X 7068   6.887   6.631   4.762 -0.5390  0.3647  2.3043
   55DOPE  C310 7069   6.972   6.521   4.921  0.1553  0.2965  0.2741
   55DOPE  H10X 7070   6.887   6.535   4.990 -0.5345  0.2766 -0.5578
   55DOPE  C311 7071   7.069   6.433   4.982  0.1031 -0.1217  0.2068
   55DOPE  H11X 7072   7.158   6.426   4.915 -0.7862 -4.3478 -0.8801
   55DOPE  H11Y 7073   7.095   6.477   5.080  1.0038 -0.7879  0.2831
   55DOPE  C312 7074   7.004   6.293   5.007  0.3622  0.1304  0.8660
   55DOPE  H12X 7075   6.903   6.305   5.052 -0.0797  2.7997 -0.6420
   55DOPE  H12Y 7076   7.067   6.228   5.072  0.7305  0.6940  1.0820
   55DOPE  C313 7077   6.972   6.208   4.876  0.0917  0.1484 -0.3840
   55DOPE  H13X 7078   6.930   6.281   4.804 -0.9045 -0.1478 -0.1255
   55DOPE  H13Y 7079   7.063   6.164   4.830 -1.6717 -1.9477 -2.1258
   55DOPE  C314 7080   6.865   6.097   4.893  0.1415  0.4009 -0.6192
   55DOPE  H14X 7081   6.763   6.139   4.882 -0.7720 -1.2956  0.9429
   55DOPE  H14Y 7082   6.881   6.049   4.992 -3.3034  2.8212  1.2997
   55DOPE  C315 7083   6.874   5.985   4.783  0.1146  0.2356 -0.1534
   55DOPE  H15X 7084   6.966   5.924   4.796 -0.7021 -0.9543  0.2322
   55DOPE  H15Y 7085   6.890   6.031   4.683 -0.9790 -1.4209 -1.1348
   55DOPE  C316 7086   6.741   5.904   4.773  0.5479  0.4251  0.5680
   55DOPE  H16X 7087   6.745   5.855   4.673  0.7387  1.7103 -0.0675
   55DOPE  H16Y 7088   6.658   5.977   4.771  1.7675  1.8464  0.4086
   55DOPE  C317 7089   6.719   5.802   4.891 -0.6289 -0.4348 -0.9307
   55DOPE  H17X 7090   6.794   5.721   4.881 -0.6337 -0.5422 -0.1987
   55DOPE  H17Y 7091   6.753   5.847   4.987 -1.9650  0.2536 -0.7481
   55DOPE  C318 7092   6.584   5.743   4.903  0.3807 -0.0494 -0.0596
   55DOPE  H18X 7093   6.566   5.671   4.986  0.7781 -0.7128 -0.5341
   55DOPE  H18Y 7094   6.513   5.827   4.917  1.1371  0.7494 -0.8370
   55DOPE  H18Z 7095   6.572   5.685   4.809  0.9718 -1.1575  0.5217
   56DOPE     N 7096   0.499   6.792   3.213  0.0884  0.0384 -0.1628
   56DOPE   HN1 7097   0.517   6.692   3.193 -0.6172 -0.5254  1.8151
   56DOPE   HN2 7098   0.402   6.791   3.250  0.1118 -2.3543 -0.0428
   56DOPE   HN3 7099   0.507   6.854   3.129  1.0560  0.3032  0.1126
   56DOPE   C12 7100   0.599   6.854   3.305 -0.3764 -0.3602  0.2190
   56DOPE  H12A 7101   0.551   6.933   3.367  0.8642 -1.2189  2.4020
   56DOPE  H12B 7102   0.678   6.895   3.239 -0.4650  1.4806  1.1864
   56DOPE   C11 7103   0.664   6.749   3.393  0.2767  0.3790  0.0497
   56DOPE  H11A 7104   0.583   6.730   3.468  0.3758  0.2471  0.1241
   56DOPE  H11B 7105   0.741   6.795   3.458 -0.1675  0.0197  0.8521
   56DOPE     P 7106   0.853   6.597   3.300  0.2769 -0.1018  0.2627
   56DOPE   O13 7107   0.910   6.694   3.204  0.5889  0.0190  0.4808
   56DOPE   O14 7108   0.851   6.452   3.260 -0.6590  0.1854 -0.2483
   56DOPE   O11 7109   0.921   6.621   3.430  0.1546  0.2349  0.3040
   56DOPE   O12 7110   0.705   6.634   3.327  0.3014  0.5590  0.2768
   56DOPE    C1 7111   0.963   6.521   3.516 -0.0311  0.9685 -0.1964
   56DOPE    HA 7112   1.023   6.550   3.605  0.7690 -0.7211 -0.1510
   56DOPE    HB 7113   1.008   6.433   3.465  0.6571  1.0566  0.2387
   56DOPE    C2 7114   0.842   6.468   3.599 -0.1576  1.1773  0.1677
   56DOPE    HS 7115   0.803   6.379   3.544 -0.8212  0.5041  1.6904
   56DOPE   O21 7116   0.745   6.574   3.632 -0.2509  0.1975  0.0466
   56DOPE   C21 7117   0.625   6.527   3.649 -0.1007  0.0826 -1.0819
   56DOPE   O22 7118   0.581   6.425   3.600 -0.0708  0.8175 -0.1198
   56DOPE   C22 7119   0.551   6.627   3.744  0.3016 -0.4771  0.1128
   56DOPE   H2R 7120   0.462   6.656   3.685 -0.0008 -2.8352 -0.6903
   56DOPE   H2S 7121   0.615   6.717   3.747 -0.1852 -0.1231  0.0260
   56DOPE    C3 7122   0.885   6.404   3.735 -0.1795 -0.3218 -0.1161
   56DOPE    HX 7123   0.908   6.493   3.797  0.4371 -0.6802  0.1833
   56DOPE    HY 7124   0.981   6.348   3.728  0.0663  0.0355  0.3580
   56DOPE   O31 7125   0.784   6.330   3.801  0.2068  0.3110 -0.1135
   56DOPE   C31 7126   0.771   6.200   3.759  0.0228  0.0187 -1.3715
   56DOPE   O32 7127   0.844   6.142   3.679 -0.0969  0.4211 -0.6152
   56DOPE   C32 7128   0.647   6.142   3.834 -0.1933 -0.4293  0.3010
   56DOPE   H2X 7129   0.634   6.190   3.934 -0.9607  1.3562 -0.6080
   56DOPE   H2Y 7130   0.555   6.168   3.777  0.3649 -0.2276 -0.5222
   56DOPE   C23 7131   0.536   6.586   3.890 -0.1679  0.0588 -0.5416
   56DOPE   H3R 7132   0.501   6.681   3.937  0.3226 -0.7681  1.5975
   56DOPE   H3S 7133   0.635   6.569   3.937 -0.0703  2.0976  0.0862
   56DOPE   C24 7134   0.432   6.479   3.922  0.1279  0.2833  0.2981
   56DOPE   H4R 7135   0.453   6.384   3.869 -1.0849  0.0477  0.1937
   56DOPE   H4S 7136   0.332   6.494   3.875  0.0041 -1.4351 -0.0573
   56DOPE   C25 7137   0.433   6.454   4.071  0.3526 -0.9415 -0.1136
   56DOPE   H5R 7138   0.534   6.418   4.102  0.3202 -0.3904  0.6756
   56DOPE   H5S 7139   0.365   6.373   4.106  0.1486 -0.5828  0.3393
   56DOPE   C26 7140   0.400   6.577   4.156 -0.1441 -0.2398 -0.6491
   56DOPE   H6R 7141   0.296   6.616   4.141 -0.1058  0.6232  1.1017
   56DOPE   H6S 7142   0.478   6.655   4.144 -0.8061  0.6678  0.6900
   56DOPE   C27 7143   0.398   6.543   4.307  0.5094  0.1305  0.1946
   56DOPE   H7R 7144   0.502   6.521   4.340  0.0600 -3.7707 -0.5122
   56DOPE   H7S 7145   0.330   6.456   4.321  0.7478 -0.1282 -0.2356
   56DOPE   C28 7146   0.340   6.655   4.408 -0.3732  1.0043 -0.2512
   56DOPE   H8R 7147   0.234   6.670   4.379 -0.8873 -2.3090 -0.5107
   56DOPE   H8S 7148   0.396   6.749   4.389 -0.4761  0.8665 -1.3052
   56DOPE   C29 7149   0.329   6.621   4.560  0.2817 -0.3791  0.8178
   56DOPE   H9R 7150   0.228   6.584   4.582  0.1394 -0.2211  0.4339
   56DOPE  C210 7151   0.408   6.666   4.660  0.2128  0.6970  0.0814
   56DOPE  H10R 7152   0.382   6.637   4.762 -2.0475  2.0482 -0.0200
   56DOPE  C211 7153   0.542   6.737   4.650 -0.2865  0.2310 -0.4660
   56DOPE  H11R 7154   0.562   6.799   4.741 -2.8212  0.2606  0.1343
   56DOPE  H11S 7155   0.563   6.806   4.565  1.5743 -0.5190 -0.6744
   56DOPE  C212 7156   0.665   6.637   4.646  0.0536  0.8848  0.3904
   56DOPE  H12R 7157   0.654   6.583   4.550  0.2300 -0.6536  1.2033
   56DOPE  H12S 7158   0.644   6.571   4.734 -3.2399  0.3063 -0.6920
   56DOPE  C213 7159   0.798   6.708   4.652 -0.4708  0.6831 -0.3969
   56DOPE  H13R 7160   0.787   6.764   4.747 -1.5809 -1.1318  0.6085
   56DOPE  H13S 7161   0.804   6.788   4.575  2.4696  2.1189  1.1747
   56DOPE  C214 7162   0.918   6.617   4.639 -0.1796 -0.2837 -0.1272
   56DOPE  H14R 7163   0.933   6.606   4.530 -1.2470  1.1068 -0.4372
   56DOPE  H14S 7164   0.900   6.516   4.684 -0.0586  1.0234  3.1291
   56DOPE  C215 7165   1.049   6.674   4.693 -0.3532  0.1359  0.0248
   56DOPE  H15R 7166   1.042   6.682   4.804 -0.3712  1.2228 -0.0454
   56DOPE  H15S 7167   1.056   6.780   4.660  3.0779  0.0593  0.1184
   56DOPE  C216 7168   1.167   6.586   4.651  0.4650 -0.1215  0.4254
   56DOPE  H16R 7169   1.173   6.589   4.540 -0.5248  0.9538  0.3856
   56DOPE  H16S 7170   1.143   6.482   4.683  0.8353 -0.7404 -1.1913
   56DOPE  C217 7171   1.291   6.637   4.713  0.8183  0.3640 -0.4228
   56DOPE  H17R 7172   1.291   6.602   4.819 -1.5524  3.8358  0.9243
   56DOPE  H17S 7173   1.290   6.748   4.715 -0.7531  0.3962 -1.3876
   56DOPE  C218 7174   1.414   6.607   4.631 -0.5516  0.4333 -0.2794
   56DOPE  H18R 7175   1.411   6.496   4.626  1.3892  0.3342  0.0171
   56DOPE  H18S 7176   1.511   6.640   4.674 -1.0297  0.7562  0.5580
   56DOPE  H18T 7177   1.412   6.666   4.536  0.6416  0.6632 -0.1773
   56DOPE   C33 7178   0.648   5.986   3.848  0.2817 -0.0933  0.4204
   56DOPE   H3X 7179   0.651   5.938   3.748  2.7591  1.3094 -0.2707
   56DOPE   H3Y 7180   0.548   5.970   3.894  0.2290  0.7472  0.6195
   56DOPE   C34 7181   0.752   5.924   3.935 -0.0307 -0.2783  0.0878
   56DOPE   H4X 7182   0.850   5.957   3.895  0.3726 -1.2223  0.2527
   56DOPE   H4Y 7183   0.744   5.969   4.036 -0.5945 -1.7909  0.7624
   56DOPE   C35 7184   0.757   5.772   3.933 -0.4047  0.1867  0.4157
   56DOPE   H5X 7185   0.732   5.748   3.828 -0.2592 -1.4259  0.7229
   56DOPE   H5Y 7186   0.684   5.731   4.006  1.8804 -2.7345  1.2882
   56DOPE   C36 7187   0.905   5.725   3.946 -0.1869 -0.8012  0.1721
   56DOPE   H6X 7188   0.961   5.786   3.872 -1.4479 -1.4229 -1.3640
   56DOPE   H6Y 7189   0.924   5.621   3.913  1.8147 -0.9015  1.4672
   56DOPE   C37 7190   0.963   5.729   4.093 -0.4110  0.1382 -0.2143
   56DOPE   H7X 7191   1.072   5.707   4.087 -0.3984 -0.0606  0.6096
   56DOPE   H7Y 7192   0.951   5.827   4.144 -1.1101  0.0913 -0.2792
   56DOPE   C38 7193   0.908   5.625   4.193 -0.1010 -0.0355  0.8429
   56DOPE   H8X 7194   0.952   5.526   4.169  1.2497  1.5180 -4.5475
   56DOPE   H8Y 7195   0.799   5.616   4.171 -0.0786  2.0874 -0.4563
   56DOPE   C39 7196   0.943   5.656   4.336 -0.1455 -0.4231 -0.1386
   56DOPE   H9X 7197   1.050   5.644   4.359 -0.1940 -0.5206  0.0385
   56DOPE  C310 7198   0.857   5.707   4.427 -0.5842  1.1126 -0.0549
   56DOPE  H10X 7199   0.889   5.716   4.532  2.7623  1.6054 -0.9942
   56DOPE  C311 7200   0.713   5.724   4.406  0.1529 -0.3722  0.2445
   56DOPE  H11X 7201   0.678   5.806   4.472  0.3710 -1.2134  1.4419
   56DOPE  H11Y 7202   0.683   5.743   4.301 -0.0137 -2.0210 -0.0346
   56DOPE  C312 7203   0.639   5.599   4.455  0.4497 -0.1719  0.2156
   56DOPE  H12X 7204   0.642   5.605   4.566  3.4982  1.5916  0.1310
   56DOPE  H12Y 7205   0.687   5.501   4.433  0.4946  0.2820 -1.9276
   56DOPE  C313 7206   0.491   5.592   4.424 -0.0540  1.0939 -0.7478
   56DOPE  H13X 7207   0.448   5.691   4.452 -2.3022  0.1598 -0.7690
   56DOPE  H13Y 7208   0.468   5.578   4.317 -0.6033  0.6003 -0.5665
   56DOPE  C314 7209   0.413   5.490   4.508 -0.1517  0.3362 -0.4251
   56DOPE  H14X 7210   0.311   5.490   4.466  0.4562  0.4449 -1.9566
   56DOPE  H14Y 7211   0.392   5.537   4.606 -0.2336 -2.1777  0.8598
   56DOPE  C315 7212   0.469   5.352   4.529 -0.2803  0.1565 -0.6453
   56DOPE  H15X 7213   0.562   5.369   4.587 -0.5614 -0.8593  0.1424
   56DOPE  H15Y 7214   0.490   5.309   4.429 -1.3431 -0.2130 -0.7276
   56DOPE  C316 7215   0.393   5.271   4.632  0.1949 -0.1899 -0.5054
   56DOPE  H16X 7216   0.431   5.168   4.619  0.3352  0.2039 -4.1590
   56DOPE  H16Y 7217   0.286   5.264   4.606  0.3155  0.4979 -1.2118
   56DOPE  C317 7218   0.420   5.311   4.780  0.1589  0.4527 -0.8624
   56DOPE  H17X 7219   0.529   5.323   4.797  0.0431  0.6750 -0.2104
   56DOPE  H17Y 7220   0.376   5.411   4.800  0.9335  0.7876 -0.7687
   56DOPE  C318 7221   0.368   5.204   4.877 -0.4165 -0.4648 -0.0916
   56DOPE  H18X 7222   0.262   5.177   4.858 -0.9391  1.4602 -0.1375
   56DOPE  H18Y 7223   0.434   5.114   4.876  1.7474  0.9997 -2.5674
   56DOPE  H18Z 7224   0.357   5.256   4.975  1.1077 -0.9264  0.3671
   57DOPE     N 7225   0.085   2.221   3.143 -0.2703  0.4082 -1.3668
   57DOPE   HN1 7226   0.081   2.269   3.235  0.5904  0.3827 -1.3071
   57DOPE   HN2 7227   0.188   2.210   3.139 -0.4390 -2.0306 -0.3680
   57DOPE   HN3 7228   0.033   2.273   3.070 -2.2260 -0.0459 -0.3690
   57DOPE   C12 7229   0.014   2.086   3.140 -0.6757  0.3055 -0.3559
   57DOPE  H12A 7230   0.049   2.035   3.048 -0.7569 -0.1531 -0.1379
   57DOPE  H12B 7231  -0.096   2.101   3.141 -0.9118 -1.0920 -1.7294
   57DOPE   C11 7232   0.051   2.003   3.259  0.0397 -0.1925 -0.1827
   57DOPE  H11A 7233   0.011   1.900   3.246 -0.5659  0.0476 -0.2697
   57DOPE  H11B 7234   0.007   2.052   3.349 -0.8931 -0.5544 -0.4299
   57DOPE     P 7235   0.272   1.956   3.392 -0.1100  0.0966  0.1520
   57DOPE   O13 7236   0.400   2.027   3.394 -0.0637 -0.0634 -0.4142
   57DOPE   O14 7237   0.281   1.806   3.384  0.2736 -0.4550 -0.4807
   57DOPE   O11 7238   0.185   1.994   3.517 -0.3432  0.0413  0.7967
   57DOPE   O12 7239   0.194   2.000   3.258  0.0598  0.5298 -0.1005
   57DOPE    C1 7240   0.156   2.131   3.557 -0.3257  0.0188  0.5107
   57DOPE    HA 7241   0.046   2.131   3.572 -0.4746 -3.2504  0.1167
   57DOPE    HB 7242   0.171   2.202   3.473 -2.4022  0.8138  0.7590
   57DOPE    C2 7243   0.242   2.161   3.688 -0.0694  0.4266  0.3043
   57DOPE    HS 7244   0.346   2.168   3.650 -0.0716 -2.1885 -0.3179
   57DOPE   O21 7245   0.219   2.059   3.787  0.0363  0.3386  0.4616
   57DOPE   C21 7246   0.319   1.979   3.803  0.2872  0.0491  0.5321
   57DOPE   O22 7247   0.426   1.979   3.744 -0.4325 -0.1351  0.2002
   57DOPE   C22 7248   0.278   1.883   3.910  0.2064 -0.3111  0.6075
   57DOPE   H2R 7249   0.229   1.792   3.869 -0.5332  0.7017 -0.8646
   57DOPE   H2S 7250   0.208   1.933   3.981  0.0557 -0.3259  0.4699
   57DOPE    C3 7251   0.202   2.302   3.741  0.4590  0.4772  0.3113
   57DOPE    HX 7252   0.109   2.292   3.799 -0.0153 -1.9376 -0.7506
   57DOPE    HY 7253   0.181   2.356   3.646 -1.4510  0.2560  0.5645
   57DOPE   O31 7254   0.311   2.374   3.807 -0.3468  0.3840  0.4033
   57DOPE   C31 7255   0.328   2.343   3.930 -0.1810  0.4417 -0.3896
   57DOPE   O32 7256   0.251   2.274   3.991  0.4614  0.4353  0.0399
   57DOPE   C32 7257   0.463   2.399   3.980  0.1965 -0.0099 -0.4327
   57DOPE   H2X 7258   0.549   2.388   3.911 -1.8928 -2.5343 -2.8983
   57DOPE   H2Y 7259   0.442   2.508   3.980  2.5292  0.5282 -2.9440
   57DOPE   C23 7260   0.406   1.854   3.992  0.2489 -0.0901  0.2748
   57DOPE   H3R 7261   0.473   1.942   4.007  0.7527  0.3244 -3.3848
   57DOPE   H3S 7262   0.476   1.782   3.943  2.3657  0.1963  2.6432
   57DOPE   C24 7263   0.371   1.791   4.133  0.0778  0.2503 -0.1915
   57DOPE   H4R 7264   0.465   1.742   4.167 -0.4261 -0.3371  0.3690
   57DOPE   H4S 7265   0.296   1.712   4.112  1.4128 -1.2974  0.6692
   57DOPE   C25 7266   0.314   1.885   4.243  0.6382  0.9741 -0.6548
   57DOPE   H5R 7267   0.224   1.935   4.202 -1.0234 -0.0609  1.5363
   57DOPE   H5S 7268   0.387   1.962   4.276  0.1647  0.8858  0.6507
   57DOPE   C26 7269   0.263   1.817   4.374  0.0789 -0.5331 -0.3688
   57DOPE   H6R 7270   0.193   1.733   4.352 -1.0922  0.5964 -1.0806
   57DOPE   H6S 7271   0.211   1.899   4.428  1.9989  0.7336 -0.3835
   57DOPE   C27 7272   0.384   1.777   4.456 -0.0069 -0.6542  0.3112
   57DOPE   H7R 7273   0.442   1.871   4.459 -2.3566  0.8406  1.5466
   57DOPE   H7S 7274   0.446   1.703   4.400  0.7141 -0.1710  0.4574
   57DOPE   C28 7275   0.361   1.725   4.597  0.5143  0.6209  0.2022
   57DOPE   H8R 7276   0.449   1.661   4.621  0.4791 -0.0345 -1.3309
   57DOPE   H8S 7277   0.275   1.655   4.593  1.3961 -0.5520  1.0354
   57DOPE   C29 7278   0.347   1.824   4.707  0.7308  0.4801 -0.2852
   57DOPE   H9R 7279   0.244   1.851   4.733  0.9307  2.7466 -1.4956
   57DOPE  C210 7280   0.444   1.876   4.783  0.4930 -0.3753  0.2804
   57DOPE  H10R 7281   0.420   1.952   4.860 -0.2971 -0.1434 -0.1864
   57DOPE  C211 7282   0.591   1.843   4.777  0.1402  0.0991  0.3495
   57DOPE  H11R 7283   0.653   1.932   4.752 -0.5904  0.4328 -0.3242
   57DOPE  H11S 7284   0.601   1.775   4.690 -0.1744  0.0938  0.3147
   57DOPE  C212 7285   0.624   1.771   4.905  0.8891  0.1594  0.1688
   57DOPE  H12R 7286   0.562   1.683   4.930 -0.0573  1.1323  1.3778
   57DOPE  H12S 7287   0.605   1.848   4.983 -3.0134  0.5260 -0.9804
   57DOPE  C213 7288   0.773   1.734   4.933  0.1842  0.0752 -0.0743
   57DOPE  H13R 7289   0.827   1.768   4.842  1.1152 -0.2117  0.3588
   57DOPE  H13S 7290   0.779   1.624   4.947 -1.1041  0.1392  1.2133
   57DOPE  C214 7291   0.841   1.804   5.055  0.3294  0.1070  0.5055
   57DOPE  H14R 7292   0.947   1.770   5.054  1.1046  2.2757 -1.7728
   57DOPE  H14S 7293   0.795   1.776   5.152 -2.2436 -1.3743 -1.0386
   57DOPE  C215 7294   0.835   1.951   5.028 -0.4560  0.3052 -0.4662
   57DOPE  H15R 7295   0.740   1.993   5.069 -0.1499  0.0710  0.5288
   57DOPE  H15S 7296   0.835   1.969   4.919  1.4281 -1.9452 -0.9354
   57DOPE  C216 7297   0.946   2.020   5.107 -0.2638 -0.7476  0.3973
   57DOPE  H16R 7298   1.042   1.996   5.058 -0.5900 -1.0882 -0.0854
   57DOPE  H16S 7299   0.940   1.985   5.212  0.0398  0.7055  0.9232
   57DOPE  C217 7300   0.933   2.179   5.094 -0.1883  0.6602  0.4321
   57DOPE  H17R 7301   0.823   2.191   5.087 -0.4301 -1.6921 -1.1842
   57DOPE  H17S 7302   0.974   2.213   4.996  0.4608  0.7614  0.7304
   57DOPE  C218 7303   1.008   2.258   5.202  0.4570 -0.3268  0.0766
   57DOPE  H18R 7304   0.991   2.218   5.305 -0.5818 -0.0448  0.0248
   57DOPE  H18S 7305   0.966   2.360   5.207  1.1117 -0.0638  0.3857
   57DOPE  H18T 7306   1.114   2.277   5.172 -0.0569  1.2598 -0.8185
   57DOPE   C33 7307   0.491   2.361   4.127  0.1245 -0.5192  0.2555
   57DOPE   H3X 7308   0.399   2.368   4.189  0.6878 -1.6539  1.2666
   57DOPE   H3Y 7309   0.568   2.432   4.166  0.4982 -1.2189  0.8138
   57DOPE   C34 7310   0.541   2.221   4.146  0.2505 -0.1704  0.4392
   57DOPE   H4X 7311   0.445   2.165   4.152 -1.8222  3.0963  0.6672
   57DOPE   H4Y 7312   0.610   2.185   4.067 -2.1045  0.4741 -2.0779
   57DOPE   C35 7313   0.607   2.192   4.279  0.0715 -0.4903 -1.0632
   57DOPE   H5X 7314   0.703   2.248   4.283  1.1015 -2.2369 -0.3164
   57DOPE   H5Y 7315   0.637   2.085   4.284 -2.3765 -1.2110 -0.0600
   57DOPE   C36 7316   0.532   2.240   4.411  0.8265 -0.6856  0.6748
   57DOPE   H6X 7317   0.426   2.207   4.401 -0.4725  2.2347  3.2670
   57DOPE   H6Y 7318   0.519   2.350   4.402  0.9804 -0.6270  1.1787
   57DOPE   C37 7319   0.587   2.201   4.545 -0.3227  0.6564 -0.4311
   57DOPE   H7X 7320   0.573   2.091   4.548  2.4350  0.2133 -1.4851
   57DOPE   H7Y 7321   0.698   2.209   4.547 -0.2885  0.5444 -1.6273
   57DOPE   C38 7322   0.524   2.273   4.659 -0.6719  0.4273  0.0256
   57DOPE   H8X 7323   0.414   2.262   4.668 -0.3249 -1.9447  3.3100
   57DOPE   H8Y 7324   0.533   2.382   4.641  1.4193  0.1207 -1.0610
   57DOPE   C39 7325   0.584   2.223   4.789 -0.3591 -0.4865  0.1515
   57DOPE   H9X 7326   0.651   2.136   4.780 -0.2815 -0.4063 -0.0354
   57DOPE  C310 7327   0.560   2.277   4.907  0.1460 -0.5417 -0.1295
   57DOPE  H10X 7328   0.620   2.238   4.991 -0.7703 -0.5871  0.5119
   57DOPE  C311 7329   0.439   2.360   4.932 -0.0845 -0.9044  0.3955
   57DOPE  H11X 7330   0.486   2.459   4.949  2.1993 -2.0870  1.5390
   57DOPE  H11Y 7331   0.370   2.368   4.845 -0.4414 -1.7267  0.5878
   57DOPE  C312 7332   0.352   2.322   5.058  0.2089 -0.2089  0.1407
   57DOPE  H12X 7333   0.288   2.236   5.027 -2.4058  1.3694  0.8879
   57DOPE  H12Y 7334   0.277   2.399   5.083 -1.1573 -1.1730 -0.8468
   57DOPE  C313 7335   0.429   2.295   5.186  0.4184  0.2808 -0.7849
   57DOPE  H13X 7336   0.506   2.216   5.176 -2.3300 -2.6316 -0.5533
   57DOPE  H13Y 7337   0.478   2.393   5.206 -1.5909  1.0649  0.7862
   57DOPE  C314 7338   0.344   2.240   5.299 -0.1171 -1.0375  0.5055
   57DOPE  H14X 7339   0.310   2.137   5.279 -1.4617 -0.6338  0.6114
   57DOPE  H14Y 7340   0.251   2.299   5.314 -1.2322 -2.5758 -0.1945
   57DOPE  C315 7341   0.429   2.249   5.425 -0.5569  0.4122 -0.3239
   57DOPE  H15X 7342   0.457   2.352   5.456 -0.3473  0.0556  0.6848
   57DOPE  H15Y 7343   0.519   2.187   5.405 -1.6947 -2.2526  2.0546
   57DOPE  C316 7344   0.358   2.186   5.548 -0.6324 -0.0296 -0.0263
   57DOPE  H16X 7345   0.335   2.078   5.533  1.7832 -0.8125  1.3465
   57DOPE  H16Y 7346   0.261   2.238   5.565 -0.9319 -0.3453 -0.7404
   57DOPE  C317 7347   0.438   2.202   5.678 -0.6541 -0.2994  0.6867
   57DOPE  H17X 7348   0.544   2.181   5.652 -0.5422  2.1787 -1.2423
   57DOPE  H17Y 7349   0.443   2.306   5.717  0.3419  0.9775 -2.5091
   57DOPE  C318 7350   0.390   2.116   5.798  0.5167  0.5959 -0.5979
   57DOPE  H18X 7351   0.349   2.021   5.757 -1.3573  1.3096 -0.4633
   57DOPE  H18Y 7352   0.471   2.088   5.870 -0.1862  1.1578  0.4264
   57DOPE  H18Z 7353   0.312   2.168   5.857  1.1287  0.9949 -0.1268
   58DOPE     N 7354   7.450   6.651   3.326 -0.0893 -0.0529  0.0193
   58DOPE   HN1 7355   7.530   6.693   3.378  0.8594 -0.4796 -1.0624
   58DOPE   HN2 7356   7.391   6.727   3.286 -1.4782 -0.3252  1.4200
   58DOPE   HN3 7357   7.398   6.594   3.395 -0.4188  0.5277  0.2640
   58DOPE   C12 7358   7.513   6.564   3.225  0.3626  0.2692 -0.0537
   58DOPE  H12A 7359   7.435   6.512   3.166  1.6957  0.7037 -2.3036
   58DOPE  H12B 7360   7.584   6.503   3.285 -0.3920  1.8221  2.6053
   58DOPE   C11 7361   7.596   6.654   3.127 -0.0654 -0.3106 -0.4806
   58DOPE  H11A 7362   7.527   6.715   3.064 -1.2833 -2.1954 -1.0389
   58DOPE  H11B 7363   7.629   6.583   3.048 -0.8965 -0.7371 -0.4534
   58DOPE     P 7364   7.828   6.677   3.248 -0.3312 -0.3008 -0.1950
   58DOPE   O13 7365   7.925   6.781   3.285  0.8546  0.3429  0.6335
   58DOPE   O14 7366   7.876   6.562   3.161  0.2609 -0.6471 -0.6674
   58DOPE   O11 7367   7.764   6.611   3.379 -0.4758 -0.3673 -0.1459
   58DOPE   O12 7368   7.697   6.738   3.187 -0.4112  0.0062  0.1102
   58DOPE    C1 7369   7.835   6.493   3.424 -0.3873 -0.2013 -0.2634
   58DOPE    HA 7370   7.941   6.512   3.452 -0.6582  2.5503 -0.8084
   58DOPE    HB 7371   7.822   6.409   3.353 -0.5036  0.2601 -0.7999
   58DOPE    C2 7372   7.769   6.450   3.554  0.7679 -0.2616  0.1257
   58DOPE    HS 7373   7.666   6.408   3.545 -0.0529  1.4467  1.0042
   58DOPE   O21 7374   7.761   6.554   3.654 -0.1751  0.5952 -0.1686
   58DOPE   C21 7375   7.652   6.625   3.649  0.9962  0.3676 -0.0951
   58DOPE   O22 7376   7.550   6.591   3.588 -0.4599  0.0606 -0.0917
   58DOPE   C22 7377   7.663   6.734   3.754  0.1494  1.0373  0.6726
   58DOPE   H2R 7378   7.605   6.825   3.726 -1.2615  0.1003  0.4172
   58DOPE   H2S 7379   7.770   6.761   3.758 -0.2199  2.7984 -0.3762
   58DOPE    C3 7380   7.866   6.330   3.606  0.3326 -0.7378  0.1891
   58DOPE    HX 7381   7.964   6.380   3.622  1.7366 -3.2899 -0.0788
   58DOPE    HY 7382   7.873   6.260   3.521  0.6762 -0.8096  0.2739
   58DOPE   O31 7383   7.816   6.269   3.724  0.3039  0.0786  0.4516
   58DOPE   C31 7384   7.739   6.151   3.716 -1.1819  0.3182  0.3941
   58DOPE   O32 7385   7.714   6.094   3.613  0.2077  0.1075  0.7229
   58DOPE   C32 7386   7.718   6.094   3.852  0.2352  1.2537  0.1765
   58DOPE   H2X 7387   7.651   6.170   3.899 -0.8769 -0.4835  1.5478
   58DOPE   H2Y 7388   7.656   6.002   3.841  0.8304  0.8425  0.2297
   58DOPE   C23 7389   7.604   6.683   3.886 -0.6712  0.7776 -0.5046
   58DOPE   H3R 7390   7.495   6.663   3.879 -0.7917  0.7037  1.2860
   58DOPE   H3S 7391   7.600   6.764   3.962  1.2701  1.7558 -1.3634
   58DOPE   C24 7392   7.686   6.571   3.959  1.1617  0.3701 -0.0982
   58DOPE   H4R 7393   7.792   6.600   3.949  0.8531  1.8319  0.6414
   58DOPE   H4S 7394   7.671   6.475   3.904 -1.1071  1.3856 -1.4483
   58DOPE   C25 7395   7.641   6.552   4.106 -0.1739  1.4428  0.0647
   58DOPE   H5R 7396   7.531   6.541   4.110  0.0677 -1.3558  0.8305
   58DOPE   H5S 7397   7.674   6.640   4.165 -0.2388  2.8390 -1.8739
   58DOPE   C26 7398   7.696   6.427   4.180  0.1720  0.5655  0.2357
   58DOPE   H6R 7399   7.806   6.442   4.171  0.0671  0.7222 -1.0822
   58DOPE   H6S 7400   7.675   6.326   4.141  2.0464 -1.0963  3.1842
   58DOPE   C27 7401   7.656   6.433   4.325  0.1804  0.0501 -0.0940
   58DOPE   H7R 7402   7.546   6.434   4.343  0.0372 -1.8233 -0.5976
   58DOPE   H7S 7403   7.684   6.533   4.366  0.7022 -0.0102 -0.2992
   58DOPE   C28 7404   7.720   6.318   4.409 -0.3796  0.3176 -0.6490
   58DOPE   H8R 7405   7.831   6.321   4.400 -0.2119 -0.0877  1.0882
   58DOPE   H8S 7406   7.672   6.227   4.366 -0.7502  0.3636 -0.3382
   58DOPE   C29 7407   7.685   6.316   4.557  0.3099  0.7189 -0.3518
   58DOPE   H9R 7408   7.577   6.335   4.571 -0.1811 -0.9556 -1.4540
   58DOPE  C210 7409   7.765   6.277   4.661 -0.0405  0.6510  0.3783
   58DOPE  H10R 7410   7.715   6.276   4.759 -0.3184  0.9726  0.2380
   58DOPE  C211 7411   7.912   6.234   4.662  0.6561  0.3290 -0.5452
   58DOPE  H11R 7412   7.968   6.304   4.727  0.0681 -0.1204  0.4559
   58DOPE  H11S 7413   7.951   6.229   4.558 -1.7357  2.8393 -1.7032
   58DOPE  C212 7414   7.901   6.085   4.722  0.6259 -0.5862  0.0798
   58DOPE  H12R 7415   7.861   6.085   4.826  0.4917 -0.5998  0.0283
   58DOPE  H12S 7416   8.009   6.063   4.738  0.0837 -0.9481  4.6873
   58DOPE  C213 7417   7.845   5.985   4.625 -0.0462 -0.4652 -0.4450
   58DOPE  H13R 7418   7.889   5.990   4.523 -3.0928 -0.7535 -1.8727
   58DOPE  H13S 7419   7.743   6.026   4.612  0.2194 -0.0090 -1.1389
   58DOPE  C214 7420   7.840   5.840   4.664  0.2817  0.1465  0.0088
   58DOPE  H14R 7421   7.773   5.828   4.752 -0.4561 -0.8444 -0.6631
   58DOPE  H14S 7422   7.943   5.816   4.697 -0.0200 -0.1336  0.7634
   58DOPE  C215 7423   7.786   5.736   4.562 -0.0112  0.5953  0.1516
   58DOPE  H15R 7424   7.797   5.630   4.594  2.7169  0.4766 -1.0018
   58DOPE  H15S 7425   7.840   5.751   4.467  1.3647  0.1427  0.8414
   58DOPE  C216 7426   7.638   5.749   4.530 -0.1639  0.3618  0.0239
   58DOPE  H16R 7427   7.617   5.857   4.520 -2.3218  0.2551  2.2845
   58DOPE  H16S 7428   7.577   5.712   4.616 -2.8768  0.9690 -1.5150
   58DOPE  C217 7429   7.595   5.672   4.410  0.2835 -0.1069 -0.5091
   58DOPE  H17R 7430   7.656   5.580   4.413  1.9753  0.9859  0.8992
   58DOPE  H17S 7431   7.624   5.727   4.318  1.6614 -0.3727 -0.2539
   58DOPE  C218 7432   7.445   5.626   4.403 -0.2184  0.1006  0.1839
   58DOPE  H18R 7433   7.381   5.711   4.368  1.6454  2.1027  1.3928
   58DOPE  H18S 7434   7.404   5.599   4.502 -0.4547 -1.0972 -0.2326
   58DOPE  H18T 7435   7.421   5.543   4.333  0.4962 -0.2962  0.4055
   58DOPE   C33 7436   7.846   6.079   3.942  0.4637 -0.4962  0.0283
   58DOPE   H3X 7437   7.918   6.162   3.923 -1.1754  0.7612 -0.9105
   58DOPE   H3Y 7438   7.894   5.983   3.913  0.6039 -0.4099 -0.0283
   58DOPE   C34 7439   7.806   6.061   4.090 -0.3167 -0.0107  0.6709
   58DOPE   H4X 7440   7.769   6.154   4.139 -0.0868 -0.7823  2.4060
   58DOPE   H4Y 7441   7.727   5.983   4.080  0.2289 -0.3548 -1.3051
   58DOPE   C35 7442   7.912   6.000   4.179  0.1143 -0.9371 -0.2655
   58DOPE   H5X 7443   7.949   5.902   4.143 -0.6420 -0.9631 -0.9971
   58DOPE   H5Y 7444   7.863   5.961   4.271 -0.4259 -2.6265 -1.2347
   58DOPE   C36 7445   8.039   6.085   4.201 -0.0433 -0.0077 -0.1641
   58DOPE   H6X 7446   8.001   6.165   4.267 -4.5935 -0.9775 -1.2607
   58DOPE   H6Y 7447   8.073   6.123   4.102 -1.9705  1.1920 -0.4189
   58DOPE   C37 7448   8.150   6.003   4.272  0.2521 -0.2588 -0.9406
   58DOPE   H7X 7449   8.124   5.956   4.370  1.9797 -0.9510 -0.7658
   58DOPE   H7Y 7450   8.168   5.911   4.212 -1.9140 -0.9727 -0.5750
   58DOPE   C38 7451   8.275   6.088   4.282 -0.3742  0.0471 -0.0103
   58DOPE   H8X 7452   8.306   6.142   4.190  2.0080 -2.3641 -0.7716
   58DOPE   H8Y 7453   8.358   6.017   4.304 -0.0140  1.0247  2.0155
   58DOPE   C39 7454   8.259   6.194   4.386  0.3108  0.3039 -0.6161
   58DOPE   H9X 7455   8.194   6.275   4.350  1.2480  0.3112 -2.3987
   58DOPE  C310 7456   8.307   6.210   4.515  0.0349 -0.0393  0.4997
   58DOPE  H10X 7457   8.277   6.294   4.580  1.3824  0.0280  1.0505
   58DOPE  C311 7458   8.409   6.113   4.572  0.2638 -0.2847  0.2465
   58DOPE  H11X 7459   8.378   6.076   4.672  0.7842 -1.3233  0.0468
   58DOPE  H11Y 7460   8.429   6.029   4.501 -0.4780  0.7676 -1.2610
   58DOPE  C312 7461   8.544   6.182   4.592  0.0623  0.6292 -0.0189
   58DOPE  H12X 7462   8.538   6.269   4.661 -1.7612  1.6355 -1.3620
   58DOPE  H12Y 7463   8.591   6.207   4.495 -1.5069 -1.1343 -1.3039
   58DOPE  C313 7464   8.632   6.078   4.661 -0.2038  0.0249  0.5586
   58DOPE  H13X 7465   8.596   6.059   4.764 -1.5065 -1.1317 -0.0688
   58DOPE  H13Y 7466   8.621   5.981   4.608 -0.7901  0.8248 -0.8507
   58DOPE  C314 7467   8.782   6.114   4.663 -0.6934  0.0471  0.1515
   58DOPE  H14X 7468   8.842   6.071   4.746  0.2138 -0.7671 -0.8896
   58DOPE  H14Y 7469   8.781   6.223   4.682  0.2633  0.3761 -1.4987
   58DOPE  C315 7470   8.857   6.077   4.533 -0.6295  0.6759  0.1397
   58DOPE  H15X 7471   8.785   6.083   4.448  0.3803  1.1370 -0.7009
   58DOPE  H15Y 7472   8.893   5.972   4.537  1.0681  0.9976 -3.1282
   58DOPE  C316 7473   8.983   6.167   4.498 -0.1927 -0.7482 -0.8564
   58DOPE  H16X 7474   8.961   6.276   4.508 -1.6468 -1.1759  1.1778
   58DOPE  H16Y 7475   9.028   6.143   4.400  1.1090 -1.2098 -0.1757
   58DOPE  C317 7476   9.088   6.145   4.612 -0.4252  0.1314 -0.2540
   58DOPE  H17X 7477   9.053   6.196   4.704 -0.9748 -2.1819  0.9025
   58DOPE  H17Y 7478   9.088   6.037   4.637  0.4339  0.1099 -0.3084
   58DOPE  C318 7479   9.234   6.184   4.589  0.1375 -0.3551 -0.5963
   58DOPE  H18X 7480   9.305   6.141   4.663  1.2605 -1.3867 -2.2057
   58DOPE  H18Y 7481   9.270   6.159   4.487  0.6186  0.4313 -0.6289
   58DOPE  H18Z 7482   9.230   6.295   4.598 -0.6614 -0.3626 -0.7639
   59DOPE     N 7483   0.166   1.342   3.279  1.0873 -0.5236  0.1645
   59DOPE   HN1 7484   0.122   1.272   3.215  0.2450  1.6207 -1.7205
   59DOPE   HN2 7485   0.232   1.301   3.348  2.1613  1.6600  0.5076
   59DOPE   HN3 7486   0.090   1.394   3.326  2.2201  1.1057  0.2919
   59DOPE   C12 7487   0.254   1.435   3.192  0.2865 -0.3170  0.5776
   59DOPE  H12A 7488   0.323   1.492   3.257  2.9771 -1.8802 -0.7389
   59DOPE  H12B 7489   0.183   1.495   3.131  2.2696  1.8133  0.2223
   59DOPE   C11 7490   0.351   1.345   3.119 -0.4220  0.1972  0.7613
   59DOPE  H11A 7491   0.412   1.412   3.054 -0.9822 -2.1791 -2.4768
   59DOPE  H11B 7492   0.294   1.281   3.048  0.4555  0.5163 -0.2689
   59DOPE     P 7493   0.535   1.169   3.162  0.4146  0.0992 -0.0985
   59DOPE   O13 7494   0.529   1.145   3.016  0.6577 -0.3316 -0.2541
   59DOPE   O14 7495   0.503   1.051   3.247 -0.7111  0.4236 -0.0032
   59DOPE   O11 7496   0.673   1.226   3.209  0.3912 -0.8098  0.2247
   59DOPE   O12 7497   0.439   1.280   3.214  0.1528 -0.0554 -0.2045
   59DOPE    C1 7498   0.792   1.146   3.219  0.4142 -0.4859  0.0903
   59DOPE    HA 7499   0.842   1.152   3.119 -1.9724 -0.2750 -1.1567
   59DOPE    HB 7500   0.767   1.041   3.243 -1.9504  0.0431  0.1433
   59DOPE    C2 7501   0.880   1.207   3.334  0.0756  0.3479  0.8374
   59DOPE    HS 7502   0.972   1.144   3.341  1.2611  1.8572 -0.4005
   59DOPE   O21 7503   0.812   1.225   3.458  0.1631 -0.1450  0.1496
   59DOPE   C21 7504   0.779   1.113   3.516 -0.6303 -0.4607 -0.2375
   59DOPE   O22 7505   0.805   1.001   3.479 -0.0940  0.2583 -0.0542
   59DOPE   C22 7506   0.703   1.132   3.648 -0.3243  0.4640 -0.3983
   59DOPE   H2R 7507   0.640   1.223   3.640  0.2363  0.8485 -0.4710
   59DOPE   H2S 7508   0.780   1.165   3.721 -0.1903  3.3446 -1.7077
   59DOPE    C3 7509   0.940   1.349   3.293 -0.1509  0.1799  0.2673
   59DOPE    HX 7510   0.850   1.407   3.262 -0.5494 -1.5230 -1.9609
   59DOPE    HY 7511   0.989   1.333   3.195 -2.6355  0.1692 -1.0779
   59DOPE   O31 7512   1.019   1.408   3.402 -0.1681 -0.4549 -0.9336
   59DOPE   C31 7513   1.148   1.422   3.382 -0.4198  0.7634 -0.4123
   59DOPE   O32 7514   1.206   1.371   3.288 -0.1240  0.3227  0.1654
   59DOPE   C32 7515   1.209   1.501   3.499 -0.2025 -0.2838  0.8390
   59DOPE   H2X 7516   1.206   1.610   3.478  0.5814 -0.6399 -1.2993
   59DOPE   H2Y 7517   1.162   1.459   3.591  0.4396  1.3877  1.9927
   59DOPE   C23 7518   0.623   1.006   3.696  0.7217  0.2169  0.2594
   59DOPE   H3R 7519   0.687   0.924   3.736 -1.1789 -1.4770  0.0354
   59DOPE   H3S 7520   0.557   0.961   3.618 -0.1058 -0.3120  1.2359
   59DOPE   C24 7521   0.532   1.038   3.814 -0.2564 -0.3565 -0.7222
   59DOPE   H4R 7522   0.446   1.105   3.795 -2.4833 -3.5193 -2.8346
   59DOPE   H4S 7523   0.594   1.084   3.894 -0.4190 -1.6347  0.1729
   59DOPE   C25 7524   0.463   0.921   3.884  0.3429 -0.2634 -0.2218
   59DOPE   H5R 7525   0.544   0.845   3.895  0.0507 -0.3303  2.1078
   59DOPE   H5S 7526   0.384   0.887   3.813  2.0576 -0.2482 -2.2080
   59DOPE   C26 7527   0.394   0.962   4.015  0.4421 -0.2352  0.3370
   59DOPE   H6R 7528   0.342   1.058   3.995 -0.0853 -0.9053 -1.8007
   59DOPE   H6S 7529   0.472   0.973   4.093  2.8937  0.9737 -2.1118
   59DOPE   C27 7530   0.288   0.864   4.061 -0.4849 -0.3135 -0.1162
   59DOPE   H7R 7531   0.342   0.767   4.064  2.8641  1.3181 -1.5901
   59DOPE   H7S 7532   0.209   0.848   3.985 -0.4250  0.9852 -0.4705
   59DOPE   C28 7533   0.219   0.903   4.195  0.4702  0.0903  0.6560
   59DOPE   H8R 7534   0.154   0.992   4.181  0.8084  0.3736  0.8809
   59DOPE   H8S 7535   0.308   0.938   4.252  1.1157  0.1156 -0.3588
   59DOPE   C29 7536   0.154   0.789   4.262 -0.3238  0.4140  0.4992
   59DOPE   H9R 7537   0.224   0.725   4.318 -0.8927  0.4863  1.3121
   59DOPE  C210 7538   0.024   0.754   4.255  0.2752 -0.1002  0.5557
   59DOPE  H10R 7539  -0.014   0.675   4.323 -0.5201  1.0174  1.4520
   59DOPE  C211 7540  -0.088   0.816   4.177  0.0741  0.2291 -0.2636
   59DOPE  H11R 7541  -0.087   0.773   4.075 -0.5340  1.0263 -0.6153
   59DOPE  H11S 7542  -0.068   0.924   4.161  0.5092  0.4598  1.5789
   59DOPE  C212 7543  -0.217   0.775   4.242 -0.0678  0.1657 -0.0709
   59DOPE  H12R 7544  -0.230   0.835   4.334 -1.7827  2.2827 -1.5950
   59DOPE  H12S 7545  -0.220   0.667   4.265 -1.5621  0.4340  1.1138
   59DOPE  C213 7546  -0.334   0.816   4.150  0.2153 -0.5828 -0.0135
   59DOPE  H13R 7547  -0.301   0.788   4.047  0.3917  0.2244 -0.1800
   59DOPE  H13S 7548  -0.355   0.924   4.139 -1.5925 -0.9967 -1.0087
   59DOPE  C214 7549  -0.460   0.745   4.196 -0.0732 -0.2023 -0.4001
   59DOPE  H14R 7550  -0.499   0.783   4.293  1.9194  3.8682 -0.9804
   59DOPE  H14S 7551  -0.437   0.638   4.212  0.3019  0.2015  2.1654
   59DOPE  C215 7552  -0.578   0.753   4.102  0.5354  0.5999  0.2413
   59DOPE  H15R 7553  -0.559   0.720   3.998 -1.8265  1.6409 -0.5878
   59DOPE  H15S 7554  -0.580   0.861   4.078 -1.8683  0.0059 -2.8582
   59DOPE  C216 7555  -0.715   0.688   4.152 -0.4034 -0.2458 -0.1448
   59DOPE  H16R 7556  -0.793   0.727   4.083  0.4496 -1.4554 -1.8593
   59DOPE  H16S 7557  -0.726   0.725   4.256  0.2825  1.4371 -0.6334
   59DOPE  C217 7558  -0.723   0.540   4.137  0.2072  0.4393 -0.6088
   59DOPE  H17R 7559  -0.634   0.492   4.183  1.4187  0.4059 -2.8323
   59DOPE  H17S 7560  -0.730   0.515   4.029  0.7938 -1.0286 -0.3349
   59DOPE  C218 7561  -0.853   0.487   4.213  0.0459 -0.1245  0.2875
   59DOPE  H18R 7562  -0.929   0.505   4.134  1.5214 -0.2682 -1.2011
   59DOPE  H18S 7563  -0.881   0.550   4.301  0.3447 -0.3948  0.5806
   59DOPE  H18T 7564  -0.847   0.383   4.252 -0.5071 -0.1031  0.4406
   59DOPE   C33 7565   1.359   1.464   3.506 -0.2579 -0.1062  0.2284
   59DOPE   H3X 7566   1.412   1.487   3.411  0.9744  1.2140  1.1838
   59DOPE   H3Y 7567   1.368   1.355   3.525 -1.6289  0.0008  1.7140
   59DOPE   C34 7568   1.437   1.543   3.608  0.0339  0.0539 -0.1829
   59DOPE   H4X 7569   1.545   1.525   3.595  0.0249  0.1593 -0.3985
   59DOPE   H4Y 7570   1.426   1.652   3.591  0.8350  0.1005 -0.4037
   59DOPE   C35 7571   1.392   1.509   3.748  0.0117 -0.1472 -0.1093
   59DOPE   H5X 7572   1.394   1.400   3.765 -0.7038 -0.0205  0.8527
   59DOPE   H5Y 7573   1.286   1.536   3.769  0.4623  1.8903 -0.2190
   59DOPE   C36 7574   1.482   1.568   3.858  0.4051  0.3267  0.5306
   59DOPE   H6X 7575   1.470   1.679   3.864 -1.5071  0.2737 -1.1153
   59DOPE   H6Y 7576   1.590   1.553   3.835  0.3073 -0.4394  0.5757
   59DOPE   C37 7577   1.442   1.511   3.995 -0.4027  0.6347 -0.2882
   59DOPE   H7X 7578   1.340   1.551   4.016 -1.2108 -0.7975 -1.3409
   59DOPE   H7Y 7579   1.428   1.401   3.989  1.4178  0.3017  0.7059
   59DOPE   C38 7580   1.534   1.556   4.110  0.1137 -0.1347  0.0300
   59DOPE   H8X 7581   1.636   1.555   4.068  1.6834  1.8738  3.3574
   59DOPE   H8Y 7582   1.537   1.489   4.199 -0.6616  0.6774  0.6877
   59DOPE   C39 7583   1.509   1.697   4.152  0.1637 -0.3280 -1.0107
   59DOPE   H9X 7584   1.564   1.766   4.086  2.3705 -2.1769 -1.2434
   59DOPE  C310 7585   1.461   1.737   4.269  0.1261 -0.8166 -0.0430
   59DOPE  H10X 7586   1.434   1.843   4.286  1.6738 -0.3262 -0.4845
   59DOPE  C311 7587   1.402   1.652   4.378  0.1264  0.5980 -0.1132
   59DOPE  H11X 7588   1.299   1.687   4.402  0.0794  0.0208  0.5677
   59DOPE  H11Y 7589   1.381   1.548   4.344  2.4659  0.1715 -0.3979
   59DOPE  C312 7590   1.491   1.643   4.498  0.1186 -0.0025 -0.0918
   59DOPE  H12X 7591   1.504   1.745   4.540  0.4816  0.2887 -0.9114
   59DOPE  H12Y 7592   1.594   1.611   4.473  0.0669  0.5663 -1.0587
   59DOPE  C313 7593   1.420   1.557   4.601 -0.6252  0.4003  0.0635
   59DOPE  H13X 7594   1.322   1.606   4.621 -1.3375 -0.4062 -1.2807
   59DOPE  H13Y 7595   1.396   1.456   4.563 -2.2838  0.8186 -0.0968
   59DOPE  C314 7596   1.518   1.543   4.726  0.5170  0.1785  0.2280
   59DOPE  H14X 7597   1.544   1.649   4.746 -0.2501  1.3740 -4.0442
   59DOPE  H14Y 7598   1.604   1.485   4.686  0.0540 -0.2221 -0.2090
   59DOPE  C315 7599   1.439   1.478   4.842  0.3667  0.6801 -0.2254
   59DOPE  H15X 7600   1.439   1.369   4.820  0.9482  0.4782  0.7285
   59DOPE  H15Y 7601   1.333   1.511   4.847 -0.6361 -1.6417 -3.0580
   59DOPE  C316 7602   1.496   1.501   4.987  0.1436 -0.0566  0.1209
   59DOPE  H16X 7603   1.441   1.436   5.058  0.9224  0.2583  1.0452
   59DOPE  H16Y 7604   1.470   1.604   5.017 -0.6915 -0.4154  0.6459
   59DOPE  C317 7605   1.644   1.479   4.999 -0.8719 -0.1478 -0.0637
   59DOPE  H17X 7606   1.677   1.379   4.964  0.3311  0.1513  0.1778
   59DOPE  H17Y 7607   1.695   1.541   4.923  0.9672 -1.5619 -0.0603
   59DOPE  C318 7608   1.701   1.507   5.142 -0.4061 -0.7032  0.4002
   59DOPE  H18X 7609   1.624   1.475   5.216 -0.4003  0.2101  0.8159
   59DOPE  H18Y 7610   1.789   1.443   5.165 -1.1296 -1.6398  0.6208
   59DOPE  H18Z 7611   1.726   1.614   5.160  1.0895 -1.0205  0.3971
   60DOPE     N 7612   7.213   7.608   2.695 -0.0362 -0.2907  0.0629
   60DOPE   HN1 7613   7.265   7.586   2.607  0.4458  0.1605  0.2340
   60DOPE   HN2 7614   7.155   7.693   2.682 -2.3915 -1.7124  0.5444
   60DOPE   HN3 7615   7.287   7.620   2.766 -0.5934  1.8196  0.3416
   60DOPE   C12 7616   7.114   7.504   2.730  0.6227  0.7382  0.0889
   60DOPE  H12A 7617   7.156   7.401   2.727 -0.6189  0.2287 -1.4580
   60DOPE  H12B 7618   7.028   7.507   2.660  0.8208  1.6984 -0.1282
   60DOPE   C11 7619   7.058   7.532   2.878  0.7479  0.3226  0.3551
   60DOPE  H11A 7620   6.982   7.452   2.896 -0.4238  1.8156  2.4718
   60DOPE  H11B 7621   7.005   7.629   2.864 -1.9068 -0.6550  2.6082
   60DOPE     P 7622   7.173   7.503   3.111 -0.2552 -0.1684 -0.1178
   60DOPE   O13 7623   7.277   7.574   3.175 -0.4742  0.0985 -0.3950
   60DOPE   O14 7624   7.186   7.356   3.117  0.1135  0.6006 -0.0810
   60DOPE   O11 7625   7.032   7.544   3.167  0.1937  0.1669 -0.3765
   60DOPE   O12 7626   7.169   7.551   2.961  0.0121 -0.4516 -0.1151
   60DOPE    C1 7627   6.926   7.446   3.193 -0.6653 -0.5251  0.6096
   60DOPE    HA 7628   6.955   7.345   3.157 -0.0339 -0.0861 -0.1341
   60DOPE    HB 7629   6.834   7.476   3.138 -0.7511  0.1907  1.1246
   60DOPE    C2 7630   6.888   7.450   3.341 -0.4091  0.3209  0.0574
   60DOPE    HS 7631   6.865   7.557   3.361  0.1624  0.6102 -0.7721
   60DOPE   O21 7632   7.005   7.400   3.415  0.1281  0.2386 -0.2018
   60DOPE   C21 7633   7.045   7.471   3.511  0.1424 -0.4444 -0.7019
   60DOPE   O22 7634   6.999   7.579   3.549  0.2592 -0.5946  0.0778
   60DOPE   C22 7635   7.152   7.398   3.590 -0.1702  0.1766 -0.0330
   60DOPE   H2R 7636   7.248   7.413   3.537  0.1742  2.7655  1.1584
   60DOPE   H2S 7637   7.121   7.292   3.583  2.7011 -0.7441  0.1528
   60DOPE    C3 7638   6.763   7.372   3.381  0.4772  0.8261  0.0981
   60DOPE    HX 7639   6.775   7.268   3.342 -1.2939  0.4944  0.3643
   60DOPE    HY 7640   6.674   7.412   3.328  0.0147  0.4517  0.5867
   60DOPE   O31 7641   6.744   7.372   3.528  0.5188 -0.6624 -0.0436
   60DOPE   C31 7642   6.685   7.472   3.587  0.1290 -0.1427 -0.7900
   60DOPE   O32 7643   6.647   7.572   3.530 -0.1995 -0.0747 -0.0011
   60DOPE   C32 7644   6.688   7.446   3.741  0.0495  0.2301  0.7510
   60DOPE   H2X 7645   6.779   7.502   3.772 -0.2605 -0.2637  2.7013
   60DOPE   H2Y 7646   6.601   7.503   3.778 -2.0432  0.0024 -3.2652
   60DOPE   C23 7647   7.187   7.442   3.730 -0.3206 -0.2871 -0.0325
   60DOPE   H3R 7648   7.097   7.482   3.783 -0.5560 -0.1772 -0.5085
   60DOPE   H3S 7649   7.258   7.526   3.713  0.5797 -1.1541 -0.6179
   60DOPE   C24 7650   7.276   7.343   3.791 -0.3669 -0.4644  0.4171
   60DOPE   H4R 7651   7.348   7.388   3.861  0.3331  1.5068 -1.4502
   60DOPE   H4S 7652   7.335   7.298   3.708 -0.9322 -1.2454  0.4270
   60DOPE   C25 7653   7.200   7.227   3.865 -0.1368 -0.2762 -0.1574
   60DOPE   H5R 7654   7.136   7.179   3.788  0.7751 -0.5242 -0.7792
   60DOPE   H5S 7655   7.139   7.277   3.943 -0.3395 -0.3703 -0.2525
   60DOPE   C26 7656   7.300   7.130   3.933  0.2119 -0.4840 -0.3119
   60DOPE   H6R 7657   7.355   7.187   4.011 -1.6039  1.1891 -0.1873
   60DOPE   H6S 7658   7.371   7.076   3.866 -0.7017 -0.7275 -1.1129
   60DOPE   C27 7659   7.222   7.026   4.019 -0.4682 -0.6377  0.5531
   60DOPE   H7R 7660   7.139   7.006   3.947  0.5859 -0.0378 -0.8934
   60DOPE   H7S 7661   7.181   7.082   4.105 -1.8187 -1.0069  0.1772
   60DOPE   C28 7662   7.302   6.905   4.067  0.5199  0.1162  0.0885
   60DOPE   H8R 7663   7.404   6.939   4.094  0.3846  0.9291 -0.3777
   60DOPE   H8S 7664   7.320   6.829   3.988  1.6019  0.1320  0.2995
   60DOPE   C29 7665   7.239   6.839   4.188  0.5105 -0.3220 -0.6253
   60DOPE   H9R 7666   7.132   6.822   4.170 -0.0348  1.4807  0.5860
   60DOPE  C210 7667   7.287   6.817   4.309 -0.0850 -0.3814 -0.7114
   60DOPE  H10R 7668   7.229   6.781   4.395 -1.2372 -0.4533 -1.4958
   60DOPE  C211 7669   7.429   6.823   4.360  0.3862 -0.2088 -0.5744
   60DOPE  H11R 7670   7.454   6.927   4.388  0.2246  0.4605 -2.7108
   60DOPE  H11S 7671   7.498   6.802   4.275 -0.6289 -2.0953 -0.9949
   60DOPE  C212 7672   7.481   6.733   4.470 -0.3858 -0.2960 -0.1077
   60DOPE  H12R 7673   7.591   6.750   4.475  0.0449 -2.7676  0.6226
   60DOPE  H12S 7674   7.457   6.626   4.452 -1.4540 -0.2474  0.9124
   60DOPE  C213 7675   7.426   6.759   4.616 -0.1587 -0.0264  0.4252
   60DOPE  H13R 7676   7.318   6.733   4.619 -0.0629 -0.7561 -1.4721
   60DOPE  H13S 7677   7.437   6.860   4.662 -2.1749 -0.7615  2.7694
   60DOPE  C214 7678   7.501   6.663   4.713  0.7099 -0.1219 -0.1644
   60DOPE  H14R 7679   7.609   6.686   4.699  0.8330  0.6250  1.7445
   60DOPE  H14S 7680   7.488   6.560   4.673 -0.9866  0.0169 -0.0462
   60DOPE  C215 7681   7.466   6.685   4.858  0.3927  0.3029 -0.3732
   60DOPE  H15R 7682   7.355   6.686   4.862  0.2785 -1.8456 -1.3309
   60DOPE  H15S 7683   7.505   6.780   4.901 -0.0583  1.7774 -3.0127
   60DOPE  C216 7684   7.505   6.562   4.946  0.1089 -0.7167 -0.2582
   60DOPE  H16R 7685   7.468   6.467   4.902  1.1800 -1.2157 -0.1079
   60DOPE  H16S 7686   7.464   6.565   5.049 -0.6408 -1.2648 -0.5361
   60DOPE  C217 7687   7.666   6.559   4.973 -0.0393  0.6589 -0.9377
   60DOPE  H17R 7688   7.690   6.660   5.014 -0.8056 -0.4130  2.4377
   60DOPE  H17S 7689   7.721   6.550   4.877  3.9589 -1.2939  1.3015
   60DOPE  C218 7690   7.720   6.453   5.072  0.1883  0.3540 -0.1371
   60DOPE  H18R 7691   7.658   6.361   5.069 -1.3849  1.2394  2.0115
   60DOPE  H18S 7692   7.709   6.495   5.175 -1.1095 -0.9366  0.2836
   60DOPE  H18T 7693   7.827   6.431   5.052 -0.0632 -1.5244  0.4050
   60DOPE   C33 7694   6.710   7.296   3.788  0.1510  0.2410  0.3640
   60DOPE   H3X 7695   6.817   7.280   3.760 -0.0977  1.3429 -1.3881
   60DOPE   H3Y 7696   6.645   7.222   3.738  0.2685  0.3189  0.0937
   60DOPE   C34 7697   6.711   7.273   3.938 -0.2919  0.9620  0.2546
   60DOPE   H4X 7698   6.603   7.285   3.961 -0.1130  1.1799  1.0108
   60DOPE   H4Y 7699   6.741   7.166   3.948 -0.3123  0.9070 -0.2548
   60DOPE   C35 7700   6.812   7.357   4.011 -0.0572  0.1772 -0.2030
   60DOPE   H5X 7701   6.786   7.465   4.005 -1.1361 -0.0981 -0.7972
   60DOPE   H5Y 7702   6.908   7.348   3.956  0.1985  0.6753  0.1562
   60DOPE   C36 7703   6.827   7.314   4.156 -0.0382 -0.3077  0.8082
   60DOPE   H6X 7704   6.835   7.203   4.154 -0.2196 -0.3569  2.0438
   60DOPE   H6Y 7705   6.734   7.323   4.215 -0.0434 -0.4047  0.8155
   60DOPE   C37 7706   6.951   7.367   4.223 -0.1056  0.1954 -0.5430
   60DOPE   H7X 7707   7.042   7.330   4.171  1.0436  0.7135  1.0199
   60DOPE   H7Y 7708   6.951   7.478   4.219 -2.4275  0.3752  1.8714
   60DOPE   C38 7709   6.957   7.336   4.368  0.4073 -0.1285  0.6176
   60DOPE   H8X 7710   6.939   7.227   4.373 -0.6297  0.1010  3.7574
   60DOPE   H8Y 7711   6.865   7.380   4.411  0.0508  0.5720 -0.8014
   60DOPE   C39 7712   7.086   7.378   4.438  0.0121  0.3419  0.4064
   60DOPE   H9X 7713   7.082   7.481   4.478 -0.9442  0.7070 -0.5689
   60DOPE  C310 7714   7.188   7.299   4.474  0.1951  0.8656 -0.2374
   60DOPE  H10X 7715   7.278   7.345   4.517  1.1337  0.3443 -1.5689
   60DOPE  C311 7716   7.201   7.148   4.449 -0.0341 -0.4156 -0.7232
   60DOPE  H11X 7717   7.158   7.121   4.350 -0.9415 -0.8312 -0.2195
   60DOPE  H11Y 7718   7.310   7.125   4.440  0.2400  0.7474 -0.5379
   60DOPE  C312 7719   7.137   7.060   4.564 -0.0838 -1.0386  0.4390
   60DOPE  H12X 7720   7.137   6.953   4.532 -1.5015 -0.2329 -2.6383
   60DOPE  H12Y 7721   7.029   7.076   4.580 -0.2377 -1.7927  0.1949
   60DOPE  C313 7722   7.223   7.075   4.697 -0.2937  0.1281  0.0121
   60DOPE  H13X 7723   7.328   7.044   4.680 -1.1451 -2.1435 -1.5269
   60DOPE  H13Y 7724   7.216   7.182   4.727  1.7089  0.4513 -0.5457
   60DOPE  C314 7725   7.163   6.992   4.806 -0.0935  0.3232 -0.1041
   60DOPE  H14X 7726   7.170   6.884   4.779 -1.8581  0.1533 -0.0307
   60DOPE  H14Y 7727   7.058   7.026   4.822  0.3062  1.4187  0.2363
   60DOPE  C315 7728   7.227   7.016   4.940  0.5349  0.0406 -0.4009
   60DOPE  H15X 7729   7.197   7.122   4.955  3.2329  0.9080 -0.5424
   60DOPE  H15Y 7730   7.338   7.016   4.938  0.5646 -1.0481  0.5939
   60DOPE  C316 7731   7.177   6.927   5.051 -0.1828 -0.0503  0.0042
   60DOPE  H16X 7732   7.205   6.822   5.027  3.4750  0.8046 -0.1291
   60DOPE  H16Y 7733   7.068   6.945   5.048  0.1879  2.6548 -0.3996
   60DOPE  C317 7734   7.236   6.968   5.190  0.1839 -0.3231 -0.0854
   60DOPE  H17X 7735   7.234   7.078   5.206 -2.1077  0.2325 -3.3462
   60DOPE  H17Y 7736   7.163   6.935   5.267 -0.6170  2.0941  0.2761
   60DOPE  C318 7737   7.376   6.915   5.211  0.1273  0.4441  0.8193
   60DOPE  H18X 7738   7.442   7.005   5.210 -1.9040  2.0387  1.7444
   60DOPE  H18Y 7739   7.374   6.870   5.312 -1.8098  0.4023  0.7931
   60DOPE  H18Z 7740   7.407   6.835   5.141 -2.9193  0.4322 -0.6957
   6123SM     N 7741   3.407   4.023   7.591 -0.0815 -0.4829 -0.0079
   6123SM   C15 7742   3.259   4.022   7.580  0.0253 -0.2660 -0.9143
   6123SM  H15A 7743   3.206   3.959   7.650 -0.7800  1.6539  0.2846
   6123SM  H15B 7744   3.244   3.983   7.480  1.2113 -1.0981 -0.7900
   6123SM  H15C 7745   3.222   4.123   7.590  1.7128  0.2154  1.0990
   6123SM   C14 7746   3.429   4.080   7.729 -0.0402  0.4844  0.2457
   6123SM  H14A 7747   3.387   4.011   7.801 -1.0197  1.5812  0.7543
   6123SM  H14B 7748   3.375   4.173   7.736 -0.6142  0.2142 -0.4500
   6123SM  H14C 7749   3.531   4.110   7.746 -0.2733  1.2869  0.2556
   6123SM   C13 7750   3.455   3.881   7.585  0.8082 -0.3860  0.7540
   6123SM  H13A 7751   3.435   3.824   7.495  0.0230  1.8878 -0.6022
   6123SM  H13B 7752   3.405   3.823   7.661 -0.8640 -0.5581 -0.4189
   6123SM  H13C 7753   3.558   3.862   7.611  0.0509 -1.0406  3.5536
   6123SM   C12 7754   3.467   4.117   7.485  0.2019  0.5863 -0.0703
   6123SM  H12A 7755   3.574   4.118   7.503  0.0130 -0.2449  1.2640
   6123SM  H12B 7756   3.433   4.218   7.504  0.6529  0.7567 -0.1383
   6123SM   C11 7757   3.449   4.091   7.340 -0.0311  0.8407  0.1894
   6123SM  H11A 7758   3.468   3.983   7.320 -0.1468  0.7221  0.7002
   6123SM  H11B 7759   3.522   4.151   7.283 -0.1459  1.4151  0.6399
   6123SM     P 7760   3.267   4.252   7.261 -0.3623 -0.0034 -0.1457
   6123SM   O13 7761   3.123   4.243   7.230 -0.1244  0.2963 -0.6265
   6123SM   O14 7762   3.302   4.336   7.375 -0.1951  0.3687 -0.4006
   6123SM   O11 7763   3.347   4.293   7.129 -0.1756 -0.1610  0.4008
   6123SM   O12 7764   3.313   4.112   7.300 -0.0989  0.6407  0.4880
   6123SM   C1S 7765   3.321   4.206   7.014  0.0916 -0.6156  0.7496
   6123SM   H1S 7766   3.212   4.202   6.993  0.0369  2.3213  0.0471
   6123SM   H1T 7767   3.369   4.107   7.028 -2.2163 -1.7264  1.2650
   6123SM    NF 7768   3.331   4.198   6.760  0.8031  0.0634 -0.2754
   6123SM   HNF 7769   3.393   4.134   6.715  0.6622 -0.2848  0.0204
   6123SM   C2S 7770   3.374   4.274   6.874 -0.8989  0.0920 -0.3803
   6123SM   H2S 7771   3.333   4.377   6.864  1.7534  1.1073 -1.9343
   6123SM   C3S 7772   3.528   4.288   6.876  0.4006 -0.7920 -0.3517
   6123SM   H3S 7773   3.584   4.197   6.906  2.8553  0.9090  0.4730
   6123SM    O3 7774   3.576   4.365   6.981  0.7234 -0.3216 -0.8693
   6123SM   HO3 7775   3.498   4.374   7.035  0.6525 -1.9151 -0.6454
   6123SM   C4S 7776   3.578   4.363   6.760  0.8060 -0.0399  0.0025
   6123SM   H4S 7777   3.530   4.459   6.740 -0.9706 -0.6208  1.1952
   6123SM   C5S 7778   3.673   4.314   6.683 -0.6010 -0.6710 -0.1609
   6123SM   H5S 7779   3.720   4.221   6.717 -1.9608 -0.5067  2.4038
   6123SM   C6S 7780   3.727   4.384   6.561  0.7545 -0.0954 -0.5816
   6123SM   H6S 7781   3.828   4.425   6.583  0.0173  0.9983  0.8635
   6123SM   H6T 7782   3.661   4.463   6.519 -0.0864  1.3305  3.1095
   6123SM   C7S 7783   3.755   4.277   6.451  0.0847 -0.0879  0.5777
   6123SM   H7S 7784   3.656   4.232   6.426  0.4927 -1.5506  1.5228
   6123SM   H7T 7785   3.827   4.203   6.490  0.7220 -1.4949 -2.9318
   6123SM   C8S 7786   3.817   4.347   6.329 -0.0590  0.3967 -0.5293
   6123SM   H8S 7787   3.898   4.419   6.353  1.4855 -0.7585 -1.9346
   6123SM   H8T 7788   3.741   4.402   6.269 -3.0294 -1.9263  0.8810
   6123SM   C9S 7789   3.890   4.243   6.238 -0.1450 -0.7588 -0.3143
   6123SM   H9S 7790   3.821   4.158   6.219 -0.9593  0.2928 -2.4103
   6123SM   H9T 7791   3.986   4.212   6.283 -0.1422  0.1789  0.3538
   6123SM  C10S 7792   3.931   4.299   6.099  0.1058 -0.9874  1.0019
   6123SM  H10S 7793   4.004   4.382   6.096 -2.0349  0.9766  0.7914
   6123SM  H10T 7794   3.837   4.335   6.052  1.3146  1.0928  0.0242
   6123SM  C11S 7795   3.992   4.192   6.005  0.3603 -0.0790 -1.0515
   6123SM  H11S 7796   3.941   4.096   6.026  0.1448  0.1648 -0.4305
   6123SM  H11T 7797   4.099   4.180   6.031 -0.1881 -2.0862  0.5238
   6123SM  C12S 7798   3.968   4.224   5.854 -0.0910 -0.3840  0.7000
   6123SM  H12S 7799   4.009   4.324   5.827 -1.3037  0.2677  1.2011
   6123SM  H12T 7800   3.860   4.230   5.827 -0.8486 -3.8479  2.4951
   6123SM  C13S 7801   4.049   4.121   5.772  0.1656  0.3036  0.2044
   6123SM  H13S 7802   4.157   4.136   5.792  0.2251 -0.9663  0.9255
   6123SM  H13T 7803   4.034   4.143   5.664  2.2130  0.2906 -0.1255
   6123SM  C14S 7804   3.992   3.981   5.798 -0.0383 -0.3314  0.2505
   6123SM  H14S 7805   3.882   3.988   5.814  0.0369  0.1155  0.5800
   6123SM  H14T 7806   4.025   3.931   5.892 -0.7196 -2.1102 -0.4038
   6123SM  C15S 7807   4.011   3.887   5.677 -0.1219 -0.2583  0.2003
   6123SM  H15S 7808   4.121   3.887   5.660 -0.4228 -0.1768 -1.9761
   6123SM  H15T 7809   3.971   3.920   5.579 -1.1163 -1.3183  0.2263
   6123SM  C16S 7810   3.959   3.749   5.711 -0.0249  0.7932  0.3047
   6123SM  H16S 7811   4.010   3.734   5.808 -2.1052  3.4793  1.9848
   6123SM  H16T 7812   4.006   3.677   5.640  0.2755  0.2141  1.0825
   6123SM  C17S 7813   3.806   3.735   5.722  0.2737  0.8942  0.3020
   6123SM  H17S 7814   3.758   3.740   5.621 -0.2143  1.8948  0.5667
   6123SM  H17T 7815   3.766   3.816   5.786 -0.7232  0.5648  0.1178
   6123SM  C18S 7816   3.769   3.615   5.805  0.3739  0.3254 -0.8714
   6123SM  H18S 7817   3.660   3.592   5.807  0.5053 -0.2893 -0.6963
   6123SM  H18T 7818   3.796   3.625   5.912 -1.4391 -0.2089 -0.3175
   6123SM  H18U 7819   3.813   3.522   5.764 -0.4555 -0.0524 -0.9314
   6123SM   C1F 7820   3.200   4.179   6.729  0.3657 -0.1234 -0.0337
   6123SM    OF 7821   3.107   4.229   6.790 -0.3777 -0.2796  0.2982
   6123SM   C2F 7822   3.172   4.068   6.634  0.0016 -0.2542  0.3123
   6123SM   H2F 7823   3.222   3.975   6.667 -0.4734 -1.1595 -1.3988
   6123SM   H2G 7824   3.200   4.098   6.531 -2.6397 -2.5098 -1.1909
   6123SM   C3F 7825   3.023   4.029   6.638 -0.0898  0.7889 -0.6400
   6123SM   H3F 7826   2.961   4.119   6.619 -1.3368  1.2827  4.3378
   6123SM   H3G 7827   2.995   3.989   6.738 -3.4681 -0.3246 -1.8928
   6123SM   C4F 7828   2.989   3.920   6.534 -0.3239  0.0315 -0.6480
   6123SM   H4F 7829   3.049   3.949   6.446  0.6472  1.2154  0.3726
   6123SM   H4G 7830   2.878   3.919   6.522 -0.3005 -1.5659 -1.0304
   6123SM   C5F 7831   3.028   3.777   6.576  0.5308  0.1274 -0.8459
   6123SM   H5F 7832   3.014   3.768   6.686 -0.8669  0.5427 -0.9794
   6123SM   H5G 7833   3.136   3.755   6.559  0.3540  0.0285 -1.9013
   6123SM   C6F 7834   2.940   3.679   6.498  0.0526  0.4228 -0.3303
   6123SM   H6F 7835   2.841   3.673   6.548 -0.4199 -0.5449 -1.3236
   6123SM   H6G 7836   2.978   3.575   6.510 -0.1686  0.4781  0.9841
   6123SM   C7F 7837   2.907   3.698   6.347  0.0684 -0.6208  0.3271
   6123SM   H7F 7838   2.859   3.798   6.345 -1.5164 -1.2838  2.2068
   6123SM   H7G 7839   2.839   3.617   6.313 -1.6859  1.3091 -0.9854
   6123SM   C8F 7840   3.035   3.698   6.258  0.5489  0.2300 -0.4254
   6123SM   H8F 7841   3.082   3.598   6.271 -1.1855 -0.5891 -0.2862
   6123SM   H8G 7842   3.114   3.772   6.284 -0.2685  0.6229  1.0979
   6123SM   C9F 7843   2.994   3.732   6.119 -1.2175  0.2501  0.2890
   6123SM   H9F 7844   2.992   3.843   6.108 -0.7913  0.2866  0.5333
   6123SM   H9G 7845   2.899   3.688   6.082 -1.7661  1.3061  0.4140
   6123SM  C10F 7846   3.102   3.683   6.026 -0.4300 -0.2265 -0.1375
   6123SM  H10F 7847   3.123   3.577   6.054 -0.6791 -0.6492 -1.4925
   6123SM  H10G 7848   3.196   3.741   6.040 -0.7638 -0.1105  1.9894
   6123SM  C11F 7849   3.061   3.685   5.876  0.4431 -0.9602  0.4359
   6123SM  H11F 7850   3.040   3.789   5.841 -0.2955 -1.6244 -1.2006
   6123SM  H11G 7851   2.963   3.633   5.879 -1.5691  2.4696  0.1472
   6123SM  C12F 7852   3.158   3.610   5.783  0.8619 -0.2518 -0.8918
   6123SM  H12F 7853   3.120   3.601   5.680 -1.3777  1.9130 -0.3584
   6123SM  H12G 7854   3.156   3.508   5.827 -0.2955 -0.0840 -0.5226
   6123SM  C13F 7855   3.288   3.683   5.760  0.0212 -0.3768 -0.6042
   6123SM  H13F 7856   3.335   3.699   5.860  0.1057 -0.7194 -0.5862
   6123SM  H13G 7857   3.272   3.779   5.708 -0.0833 -1.6143 -2.9970
   6123SM  C14F 7858   3.387   3.599   5.677  0.2522  0.0776 -0.0784
   6123SM  H14F 7859   3.475   3.663   5.657 -0.0687  0.0129 -1.7746
   6123SM  H14G 7860   3.334   3.582   5.581 -0.1916  0.8651  0.0097
   6123SM  C15F 7861   3.439   3.474   5.744 -0.6011  0.2172 -0.0978
   6123SM  H15F 7862   3.367   3.391   5.759 -0.4482 -0.0716 -0.9339
   6123SM  H15G 7863   3.483   3.502   5.842 -2.7921  1.1494  0.6790
   6123SM  C16F 7864   3.546   3.401   5.654  0.1006 -0.1587 -0.0381
   6123SM  H16F 7865   3.584   3.311   5.707 -1.6172 -2.1358 -1.9599
   6123SM  H16G 7866   3.634   3.468   5.648  1.8943 -2.5439 -2.3431
   6123SM  C17F 7867   3.499   3.352   5.516  0.0363 -0.0728 -0.0965
   6123SM  H17F 7868   3.579   3.288   5.474 -0.8503 -3.1510  2.5613
   6123SM  H17G 7869   3.476   3.442   5.454 -0.5337  0.3509  0.7139
   6123SM  C18F 7870   3.373   3.266   5.520 -0.1216 -0.8492 -0.5370
   6123SM  H18F 7871   3.360   3.226   5.417  0.3745 -0.7311 -0.6461
   6123SM  H18G 7872   3.278   3.319   5.545  0.8380  0.0806  1.3909
   6123SM  C19F 7873   3.387   3.138   5.604 -0.2567 -1.0125 -0.3108
   6123SM  H19F 7874   3.420   3.155   5.709 -0.0402 -2.7028 -0.0717
   6123SM  H19G 7875   3.472   3.085   5.555  1.0732 -0.4018  1.2433
   6123SM  C20F 7876   3.248   3.065   5.606 -0.0809  0.5887 -0.6464
   6123SM  H20F 7877   3.214   3.062   5.500  2.4880  3.2737 -1.6928
   6123SM  H20G 7878   3.174   3.126   5.662 -2.5090 -1.2726 -1.6876
   6123SM  C21F 7879   3.245   2.921   5.670 -0.1628 -0.1391 -0.5050
   6123SM  H21F 7880   3.338   2.868   5.639  0.9387  1.5428 -0.1855
   6123SM  H21G 7881   3.159   2.864   5.629 -0.2454 -0.6475  0.3375
   6123SM  C22F 7882   3.236   2.927   5.827  0.3335  0.2910  0.3457
   6123SM  H22F 7883   3.163   3.007   5.850  0.3376 -0.1669  2.1188
   6123SM  H22G 7884   3.335   2.945   5.874  0.3915 -0.8393  0.6699
   6123SM  C23F 7885   3.191   2.792   5.874  0.1355 -0.9128 -0.3473
   6123SM  H23F 7886   3.258   2.713   5.834 -1.3135 -1.1900 -2.3670
   6123SM  H23G 7887   3.089   2.754   5.853 -0.3921  0.2217  0.0872
   6123SM  H23H 7888   3.197   2.775   5.983  1.1398 -0.0176 -0.2406
   6223SM     N 7889   3.800   5.163   7.277  0.1814  0.2184 -0.6724
   6223SM   C15 7890   3.777   5.116   7.137 -0.4475 -0.0051  0.3664
   6223SM  H15A 7891   3.879   5.101   7.104  0.0116 -0.4317  1.8904
   6223SM  H15B 7892   3.730   5.196   7.081  1.4247  0.2424 -0.9404
   6223SM  H15C 7893   3.713   5.030   7.130  1.0701 -1.0268 -1.9855
   6223SM   C14 7894   3.883   5.297   7.269  0.0725  0.1756 -0.2057
   6223SM  H14A 7895   3.984   5.272   7.237  0.4114  0.9488  0.2332
   6223SM  H14B 7896   3.892   5.341   7.367 -0.2539 -1.3209  0.5223
   6223SM  H14C 7897   3.836   5.369   7.204  0.0106 -0.0558 -0.4214
   6223SM   C13 7898   3.665   5.206   7.317 -0.1138  0.0568  0.0301
   6223SM  H13A 7899   3.597   5.129   7.285  1.7015 -1.0049 -1.4960
   6223SM  H13B 7900   3.642   5.297   7.264  0.8728  1.5249  1.9840
   6223SM  H13C 7901   3.655   5.244   7.418 -0.0026  1.9887 -0.6422
   6223SM   C12 7902   3.871   5.060   7.361  0.1679  0.0406  0.0499
   6223SM  H12A 7903   3.893   5.103   7.458 -0.2932 -0.1595  0.2511
   6223SM  H12B 7904   3.965   5.049   7.310  0.4920  0.3793  0.5650
   6223SM   C11 7905   3.801   4.920   7.382 -0.1178 -0.6171  0.2775
   6223SM  H11A 7906   3.705   4.936   7.436  1.5400  0.9730  3.0034
   6223SM  H11B 7907   3.875   4.868   7.448  1.2188  0.5383 -0.2596
   6223SM     P 7908   3.909   4.761   7.219 -0.4709  0.4575  0.1854
   6223SM   O13 7909   4.035   4.839   7.222  0.6365 -0.0766 -0.0929
   6223SM   O14 7910   3.912   4.637   7.299  0.1843  0.0947 -0.0166
   6223SM   O11 7911   3.892   4.721   7.067 -0.2210  0.4123 -0.5354
   6223SM   O12 7912   3.786   4.845   7.262  0.3642 -0.2629 -0.0922
   6223SM   C1S 7913   3.882   4.816   6.957  0.5161 -0.3321 -0.6450
   6223SM   H1S 7914   3.905   4.919   6.991 -0.9985 -0.5770  1.3437
   6223SM   H1T 7915   3.774   4.824   6.931  0.5063  0.3295 -0.4194
   6223SM    NF 7916   3.963   4.877   6.749  0.2510  0.5545 -0.2678
   6223SM   HNF 7917   3.910   4.850   6.669  2.0042 -1.3785 -0.8724
   6223SM   C2S 7918   3.966   4.767   6.842  0.0379  0.1614  0.0670
   6223SM   H2S 7919   4.072   4.759   6.876 -0.5446 -0.4291  1.8363
   6223SM   C3S 7920   3.931   4.626   6.786  0.4414 -0.4218 -0.0358
   6223SM   H3S 7921   3.826   4.620   6.752 -0.2147  0.4133  1.7122
   6223SM    O3 7922   3.949   4.520   6.880 -0.0402 -0.2943  0.4760
   6223SM   HO3 7923   3.955   4.569   6.963 -0.8603 -0.9033  0.9082
   6223SM   C4S 7924   4.005   4.596   6.656 -0.5036  0.9226 -0.0550
   6223SM   H4S 7925   3.946   4.616   6.565 -1.1862 -0.5377  0.0359
   6223SM   C5S 7926   4.129   4.535   6.647 -0.0806 -0.1500 -0.6409
   6223SM   H5S 7927   4.188   4.536   6.740 -0.5019  0.7204 -0.3709
   6223SM   C6S 7928   4.195   4.491   6.525 -0.6802 -0.4590  0.2340
   6223SM   H6S 7929   4.122   4.439   6.459 -1.4276 -0.5871  1.1514
   6223SM   H6T 7930   4.258   4.409   6.567 -0.8040 -0.6334  0.0834
   6223SM   C7S 7931   4.278   4.603   6.460  0.2329 -0.1879 -0.1759
   6223SM   H7S 7932   4.353   4.645   6.530 -0.9959  0.8404  0.5526
   6223SM   H7T 7933   4.211   4.684   6.425  0.3527 -0.8700 -2.1425
   6223SM   C8S 7934   4.358   4.566   6.330  0.2073 -0.0334  0.1471
   6223SM   H8S 7935   4.450   4.508   6.352  1.7501  2.1240 -0.2390
   6223SM   H8T 7936   4.408   4.659   6.294 -0.6910  0.0302 -0.9937
   6223SM   C9S 7937   4.270   4.513   6.212  0.5184 -0.4307 -0.5378
   6223SM   H9S 7938   4.196   4.594   6.195  0.5946 -0.2720 -0.1289
   6223SM   H9T 7939   4.209   4.422   6.231 -3.5755  2.4612  1.8062
   6223SM  C10S 7940   4.348   4.491   6.084 -0.1163  0.2228  0.0577
   6223SM  H10S 7941   4.365   4.577   6.015 -0.2089 -0.4519 -0.8293
   6223SM  H10T 7942   4.285   4.434   6.012 -2.1999  0.9695  1.1825
   6223SM  C11S 7943   4.478   4.398   6.100  0.2187 -0.0423  0.3740
   6223SM  H11S 7944   4.442   4.303   6.146  1.3421  0.3064  2.0729
   6223SM  H11T 7945   4.559   4.440   6.163  2.3419 -0.4634 -1.9070
   6223SM  C12S 7946   4.532   4.379   5.960  0.2914  0.3035 -0.2354
   6223SM  H12S 7947   4.449   4.350   5.892  0.5616 -1.0129 -0.0363
   6223SM  H12T 7948   4.607   4.297   5.968  0.1453  0.1382 -0.5234
   6223SM  C13S 7949   4.592   4.506   5.899  0.2441 -0.1689 -0.0405
   6223SM  H13S 7950   4.658   4.538   5.982  0.9205 -2.9985  0.6130
   6223SM  H13T 7951   4.523   4.592   5.883 -2.5057 -2.0891  0.8413
   6223SM  C14S 7952   4.666   4.477   5.765  0.2954  0.6090 -0.4394
   6223SM  H14S 7953   4.738   4.393   5.778  0.2232  0.6701  0.3583
   6223SM  H14T 7954   4.716   4.575   5.752  0.4599  0.5967  0.0835
   6223SM  C15S 7955   4.571   4.436   5.652 -0.7036 -0.1176  0.0093
   6223SM  H15S 7956   4.497   4.518   5.641  0.1879  0.5628 -1.0785
   6223SM  H15T 7957   4.517   4.347   5.691  1.3926 -0.5883  2.0795
   6223SM  C16S 7958   4.645   4.395   5.524  0.7850 -0.5068  0.6037
   6223SM  H16S 7959   4.714   4.314   5.555  1.7631 -0.9870 -2.4848
   6223SM  H16T 7960   4.709   4.478   5.486 -0.5780  0.6032  0.6289
   6223SM  C17S 7961   4.549   4.350   5.413 -0.1212  0.3915  0.0558
   6223SM  H17S 7962   4.470   4.276   5.438  0.6572 -0.4242  0.1883
   6223SM  H17T 7963   4.608   4.302   5.332  1.2238  0.8552  0.7201
   6223SM  C18S 7964   4.496   4.481   5.349 -0.3265  0.5913 -0.0750
   6223SM  H18S 7965   4.447   4.540   5.428  1.4366  0.8687  0.8734
   6223SM  H18T 7966   4.428   4.462   5.263  1.4891  1.3169 -1.7622
   6223SM  H18U 7967   4.586   4.532   5.308  0.0230 -1.7001 -2.4129
   6223SM   C1F 7968   4.010   5.003   6.766  0.6025  0.7247 -0.7723
   6223SM    OF 7969   4.055   5.050   6.871  0.4491 -0.1577 -1.0172
   6223SM   C2F 7970   3.977   5.103   6.652 -0.2778 -0.5938  0.5308
   6223SM   H2F 7971   3.951   5.201   6.697 -0.1835 -0.7876  1.0118
   6223SM   H2G 7972   3.886   5.066   6.601 -1.4956  0.3031  1.9945
   6223SM   C3F 7973   4.097   5.104   6.552 -0.5978  0.4074  0.0464
   6223SM   H3F 7974   4.186   5.151   6.597  0.1782 -0.7049 -0.2932
   6223SM   H3G 7975   4.066   5.162   6.462  2.4371 -2.3573 -3.0860
   6223SM   C4F 7976   4.152   4.964   6.502 -0.5083 -0.0204  0.0338
   6223SM   H4F 7977   4.058   4.908   6.482 -1.9626  2.9148 -1.9330
   6223SM   H4G 7978   4.212   4.919   6.585  1.5943 -0.7764 -1.7924
   6223SM   C5F 7979   4.252   4.972   6.387  0.7346  0.6889  0.2775
   6223SM   H5F 7980   4.294   4.871   6.368 -2.4185 -0.6116 -0.4709
   6223SM   H5G 7981   4.334   5.036   6.427  0.4542 -0.3917  2.7989
   6223SM   C6F 7982   4.206   5.032   6.251 -0.5876  0.0970 -0.0080
   6223SM   H6F 7983   4.177   5.136   6.280 -1.0233 -0.2923  0.9843
   6223SM   H6G 7984   4.115   4.979   6.218 -0.8595  1.0614 -0.8759
   6223SM   C7F 7985   4.322   5.029   6.151  0.5102  0.4016  0.2222
   6223SM   H7F 7986   4.370   4.929   6.153  0.8709  0.5643  2.6131
   6223SM   H7G 7987   4.394   5.107   6.182  0.3780  0.0289  1.5019
   6223SM   C8F 7988   4.275   5.066   6.004 -0.4386  0.2036  0.1572
   6223SM   H8F 7989   4.258   5.174   5.983 -1.0539 -0.0085 -0.4922
   6223SM   H8G 7990   4.174   5.023   5.988 -0.3267 -0.3799  0.9875
   6223SM   C9F 7991   4.356   5.016   5.894 -0.6990 -0.1084 -0.0883
   6223SM   H9F 7992   4.359   4.905   5.900  1.7606  0.0081  3.0136
   6223SM   H9G 7993   4.460   5.047   5.916 -0.0822 -2.1044 -0.0104
   6223SM  C10F 7994   4.314   5.072   5.758  0.2444 -0.1606 -0.2550
   6223SM  H10F 7995   4.332   5.181   5.749 -0.2769  0.1979  2.3769
   6223SM  H10G 7996   4.205   5.052   5.750 -0.3223  0.7509  3.4847
   6223SM  C11F 7997   4.389   4.994   5.641  0.6821 -0.1195  0.5254
   6223SM  H11F 7998   4.394   4.884   5.661  0.0602 -0.0752  0.9598
   6223SM  H11G 7999   4.489   5.033   5.614  0.5476 -0.5379 -0.6178
   6223SM  C12F 8000   4.293   5.002   5.518 -0.0095 -0.1548  0.0324
   6223SM  H12F 8001   4.291   5.112   5.500 -2.9740  0.3808  2.6305
   6223SM  H12G 8002   4.195   4.970   5.560  0.8173 -0.9520  1.3958
   6223SM  C13F 8003   4.338   4.917   5.397  0.1988  0.5023 -0.1197
   6223SM  H13F 8004   4.374   4.821   5.440  1.9077  0.2280 -2.0329
   6223SM  H13G 8005   4.429   4.972   5.365 -0.3373  1.4120 -0.1122
   6223SM  C14F 8006   4.235   4.897   5.287 -0.0592 -0.1701  0.2167
   6223SM  H14F 8007   4.183   4.991   5.258  0.5857 -0.1105 -0.8314
   6223SM  H14G 8008   4.165   4.819   5.322 -0.9128  0.7726  0.6435
   6223SM  C15F 8009   4.292   4.846   5.153  0.2876 -0.4524 -0.2635
   6223SM  H15F 8010   4.213   4.814   5.082 -1.0859 -0.2741  1.1533
   6223SM  H15G 8011   4.360   4.761   5.177 -0.8322 -1.1824  0.3724
   6223SM  C16F 8012   4.363   4.947   5.061  0.5247 -0.1287 -0.0177
   6223SM  H16F 8013   4.431   5.004   5.128  0.0967  0.2409  0.1139
   6223SM  H16G 8014   4.286   5.020   5.027 -0.9916 -1.8020 -0.3177
   6223SM  C17F 8015   4.421   4.885   4.934 -1.0382 -0.1929  0.7751
   6223SM  H17F 8016   4.336   4.831   4.886 -1.4990 -0.7030  2.1009
   6223SM  H17G 8017   4.498   4.812   4.967 -0.7034 -0.9260 -1.5157
   6223SM  C18F 8018   4.498   4.975   4.828  0.2077  0.3833 -0.2200
   6223SM  H18F 8019   4.430   5.047   4.776  1.9201  1.9173 -0.4331
   6223SM  H18G 8020   4.543   4.900   4.760  1.6164  0.5898  0.4565
   6223SM  C19F 8021   4.610   5.061   4.888  0.1082 -0.0886  0.4063
   6223SM  H19F 8022   4.693   5.003   4.934 -0.4439 -0.9039  0.3980
   6223SM  H19G 8023   4.564   5.123   4.968 -2.9397  0.1220 -1.3655
   6223SM  C20F 8024   4.679   5.142   4.778  0.0385 -0.7786 -0.7901
   6223SM  H20F 8025   4.611   5.211   4.726 -4.0314 -3.5374  0.3672
   6223SM  H20G 8026   4.721   5.074   4.701  1.3510  0.4341 -1.1812
   6223SM  C21F 8027   4.811   5.218   4.825  0.6862  0.1943 -0.7133
   6223SM  H21F 8028   4.888   5.143   4.850 -0.8053 -1.7644 -1.6945
   6223SM  H21G 8029   4.790   5.269   4.921  3.3863 -0.8502  0.5171
   6223SM  C22F 8030   4.869   5.320   4.729 -0.3161 -0.2866 -0.2185
   6223SM  H22F 8031   4.813   5.415   4.721  0.4689  0.2126  0.0426
   6223SM  H22G 8032   4.875   5.276   4.628 -0.1519  0.0830 -0.3704
   6223SM  C23F 8033   5.019   5.345   4.782  0.5851 -0.2410  0.2387
   6223SM  H23F 8034   5.044   5.419   4.704 -2.9659  0.4214 -0.4526
   6223SM  H23G 8035   5.082   5.254   4.790  1.0085  0.1265  1.3017
   6223SM  H23H 8036   5.017   5.393   4.882 -0.9253 -1.9679  1.0929
   6323SM     N 8037   4.480   6.138   7.432 -0.7868 -0.0479 -0.2622
   6323SM   C15 8038   4.479   6.265   7.511 -0.5796 -0.1680 -0.1470
   6323SM  H15A 8039   4.560   6.282   7.580 -1.1211 -0.6030  0.6122
   6323SM  H15B 8040   4.389   6.267   7.570  0.1689 -0.3454  1.0256
   6323SM  H15C 8041   4.469   6.351   7.446 -0.6872  1.6871  2.2004
   6323SM   C14 8042   4.472   6.024   7.524 -1.1065 -0.3427 -0.4500
   6323SM  H14A 8043   4.531   6.039   7.613 -1.0905 -1.1529 -0.3218
   6323SM  H14B 8044   4.506   5.940   7.466 -2.0422  1.2139 -3.4716
   6323SM  H14C 8045   4.370   6.016   7.559 -1.3236  4.0263  0.5550
   6323SM   C13 8046   4.358   6.131   7.345 -0.3304 -0.2214  1.2518
   6323SM  H13A 8047   4.369   6.055   7.269 -0.2983  0.5219  0.4995
   6323SM  H13B 8048   4.355   6.222   7.287  0.5544  0.9691  3.0101
   6323SM  H13C 8049   4.270   6.110   7.403  0.3873 -1.7629  1.8319
   6323SM   C12 8050   4.603   6.138   7.350 -0.1067 -0.2582  0.2788
   6323SM  H12A 8051   4.690   6.169   7.407  0.9096  0.8692 -1.7888
   6323SM  H12B 8052   4.596   6.211   7.271 -2.2011  1.0248  1.5414
   6323SM   C11 8053   4.640   6.003   7.281  0.0810  0.0575  0.0498
   6323SM  H11A 8054   4.666   5.930   7.360 -0.1094 -0.0700 -0.0046
   6323SM  H11B 8055   4.727   6.011   7.212  0.3114  1.2100  0.4491
   6323SM     P 8056   4.498   5.793   7.187  0.3455 -0.2295 -0.0243
   6323SM   O13 8057   4.607   5.711   7.240  0.0814 -0.2904  0.6840
   6323SM   O14 8058   4.367   5.769   7.255  0.2392  0.5484  0.4637
   6323SM   O11 8059   4.482   5.778   7.031 -0.5962 -0.5619 -0.4718
   6323SM   O12 8060   4.527   5.952   7.198  0.1579 -0.2764 -0.5872
   6323SM   C1S 8061   4.391   5.845   6.942  0.4519  0.1473  0.3287
   6323SM   H1S 8062   4.437   5.944   6.921 -0.3791  1.6277  4.5196
   6323SM   H1T 8063   4.291   5.857   6.990 -0.7486 -1.1704 -1.7017
   6323SM    NF 8064   4.298   5.829   6.716 -0.5989 -0.2161 -0.1333
   6323SM   HNF 8065   4.199   5.814   6.720 -0.4777 -1.1204 -0.1904
   6323SM   C2S 8066   4.385   5.759   6.811  0.3820 -0.4692  0.5772
   6323SM   H2S 8067   4.490   5.764   6.774  0.8031  0.7548  1.8521
   6323SM   C3S 8068   4.343   5.612   6.849 -0.1485  0.8946  0.3531
   6323SM   H3S 8069   4.237   5.603   6.878 -0.4223 -0.2878 -0.9291
   6323SM    O3 8070   4.407   5.544   6.960 -0.1190  0.6837  0.2882
   6323SM   HO3 8071   4.466   5.613   6.991 -1.9185  2.5393 -0.1716
   6323SM   C4S 8072   4.341   5.526   6.729  0.4646  0.4180 -0.1344
   6323SM   H4S 8073   4.235   5.519   6.698  0.1066 -1.6739  1.3249
   6323SM   C5S 8074   4.449   5.483   6.656  0.2012  0.5456  0.2542
   6323SM   H5S 8075   4.553   5.507   6.680  0.5434  0.7769 -1.3419
   6323SM   C6S 8076   4.420   5.401   6.525 -0.3800  0.1653 -0.1450
   6323SM   H6S 8077   4.315   5.424   6.496 -1.3810 -0.6590  2.5361
   6323SM   H6T 8078   4.433   5.294   6.549  1.5495  0.5928  0.9516
   6323SM   C7S 8079   4.505   5.454   6.405  0.3041 -0.3265  0.1442
   6323SM   H7S 8080   4.614   5.442   6.421  0.1600 -1.9462  0.0579
   6323SM   H7T 8081   4.495   5.564   6.392  1.2872 -0.0258  1.6862
   6323SM   C8S 8082   4.477   5.371   6.282 -0.1840 -0.1028  0.2382
   6323SM   H8S 8083   4.370   5.379   6.254 -0.8202 -1.9938  1.9072
   6323SM   H8T 8084   4.495   5.263   6.300 -1.3427 -0.5674 -1.1895
   6323SM   C9S 8085   4.567   5.426   6.173  0.4694  0.1319  0.6948
   6323SM   H9S 8086   4.671   5.437   6.211  0.4145  3.1207  0.2034
   6323SM   H9T 8087   4.531   5.527   6.144 -3.4066 -0.7206  1.9354
   6323SM  C10S 8088   4.558   5.332   6.045  0.7507 -0.2331  0.2687
   6323SM  H10S 8089   4.451   5.340   6.016  1.4360 -0.1957 -2.5721
   6323SM  H10T 8090   4.605   5.233   6.062  2.2819  0.2660 -0.8464
   6323SM  C11S 8091   4.622   5.392   5.921  0.1553  0.3834  0.0345
   6323SM  H11S 8092   4.731   5.412   5.931  0.4181 -0.8578 -0.2395
   6323SM  H11T 8093   4.575   5.489   5.896 -0.5872 -0.0131 -0.1181
   6323SM  C12S 8094   4.602   5.304   5.799 -0.3145  0.6626  0.6322
   6323SM  H12S 8095   4.498   5.290   5.762  0.1636 -0.5580 -0.2902
   6323SM  H12T 8096   4.640   5.203   5.822  0.0331  1.2684  3.0107
   6323SM  C13S 8097   4.677   5.365   5.683 -0.6310  0.3585  1.1001
   6323SM  H13S 8098   4.786   5.371   5.703 -0.2644 -2.3218  0.2749
   6323SM  H13T 8099   4.647   5.469   5.661 -1.1578  0.2055  1.0660
   6323SM  C14S 8100   4.648   5.295   5.542 -0.2794 -0.7548  0.1987
   6323SM  H14S 8101   4.542   5.262   5.537 -0.9584  1.3836 -0.9833
   6323SM  H14T 8102   4.712   5.205   5.538 -2.2557 -2.2925  1.4384
   6323SM  C15S 8103   4.668   5.395   5.426 -0.2567 -0.4349 -1.1512
   6323SM  H15S 8104   4.777   5.419   5.430 -0.5670  0.9079  0.3167
   6323SM  H15T 8105   4.611   5.486   5.456  0.1376 -1.0171  1.5997
   6323SM  C16S 8106   4.642   5.340   5.287  0.0688  0.2688 -0.0260
   6323SM  H16S 8107   4.537   5.307   5.278  0.3365 -0.4512 -0.6128
   6323SM  H16T 8108   4.707   5.253   5.265 -0.8964 -1.1576  2.3699
   6323SM  C17S 8109   4.647   5.440   5.164  0.1383 -0.5918  0.2465
   6323SM  H17S 8110   4.586   5.529   5.194 -0.6264 -0.6551 -1.0601
   6323SM  H17T 8111   4.609   5.392   5.072 -1.2383 -0.8597  0.9341
   6323SM  C18S 8112   4.791   5.492   5.140  0.3379 -0.1154  0.6739
   6323SM  H18S 8113   4.865   5.409   5.142 -0.0296 -0.6124 -2.3888
   6323SM  H18T 8114   4.826   5.555   5.225  1.5340  2.2561 -1.4093
   6323SM  H18U 8115   4.812   5.556   5.051  2.3591 -2.0166 -0.3014
   6323SM   C1F 8116   4.338   5.943   6.662  0.4332 -0.7216 -0.2549
   6323SM    OF 8117   4.452   5.975   6.685 -0.0225 -0.0342 -0.0480
   6323SM   C2F 8118   4.237   6.015   6.569 -0.3188 -0.1808 -0.0265
   6323SM   H2F 8119   4.198   6.106   6.620  1.0870  0.6834 -0.4425
   6323SM   H2G 8120   4.150   5.947   6.561 -1.8450  1.1588  3.3399
   6323SM   C3F 8121   4.301   6.055   6.436  0.7825 -0.3090 -0.1887
   6323SM   H3F 8122   4.382   6.130   6.440  0.8656 -0.4407  0.8058
   6323SM   H3G 8123   4.225   6.105   6.372 -0.0542  1.2559  1.8907
   6323SM   C4F 8124   4.339   5.922   6.353 -0.4363  1.1345  0.0001
   6323SM   H4F 8125   4.432   5.874   6.390 -0.2122  0.5936 -1.2161
   6323SM   H4G 8126   4.356   5.946   6.246 -0.8167 -0.3116 -0.3962
   6323SM   C5F 8127   4.231   5.817   6.343 -0.0250  0.0009 -0.3288
   6323SM   H5F 8128   4.129   5.859   6.328  0.7561  1.9272 -0.5832
   6323SM   H5G 8129   4.224   5.766   6.441 -2.3730 -1.7974 -1.3293
   6323SM   C6F 8130   4.253   5.700   6.242 -0.3128 -0.2935  0.0374
   6323SM   H6F 8131   4.181   5.619   6.269  0.6274 -0.7340  1.2796
   6323SM   H6G 8132   4.355   5.658   6.251  0.1106  0.9804  1.6190
   6323SM   C7F 8133   4.237   5.751   6.096  0.5240 -0.7513  0.8292
   6323SM   H7F 8134   4.316   5.828   6.084  0.1720 -0.4763  0.2456
   6323SM   H7G 8135   4.139   5.800   6.078  0.6713 -1.0731 -1.0889
   6323SM   C8F 8136   4.241   5.643   5.992  0.3606  0.3815 -1.1679
   6323SM   H8F 8137   4.148   5.583   5.984  2.4470 -3.6156  1.0798
   6323SM   H8G 8138   4.311   5.561   6.020 -1.1019 -0.2535  0.7945
   6323SM   C9F 8139   4.288   5.678   5.854 -0.1765  0.1768 -0.6220
   6323SM   H9F 8140   4.392   5.718   5.850 -0.1875  0.6000  1.7575
   6323SM   H9G 8141   4.227   5.761   5.812  0.5081 -0.4717 -3.0724
   6323SM  C10F 8142   4.272   5.560   5.764 -0.3279  0.1035 -0.8951
   6323SM  H10F 8143   4.165   5.531   5.769 -0.4433  0.3872 -1.6038
   6323SM  H10G 8144   4.337   5.478   5.801  0.3355  0.5999 -0.9404
   6323SM  C11F 8145   4.318   5.578   5.619  0.1112 -0.6149  0.2851
   6323SM  H11F 8146   4.425   5.608   5.625 -0.2976  1.0868 -0.4598
   6323SM  H11G 8147   4.254   5.663   5.588 -0.1540 -0.6804  0.6399
   6323SM  C12F 8148   4.301   5.456   5.530 -0.4578  0.2115 -0.2038
   6323SM  H12F 8149   4.198   5.420   5.552  0.7249 -1.5907  3.2700
   6323SM  H12G 8150   4.366   5.368   5.549 -0.3089 -0.0368 -1.7502
   6323SM  C13F 8151   4.312   5.499   5.385  0.1288  0.4695  0.0248
   6323SM  H13F 8152   4.419   5.515   5.356  0.3888 -1.5059 -0.2796
   6323SM  H13G 8153   4.256   5.594   5.374  1.3823  0.9490 -3.9374
   6323SM  C14F 8154   4.258   5.394   5.294  1.2964  0.2707 -0.2239
   6323SM  H14F 8155   4.159   5.358   5.332  0.5157  2.2336 -0.3116
   6323SM  H14G 8156   4.322   5.303   5.298  0.4781 -0.3003  0.2762
   6323SM  C15F 8157   4.249   5.435   5.145  0.3146  0.0961  0.1909
   6323SM  H15F 8158   4.348   5.477   5.118  0.4616  0.5889  1.4287
   6323SM  H15G 8159   4.175   5.517   5.142  0.5872  0.3086 -0.8149
   6323SM  C16F 8160   4.197   5.320   5.053  0.0128 -0.0780 -0.6011
   6323SM  H16F 8161   4.101   5.277   5.089  0.2818 -0.5646 -0.4525
   6323SM  H16G 8162   4.273   5.239   5.046  1.0397  0.6946  0.9672
   6323SM  C17F 8163   4.178   5.378   4.910 -0.2345 -0.1911  0.2697
   6323SM  H17F 8164   4.269   5.428   4.871 -0.0602 -1.0034 -0.3860
   6323SM  H17G 8165   4.102   5.459   4.911 -0.6310 -0.5693  1.1677
   6323SM  C18F 8166   4.136   5.283   4.794 -0.3716  0.1045 -0.3310
   6323SM  H18F 8167   4.216   5.207   4.780  0.0008  0.4762 -0.2354
   6323SM  H18G 8168   4.129   5.343   4.701 -0.6139  0.4146 -0.1115
   6323SM  C19F 8169   4.007   5.215   4.818  0.2247  0.4789 -0.4126
   6323SM  H19F 8170   3.938   5.300   4.841  1.8734  1.9721 -0.7435
   6323SM  H19G 8171   4.016   5.152   4.909  0.6251  0.8613 -0.1809
   6323SM  C20F 8172   3.955   5.140   4.693 -0.8867  0.4094  0.3254
   6323SM  H20F 8173   4.011   5.044   4.687  0.1706  1.0246  0.2966
   6323SM  H20G 8174   3.983   5.203   4.607 -1.2313  0.8587  0.5367
   6323SM  C21F 8175   3.809   5.113   4.707 -0.5026 -0.1727  0.2605
   6323SM  H21F 8176   3.788   5.062   4.804 -1.1292 -0.8933 -0.2494
   6323SM  H21G 8177   3.783   5.033   4.635 -1.4769 -0.8429  1.3228
   6323SM  C22F 8178   3.722   5.236   4.698  0.0729  0.0936  0.7422
   6323SM  H22F 8179   3.723   5.294   4.792 -0.6436  2.4081 -0.5758
   6323SM  H22G 8180   3.614   5.213   4.692 -0.3118  0.9796  3.3106
   6323SM  C23F 8181   3.763   5.341   4.591 -0.4510  0.3212 -0.4182
   6323SM  H23F 8182   3.829   5.419   4.635 -0.2183  0.1099 -0.3940
   6323SM  H23G 8183   3.667   5.389   4.563  0.1603  0.8682 -1.6965
   6323SM  H23H 8184   3.807   5.300   4.497  1.6771 -1.0355  1.0741
   6423SM     N 8185   4.896   3.892   7.573  0.1118  0.0246  0.0266
   6423SM   C15 8186   5.006   3.841   7.659 -0.3159  0.4997 -0.3322
   6423SM  H15A 8187   5.015   3.895   7.752  1.7526 -2.4344  1.3184
   6423SM  H15B 8188   5.100   3.845   7.607  0.5696 -0.4826  1.1230
   6423SM  H15C 8189   4.997   3.736   7.683  0.0875  0.5333 -0.0272
   6423SM   C14 8190   4.766   3.886   7.640  0.0756 -0.2794 -0.7871
   6423SM  H14A 8191   4.778   3.877   7.747 -0.5460 -2.1411 -0.8286
   6423SM  H14B 8192   4.704   3.803   7.609  0.0695 -0.0346 -1.4449
   6423SM  H14C 8193   4.706   3.975   7.627 -0.6380  0.3612  4.4730
   6423SM   C13 8194   4.921   4.034   7.537 -0.8601  0.2882 -0.1273
   6423SM  H13A 8195   5.020   4.033   7.495 -0.5457 -0.2117  0.6317
   6423SM  H13B 8196   4.923   4.112   7.612  1.7502  2.5280 -2.2967
   6423SM  H13C 8197   4.855   4.066   7.457 -0.3425 -1.2374 -1.2101
   6423SM   C12 8198   4.889   3.815   7.444  0.0062  0.0701  0.4944
   6423SM  H12A 8199   4.814   3.862   7.381  0.6986  0.7934  0.1810
   6423SM  H12B 8200   4.855   3.714   7.462  3.0518 -1.2424 -0.5166
   6423SM   C11 8201   5.012   3.807   7.352 -0.1766  0.5055  0.4678
   6423SM  H11A 8202   5.044   3.911   7.331 -0.3558  0.3685 -0.5577
   6423SM  H11B 8203   4.981   3.763   7.254 -1.1270  0.7183  0.6601
   6423SM     P 8204   5.268   3.751   7.398 -0.6852  0.5243  0.3024
   6423SM   O13 8205   5.313   3.851   7.489  0.3386  0.1654  0.0578
   6423SM   O14 8206   5.331   3.622   7.412 -0.9346 -0.0197 -0.0828
   6423SM   O11 8207   5.284   3.810   7.242 -0.2206  0.2740 -0.1502
   6423SM   O12 8208   5.119   3.734   7.411  0.3147 -0.4660  0.2721
   6423SM   C1S 8209   5.255   3.722   7.132 -0.1962  0.0714 -0.0027
   6423SM   H1S 8210   5.147   3.694   7.126 -0.0020 -0.7585  0.1846
   6423SM   H1T 8211   5.304   3.623   7.143  0.4842  0.4502  0.4813
   6423SM    NF 8212   5.287   3.669   6.887 -0.7277 -0.3905  0.0326
   6423SM   HNF 8213   5.375   3.627   6.864  0.3718  1.0780  1.3181
   6423SM   C2S 8214   5.292   3.773   6.985  0.0643  0.5494  0.6660
   6423SM   H2S 8215   5.217   3.848   6.950  2.0571  1.7091 -1.4316
   6423SM   C3S 8216   5.435   3.840   6.989 -0.0787  1.0626 -0.1359
   6423SM   H3S 8217   5.514   3.767   7.013 -2.0684 -1.2396 -0.1734
   6423SM    O3 8218   5.439   3.937   7.093  0.6784 -0.6709 -0.1721
   6423SM   HO3 8219   5.364   3.916   7.150  2.8768 -1.0377  2.8141
   6423SM   C4S 8220   5.471   3.898   6.855 -0.8440  0.7539 -0.6625
   6423SM   H4S 8221   5.390   3.953   6.804 -2.9683 -1.2426  0.3379
   6423SM   C5S 8222   5.589   3.874   6.796  0.2571 -0.0348 -0.3387
   6423SM   H5S 8223   5.662   3.820   6.858 -2.4319 -0.9096  2.2874
   6423SM   C6S 8224   5.615   3.920   6.655 -0.6372 -0.3540  0.2654
   6423SM   H6S 8225   5.686   4.005   6.653 -0.5990 -0.3549  1.1174
   6423SM   H6T 8226   5.524   3.955   6.603 -0.0708  0.1489 -0.4020
   6423SM   C7S 8227   5.673   3.808   6.569  0.2528  0.3875 -0.9310
   6423SM   H7S 8228   5.771   3.784   6.615 -1.1263 -1.0485  1.4413
   6423SM   H7T 8229   5.679   3.851   6.466  1.8663 -1.0626 -1.4712
   6423SM   C8S 8230   5.579   3.682   6.572  0.3952  0.2002  0.4679
   6423SM   H8S 8231   5.473   3.704   6.544  0.4667  0.0198  0.0534
   6423SM   H8T 8232   5.565   3.643   6.675 -3.4315 -2.4606 -0.7741
   6423SM   C9S 8233   5.643   3.571   6.477  0.3333 -0.5123  0.0192
   6423SM   H9S 8234   5.746   3.565   6.518  0.1745  0.4473  0.5918
   6423SM   H9T 8235   5.654   3.611   6.374  2.4205  1.1311  0.7976
   6423SM  C10S 8236   5.566   3.440   6.491 -0.2043  0.1290 -0.1634
   6423SM  H10S 8237   5.466   3.480   6.467  0.4249  1.6102 -0.3901
   6423SM  H10T 8238   5.567   3.409   6.598 -0.1825  1.3238  0.1925
   6423SM  C11S 8239   5.609   3.321   6.401 -0.1683  0.0468  0.1783
   6423SM  H11S 8240   5.563   3.231   6.448  1.1351 -0.9572 -0.4148
   6423SM  H11T 8241   5.719   3.332   6.400 -0.4507  5.0831 -0.9645
   6423SM  C12S 8242   5.549   3.310   6.259  0.6821 -0.4352 -0.0996
   6423SM  H12S 8243   5.439   3.305   6.274  0.8575 -0.7927  1.1268
   6423SM  H12T 8244   5.582   3.210   6.222  2.1042 -0.8363  2.0964
   6423SM  C13S 8245   5.574   3.424   6.167 -0.3255  0.3226  0.6424
   6423SM  H13S 8246   5.680   3.455   6.155 -0.4730  0.9003  0.8005
   6423SM  H13T 8247   5.524   3.515   6.207 -0.5451  0.5267 -0.0836
   6423SM  C14S 8248   5.515   3.391   6.024  0.2554  0.6456  0.0541
   6423SM  H14S 8249   5.410   3.355   6.028  0.3443  0.4884  1.3297
   6423SM  H14T 8250   5.573   3.309   5.977 -2.0398 -0.6410 -0.6583
   6423SM  C15S 8251   5.528   3.515   5.941 -0.3429  0.1626 -0.8477
   6423SM  H15S 8252   5.481   3.600   5.994 -1.8275  0.2857 -2.2762
   6423SM  H15T 8253   5.463   3.507   5.851 -1.9769  2.9109 -0.0363
   6423SM  C16S 8254   5.676   3.541   5.886 -0.0559 -0.0805 -0.1213
   6423SM  H16S 8255   5.704   3.452   5.825  2.2505  0.8248 -0.4718
   6423SM  H16T 8256   5.741   3.540   5.976 -0.7065 -1.3047  0.3556
   6423SM  C17S 8257   5.690   3.659   5.793 -0.1141  0.0109 -0.0278
   6423SM  H17S 8258   5.645   3.742   5.852 -0.8373  0.9942 -1.8879
   6423SM  H17T 8259   5.622   3.654   5.705  0.0487  0.7433 -0.2072
   6423SM  C18S 8260   5.827   3.679   5.735  0.4329  0.1893  0.4628
   6423SM  H18S 8261   5.889   3.686   5.827 -1.3352  1.0863  1.6341
   6423SM  H18T 8262   5.831   3.771   5.672 -2.9111  0.5982  0.7028
   6423SM  H18U 8263   5.865   3.587   5.686  1.7616 -0.7957  3.1786
   6423SM   C1F 8264   5.181   3.588   6.860  0.6850  0.5208 -0.5191
   6423SM    OF 8265   5.070   3.628   6.891 -0.7031  0.0108 -0.2754
   6423SM   C2F 8266   5.211   3.456   6.789  0.1865 -0.4563 -0.2858
   6423SM   H2F 8267   5.255   3.387   6.864 -0.5994 -0.4212  0.2246
   6423SM   H2G 8268   5.274   3.484   6.703 -0.3477 -0.6513 -0.7457
   6423SM   C3F 8269   5.084   3.395   6.734 -0.3164  0.2508 -0.0740
   6423SM   H3F 8270   5.011   3.469   6.695 -1.5658 -1.2164 -0.6228
   6423SM   H3G 8271   5.035   3.342   6.819  2.1290 -0.3742  1.0411
   6423SM   C4F 8272   5.123   3.292   6.638 -0.2183 -0.3181  0.3933
   6423SM   H4F 8273   5.032   3.238   6.605  1.5229 -1.2972 -3.3271
   6423SM   H4G 8274   5.183   3.218   6.694 -0.6138 -0.3720  0.7529
   6423SM   C5F 8275   5.195   3.342   6.505  0.3572  0.4233  0.2781
   6423SM   H5F 8276   5.238   3.252   6.457 -2.2771  0.5766 -2.6655
   6423SM   H5G 8277   5.285   3.407   6.519  0.4516  0.8736 -2.0975
   6423SM   C6F 8278   5.096   3.402   6.408  0.4144 -0.3339 -0.5924
   6423SM   H6F 8279   5.061   3.500   6.448  2.6153 -0.7734  2.7996
   6423SM   H6G 8280   5.010   3.333   6.402  1.0449 -0.9880 -2.6324
   6423SM   C7F 8281   5.138   3.433   6.264 -0.6148 -0.3847 -0.0109
   6423SM   H7F 8282   5.185   3.337   6.232  0.5419  0.1107  0.1663
   6423SM   H7G 8283   5.214   3.513   6.272 -0.5566 -0.3457 -0.8523
   6423SM   C8F 8284   5.015   3.482   6.183  0.1627  0.1281  0.2058
   6423SM   H8F 8285   4.978   3.572   6.236  1.8603  0.8801  0.1704
   6423SM   H8G 8286   4.933   3.408   6.200  1.3227 -0.8185  1.9971
   6423SM   C9F 8287   5.046   3.502   6.034 -0.1289 -0.3433  0.0201
   6423SM   H9F 8288   5.082   3.401   6.006 -0.1603 -1.5298  3.7291
   6423SM   H9G 8289   5.133   3.570   6.021  0.3036 -0.9815 -0.4543
   6423SM  C10F 8290   4.930   3.532   5.940  0.0322 -0.4245  0.2664
   6423SM  H10F 8291   4.893   3.636   5.951  0.9227  0.2833 -2.5195
   6423SM  H10G 8292   4.854   3.451   5.943  2.2822 -2.6482  1.0193
   6423SM  C11F 8293   4.963   3.524   5.787 -0.5312  0.5738 -0.2777
   6423SM  H11F 8294   4.988   3.417   5.771  1.4006  0.8630  0.5809
   6423SM  H11G 8295   5.057   3.570   5.751 -0.0521 -1.5519 -1.8706
   6423SM  C12F 8296   4.851   3.572   5.692 -0.4899  0.5535  0.1926
   6423SM  H12F 8297   4.829   3.679   5.710  1.9966  1.1285  0.1546
   6423SM  H12G 8298   4.761   3.516   5.724 -0.8440  0.6649 -0.5756
   6423SM  C13F 8299   4.893   3.549   5.544 -0.5773 -0.1729 -0.0823
   6423SM  H13F 8300   4.881   3.442   5.518  2.1023 -0.2980 -1.1373
   6423SM  H13G 8301   4.997   3.587   5.537 -1.1121  1.1348 -1.3351
   6423SM  C14F 8302   4.799   3.624   5.447  0.2888  0.3942  0.1712
   6423SM  H14F 8303   4.801   3.732   5.474  1.0763  0.2895  0.5638
   6423SM  H14G 8304   4.697   3.585   5.468 -0.1642  1.1563 -0.5803
   6423SM  C15F 8305   4.836   3.618   5.301  0.3455 -0.3288  0.5015
   6423SM  H15F 8306   4.847   3.511   5.271  2.2416  0.0040 -0.0739
   6423SM  H15G 8307   4.932   3.667   5.278 -0.6077  0.9887 -0.8998
   6423SM  C16F 8308   4.734   3.687   5.220  0.3418 -0.4412  0.5716
   6423SM  H16F 8309   4.633   3.665   5.260  0.7511 -1.1370  1.2397
   6423SM  H16G 8310   4.740   3.642   5.118 -1.4060 -0.9496  0.6496
   6423SM  C17F 8311   4.750   3.839   5.202  0.4060  0.2359  0.6558
   6423SM  H17F 8312   4.851   3.859   5.161  0.9802 -1.4253  1.1718
   6423SM  H17G 8313   4.734   3.889   5.300 -0.3906  2.4061 -0.5117
   6423SM  C18F 8314   4.655   3.888   5.096  0.3265 -0.1988  0.1609
   6423SM  H18F 8315   4.548   3.889   5.129  0.6497  3.0790  1.4836
   6423SM  H18G 8316   4.661   3.822   5.007 -2.2311  0.3084 -0.4692
   6423SM  C19F 8317   4.677   4.038   5.052 -0.0209  0.3848  0.4292
   6423SM  H19F 8318   4.784   4.054   5.030  0.0776 -2.3472 -1.4661
   6423SM  H19G 8319   4.641   4.104   5.134 -0.6027 -0.2375  0.6843
   6423SM  C20F 8320   4.599   4.066   4.918 -0.2881  0.8715  0.1124
   6423SM  H20F 8321   4.493   4.036   4.938 -0.5709  1.0713 -0.9828
   6423SM  H20G 8322   4.645   4.004   4.837  1.3201  2.5794 -0.3311
   6423SM  C21F 8323   4.598   4.208   4.878 -0.5348  0.6025  0.2264
   6423SM  H21F 8324   4.530   4.208   4.791  0.5429  0.7276 -0.6315
   6423SM  H21G 8325   4.693   4.244   4.835 -1.0686  2.6125  0.6472
   6423SM  C22F 8326   4.559   4.313   4.975 -0.3099 -0.8061 -0.2933
   6423SM  H22F 8327   4.641   4.325   5.049 -0.8772  0.2645  0.1838
   6423SM  H22G 8328   4.470   4.287   5.036 -1.4854  2.2513 -0.5294
   6423SM  C23F 8329   4.543   4.456   4.912 -0.1353 -0.3521  0.7018
   6423SM  H23F 8330   4.446   4.467   4.859  0.2977 -1.8036 -0.4446
   6423SM  H23G 8331   4.624   4.469   4.837 -0.4492  1.0407  0.5873
   6423SM  H23H 8332   4.543   4.541   4.984  0.4935  1.0778 -0.9242
   6523SM     N 8333   6.183   3.874   7.217 -0.0035  0.4263 -0.1722
   6523SM   C15 8334   6.183   3.735   7.157 -0.5239 -0.2943 -0.0842
   6523SM  H15A 8335   6.219   3.738   7.055  0.2103 -1.2140  0.1381
   6523SM  H15B 8336   6.081   3.700   7.151 -0.8823  0.6542  0.3075
   6523SM  H15C 8337   6.251   3.667   7.206  1.8889  0.4137 -2.1905
   6523SM   C14 8338   6.318   3.937   7.219  0.2782 -0.4279  0.3530
   6523SM  H14A 8339   6.310   4.039   7.254 -1.0446 -0.6346  0.7001
   6523SM  H14B 8340   6.344   3.940   7.114  0.3004 -1.8435  0.3073
   6523SM  H14C 8341   6.376   3.874   7.285  0.2214 -0.3514  0.4748
   6523SM   C13 8342   6.092   3.956   7.132 -0.4922 -0.1813 -0.5160
   6523SM  H13A 8343   6.130   3.960   7.030  1.5390 -3.7558 -0.0662
   6523SM  H13B 8344   6.077   4.051   7.180 -1.5763 -0.7614  0.3384
   6523SM  H13C 8345   5.995   3.908   7.123  0.1537 -1.3196 -1.9225
   6523SM   C12 8346   6.122   3.862   7.360 -0.3472 -0.3459  0.2011
   6523SM  H12A 8347   6.190   3.804   7.421 -1.2946 -0.7634  0.8825
   6523SM  H12B 8348   6.029   3.808   7.363 -0.1892 -0.7153 -0.8285
   6523SM   C11 8349   6.092   3.995   7.429  0.4822 -0.4431 -0.1173
   6523SM  H11A 8350   6.187   4.053   7.437  0.8385 -0.9379 -0.6189
   6523SM  H11B 8351   6.052   3.980   7.531  1.6025 -0.5044  0.3256
   6523SM     P 8352   5.865   4.134   7.405 -0.3638  0.0631 -0.0147
   6523SM   O13 8353   5.766   4.129   7.291 -0.2817  0.2590  0.2233
   6523SM   O14 8354   5.831   4.066   7.532  0.5143  0.2661  0.0286
   6523SM   O11 8355   5.903   4.282   7.436  0.5051 -0.0466 -0.1669
   6523SM   O12 8356   6.008   4.085   7.355  0.4837 -0.4269  0.2142
   6523SM   C1S 8357   5.982   4.368   7.353 -0.9557 -0.2771 -0.2880
   6523SM   H1S 8358   6.074   4.307   7.338 -2.5436 -3.5460  2.0681
   6523SM   H1T 8359   6.013   4.458   7.411 -2.1028 -2.0830  3.3953
   6523SM    NF 8360   6.030   4.477   7.140 -0.4509  0.2380 -0.4862
   6523SM   HNF 8361   6.030   4.575   7.122  0.9905  0.0355 -1.8986
   6523SM   C2S 8362   5.926   4.411   7.221 -0.0885 -0.1805  0.4478
   6523SM   H2S 8363   5.893   4.327   7.156 -0.7919 -0.0131  0.5713
   6523SM   C3S 8364   5.786   4.487   7.251 -0.0342  0.7613 -0.4791
   6523SM   H3S 8365   5.803   4.539   7.348  1.4851 -0.3791 -0.1048
   6523SM    O3 8366   5.676   4.391   7.261 -0.4317  0.5572 -0.4650
   6523SM   HO3 8367   5.710   4.305   7.235 -0.7535 -0.7011  2.7572
   6523SM   C4S 8368   5.756   4.583   7.135 -0.9273  0.2716  0.2984
   6523SM   H4S 8369   5.785   4.686   7.160 -0.0312  0.3057 -0.8040
   6523SM   C5S 8370   5.692   4.552   7.017  0.8956 -0.1600  0.1678
   6523SM   H5S 8371   5.654   4.450   7.001  0.8085  0.0743 -1.2321
   6523SM   C6S 8372   5.673   4.660   6.910 -0.0190  0.2026 -0.5168
   6523SM   H6S 8373   5.594   4.725   6.954 -1.0612 -1.3238 -0.0343
   6523SM   H6T 8374   5.636   4.601   6.823  1.4560 -1.1415 -0.2787
   6523SM   C7S 8375   5.788   4.749   6.866  0.1016  0.3830  0.5239
   6523SM   H7S 8376   5.870   4.687   6.823 -1.6340 -2.3883  0.9721
   6523SM   H7T 8377   5.831   4.803   6.953 -1.0262 -0.4486  1.6338
   6523SM   C8S 8378   5.738   4.836   6.751  0.3155 -0.1979  0.0230
   6523SM   H8S 8379   5.682   4.926   6.785  0.9394  0.1540  0.1304
   6523SM   H8T 8380   5.666   4.774   6.693 -1.2478  0.8866  0.7440
   6523SM   C9S 8381   5.846   4.900   6.659  0.2240 -0.0003 -0.0692
   6523SM   H9S 8382   5.898   4.821   6.601  1.2427  0.4567  0.2048
   6523SM   H9T 8383   5.924   4.930   6.732 -0.6044 -2.1752  1.8561
   6523SM  C10S 8384   5.811   5.000   6.551  0.0905 -0.2485  0.2206
   6523SM  H10S 8385   5.899   5.049   6.505  1.0258 -2.0594  0.0079
   6523SM  H10T 8386   5.756   5.086   6.597 -0.2260 -0.0598 -0.4962
   6523SM  C11S 8387   5.734   4.934   6.448 -0.1682  0.0820  0.3384
   6523SM  H11S 8388   5.663   4.866   6.501  0.3579 -0.0259  0.9153
   6523SM  H11T 8389   5.806   4.876   6.387  0.3734  2.9506 -1.9929
   6523SM  C12S 8390   5.654   5.018   6.348 -0.0147  0.0532 -0.6224
   6523SM  H12S 8391   5.589   5.082   6.411  0.9282  0.4191 -0.0085
   6523SM  H12T 8392   5.592   4.941   6.297  0.9220 -0.8663 -0.4009
   6523SM  C13S 8393   5.733   5.112   6.256 -0.7443  0.2645  0.5027
   6523SM  H13S 8394   5.813   5.055   6.204 -1.0973  1.0114 -0.9232
   6523SM  H13T 8395   5.779   5.185   6.326 -0.9273 -0.6554  1.5928
   6523SM  C14S 8396   5.652   5.177   6.147  0.4033 -1.2139  0.7034
   6523SM  H14S 8397   5.576   5.250   6.182 -0.0105 -0.7049 -1.1345
   6523SM  H14T 8398   5.599   5.092   6.098  1.0169 -1.7655  0.9709
   6523SM  C15S 8399   5.742   5.244   6.042 -0.1555 -0.8526  0.2091
   6523SM  H15S 8400   5.795   5.160   5.994  1.2348 -0.0685  0.3192
   6523SM  H15T 8401   5.823   5.302   6.091  0.0008 -1.3134  0.5005
   6523SM  C16S 8402   5.654   5.322   5.952  0.0890 -1.1962  0.3502
   6523SM  H16S 8403   5.723   5.362   5.875  0.6137 -2.1161  0.3218
   6523SM  H16T 8404   5.613   5.410   6.006 -0.7784 -1.1770 -0.3207
   6523SM  C17S 8405   5.541   5.262   5.866  0.1290 -0.3625 -0.2744
   6523SM  H17S 8406   5.458   5.220   5.928 -0.5690 -0.2332 -1.0957
   6523SM  H17T 8407   5.589   5.174   5.818  1.8570  0.0698  0.5759
   6523SM  C18S 8408   5.477   5.359   5.763  0.3214 -0.1008 -0.0621
   6523SM  H18S 8409   5.399   5.304   5.706 -1.1336  0.3833  1.3503
   6523SM  H18T 8410   5.554   5.401   5.695  0.1389 -2.4938 -1.8899
   6523SM  H18U 8411   5.411   5.430   5.819 -0.8479 -2.8215  2.2893
   6523SM   C1F 8412   6.122   4.405   7.075 -0.0887 -0.3978  0.5873
   6523SM    OF 8413   6.135   4.286   7.101  0.3928  0.0165  0.4163
   6523SM   C2F 8414   6.206   4.483   6.973  0.0706  0.1356 -0.0592
   6523SM   H2F 8415   6.285   4.545   7.020 -0.3702 -0.9752  2.2932
   6523SM   H2G 8416   6.143   4.562   6.926 -0.3245  0.3589  0.8276
   6523SM   C3F 8417   6.271   4.407   6.855  0.1879  0.3932  0.1806
   6523SM   H3F 8418   6.328   4.317   6.887  1.6500  1.1474 -0.2126
   6523SM   H3G 8419   6.336   4.483   6.807  1.3904 -0.0229  1.1011
   6523SM   C4F 8420   6.170   4.350   6.753  0.1091  0.0378 -0.1959
   6523SM   H4F 8421   6.101   4.278   6.803  0.7600 -1.0507 -0.8131
   6523SM   H4G 8422   6.230   4.292   6.680  0.8695 -1.9717  1.9050
   6523SM   C5F 8423   6.081   4.447   6.681 -0.3230 -0.7274 -0.0498
   6523SM   H5F 8424   6.080   4.547   6.730 -1.7880 -0.4630 -0.5365
   6523SM   H5G 8425   5.977   4.411   6.697  0.0017 -2.2560 -1.1670
   6523SM   C6F 8426   6.098   4.459   6.531  0.4620 -0.5421  0.1290
   6523SM   H6F 8427   6.194   4.506   6.501  0.2893 -0.1592  0.1684
   6523SM   H6G 8428   6.008   4.510   6.491  0.5811 -1.0607 -0.8095
   6523SM   C7F 8429   6.085   4.323   6.460 -0.2584 -0.3754 -0.7758
   6523SM   H7F 8430   6.017   4.257   6.519  1.0930 -1.7683 -0.7128
   6523SM   H7G 8431   6.186   4.278   6.455  1.0047  2.1847  0.0560
   6523SM   C8F 8432   6.035   4.341   6.315 -0.1886  0.1544 -0.0736
   6523SM   H8F 8433   5.930   4.372   6.292 -0.0391 -0.4514 -1.7409
   6523SM   H8G 8434   6.038   4.241   6.266 -2.5980 -1.2538  2.3330
   6523SM   C9F 8435   6.118   4.437   6.229  0.0676  0.2338  0.2009
   6523SM   H9F 8436   6.179   4.505   6.292  0.5758 -0.6720  0.7143
   6523SM   H9G 8437   6.053   4.497   6.162  0.8475 -1.5311 -2.2580
   6523SM  C10F 8438   6.201   4.350   6.123  0.2358 -0.1905  0.2269
   6523SM  H10F 8439   6.225   4.253   6.171 -0.7472 -1.6519 -2.0396
   6523SM  H10G 8440   6.292   4.407   6.092  0.0242  1.0329  1.7296
   6523SM  C11F 8441   6.122   4.316   5.994  0.0988  0.0128  0.6268
   6523SM  H11F 8442   6.066   4.406   5.960 -1.3287 -0.8302  0.6302
   6523SM  H11G 8443   6.041   4.241   6.009 -0.3014  0.3895  0.3804
   6523SM  C12F 8444   6.206   4.270   5.875 -0.2509 -0.6927 -0.1774
   6523SM  H12F 8445   6.215   4.159   5.872  0.2311 -0.6240 -1.6199
   6523SM  H12G 8446   6.308   4.314   5.878 -1.1657  1.8207 -2.3148
   6523SM  C13F 8447   6.151   4.311   5.735 -0.2339 -0.3831  0.4080
   6523SM  H13F 8448   6.040   4.305   5.727 -0.3277  0.8712  0.5869
   6523SM  H13G 8449   6.196   4.253   5.652 -1.2806 -0.5645 -0.0620
   6523SM  C14F 8450   6.173   4.469   5.704  0.7079  0.2107  0.2332
   6523SM  H14F 8451   6.276   4.510   5.714  0.9584 -0.5934  1.0991
   6523SM  H14G 8452   6.110   4.524   5.778 -0.4487 -0.8416  0.0556
   6523SM  C15F 8453   6.117   4.482   5.560  0.5290 -0.4201  0.6044
   6523SM  H15F 8454   6.029   4.415   5.554  0.9778 -0.9224 -1.5514
   6523SM  H15G 8455   6.182   4.440   5.479 -0.8341 -1.9052  0.2361
   6523SM  C16F 8456   6.053   4.625   5.536 -0.0463 -0.3309  0.4525
   6523SM  H16F 8457   6.128   4.705   5.550  0.9452 -1.3793  1.3003
   6523SM  H16G 8458   5.995   4.640   5.630  1.3562 -1.8558  1.6320
   6523SM  C17F 8459   5.964   4.635   5.407 -0.6612  0.1987 -0.5625
   6523SM  H17F 8460   5.876   4.569   5.422 -1.0821  0.8166 -0.2683
   6523SM  H17G 8461   6.022   4.585   5.327  1.0494 -0.2636  0.9088
   6523SM  C18F 8462   5.927   4.774   5.365  0.2104 -0.4473  0.0857
   6523SM  H18F 8463   6.012   4.813   5.306  1.0323 -0.1570  1.4228
   6523SM  H18G 8464   5.911   4.840   5.453  1.2443  1.1098 -0.8574
   6523SM  C19F 8465   5.786   4.768   5.291  0.5689  0.0092  0.4367
   6523SM  H19F 8466   5.715   4.722   5.363 -0.2483 -3.4161 -2.3004
   6523SM  H19G 8467   5.800   4.699   5.205 -0.4528  0.3407 -0.0058
   6523SM  C20F 8468   5.735   4.902   5.242 -0.8794  0.1105 -0.4059
   6523SM  H20F 8469   5.646   4.894   5.177  0.0328 -1.3379 -1.5238
   6523SM  H20G 8470   5.818   4.961   5.197  0.0904 -0.6940  0.2894
   6523SM  C21F 8471   5.695   4.995   5.360  0.3836 -0.4820 -0.0037
   6523SM  H21F 8472   5.770   4.996   5.442  0.6951 -1.5254 -0.2492
   6523SM  H21G 8473   5.602   4.953   5.403 -0.0774  0.5380  0.0015
   6523SM  C22F 8474   5.675   5.144   5.326 -0.0990 -0.1929 -0.4120
   6523SM  H22F 8475   5.597   5.153   5.247  1.5817 -2.6062 -2.4946
   6523SM  H22G 8476   5.771   5.195   5.299  0.6999 -1.3382  0.1684
   6523SM  C23F 8477   5.620   5.219   5.449  0.3631  0.6460  0.0594
   6523SM  H23F 8478   5.547   5.152   5.500  2.0124 -0.3091  1.2448
   6523SM  H23G 8479   5.576   5.312   5.407 -0.0840 -1.1183 -3.7828
   6523SM  H23H 8480   5.694   5.242   5.528  0.1764  1.4405  0.0127
   6623SM     N 8481   3.797   2.019   7.633  0.0201  0.5466 -0.5524
   6623SM   C15 8482   3.782   2.152   7.697 -0.3764  0.2997 -0.5874
   6623SM  H15A 8483   3.676   2.175   7.691 -0.6852 -1.0086 -0.3837
   6623SM  H15B 8484   3.846   2.224   7.648  1.4319  1.2087  2.7919
   6623SM  H15C 8485   3.813   2.157   7.801 -0.9847  3.7041 -0.4448
   6623SM   C14 8486   3.937   1.972   7.647 -0.3110 -0.6203 -0.2386
   6623SM  H14A 8487   4.002   2.033   7.587 -1.9468  2.3708  0.8174
   6623SM  H14B 8488   3.947   1.864   7.641  0.2877 -0.6877  1.5308
   6623SM  H14C 8489   3.970   1.987   7.748  3.1627 -0.1476 -1.3324
   6623SM   C13 8490   3.707   1.925   7.703  1.3325 -0.5071  0.2450
   6623SM  H13A 8491   3.732   1.881   7.799 -3.4320  0.2750  2.1221
   6623SM  H13B 8492   3.680   1.838   7.644  0.1698  0.0836 -0.1178
   6623SM  H13C 8493   3.617   1.980   7.724  0.6353 -1.1968 -0.8401
   6623SM   C12 8494   3.762   2.018   7.481 -0.4861 -0.1169 -0.1183
   6623SM  H12A 8495   3.660   2.050   7.466 -0.9283 -0.9760  0.9332
   6623SM  H12B 8496   3.774   1.919   7.438  0.1464  0.5300 -1.5262
   6623SM   C11 8497   3.837   2.116   7.381 -0.2997  0.1762 -0.0117
   6623SM  H11A 8498   3.836   2.219   7.424  0.1739 -0.1468  0.8009
   6623SM  H11B 8499   3.787   2.115   7.282  1.1378  1.3760 -0.8018
   6623SM     P 8500   4.022   1.963   7.254  0.1037  0.1079  0.0787
   6623SM   O13 8501   4.167   1.967   7.249  0.0075 -0.0360 -0.4766
   6623SM   O14 8502   3.950   1.838   7.294  0.1253 -0.5511 -0.5108
   6623SM   O11 8503   3.973   2.015   7.109 -0.6075  1.0620 -0.4369
   6623SM   O12 8504   3.975   2.078   7.359  0.7573  0.1848  0.5178
   6623SM   C1S 8505   4.034   2.132   7.050  0.6701 -0.0591 -0.3250
   6623SM   H1S 8506   4.141   2.146   7.077 -0.1454 -0.2169  3.7724
   6623SM   H1T 8507   3.977   2.226   7.065 -1.1597 -0.7779 -2.2728
   6623SM    NF 8508   4.112   2.215   6.827  0.3324  0.1785  0.5066
   6623SM   HNF 8509   4.066   2.301   6.806 -1.1219 -0.0021  2.6133
   6623SM   C2S 8510   4.021   2.120   6.897 -0.4780 -0.1380 -0.6213
   6623SM   H2S 8511   4.068   2.021   6.878  2.4973  0.8938  0.7541
   6623SM   C3S 8512   3.871   2.137   6.855  0.2828 -0.1943  0.2382
   6623SM   H3S 8513   3.836   2.227   6.911 -1.2706 -1.9012  2.1915
   6623SM    O3 8514   3.783   2.031   6.909 -0.0530 -0.2800 -0.5625
   6623SM   HO3 8515   3.839   1.990   6.975  0.7390  0.8848 -0.4770
   6623SM   C4S 8516   3.862   2.148   6.711  0.0833 -0.5182  0.0429
   6623SM   H4S 8517   3.876   2.253   6.685 -1.8695 -0.4252 -0.8154
   6623SM   C5S 8518   3.867   2.057   6.609  0.3420 -0.6011  0.4972
   6623SM   H5S 8519   3.894   1.956   6.643 -2.2351 -0.9975  1.6187
   6623SM   C6S 8520   3.871   2.090   6.462  0.0478 -0.0505 -0.4960
   6623SM   H6S 8521   3.853   2.200   6.456 -0.3007  0.0842  2.0231
   6623SM   H6T 8522   3.792   2.038   6.403 -0.1446 -0.6278  0.2685
   6623SM   C7S 8523   4.008   2.055   6.394  0.6979 -0.2823 -0.3226
   6623SM   H7S 8524   4.029   1.946   6.404  1.0894 -0.0695  1.3940
   6623SM   H7T 8525   4.084   2.110   6.453 -0.1841 -0.4980  1.0788
   6623SM   C8S 8526   4.016   2.096   6.251 -0.7813 -0.0278 -0.1117
   6623SM   H8S 8527   3.993   2.203   6.230 -0.9110  0.2927  1.5369
   6623SM   H8T 8528   3.942   2.044   6.186  1.8190 -1.2996 -2.2395
   6623SM   C9S 8529   4.157   2.059   6.202 -0.7445  0.1705  0.3993
   6623SM   H9S 8530   4.168   1.952   6.174  3.2494 -0.0266  2.1439
   6623SM   H9T 8531   4.237   2.071   6.278  0.4842  0.5708 -0.9037
   6623SM  C10S 8532   4.207   2.151   6.089 -0.5591  0.1007 -0.0710
   6623SM  H10S 8533   4.185   2.257   6.114  0.4675  0.5916 -1.1747
   6623SM  H10T 8534   4.168   2.126   5.988 -0.9145 -0.0987  0.1116
   6623SM  C11S 8535   4.360   2.152   6.062 -0.0180  0.4503 -0.5503
   6623SM  H11S 8536   4.390   2.047   6.047 -2.7990 -0.1579 -2.5764
   6623SM  H11T 8537   4.405   2.189   6.157  1.6449 -0.0634 -1.0990
   6623SM  C12S 8538   4.401   2.242   5.943  0.0850  0.0561  0.2922
   6623SM  H12S 8539   4.373   2.349   5.952 -1.5854 -0.2379 -0.8752
   6623SM  H12T 8540   4.355   2.198   5.852  0.5330  0.9144 -0.3583
   6623SM  C13S 8541   4.550   2.237   5.921  0.4934 -0.1936 -0.3631
   6623SM  H13S 8542   4.583   2.131   5.928  0.6892 -0.1405 -0.4775
   6623SM  H13T 8543   4.590   2.290   6.010 -0.4580 -0.0390 -0.0174
   6623SM  C14S 8544   4.602   2.286   5.795 -0.0845 -0.4335  0.2047
   6623SM  H14S 8545   4.559   2.388   5.786  0.8611 -0.0709 -0.4097
   6623SM  H14T 8546   4.565   2.227   5.708  0.7768  0.6492 -0.9394
   6623SM  C15S 8547   4.755   2.281   5.790  0.3043  0.4408 -0.5792
   6623SM  H15S 8548   4.792   2.179   5.814 -2.5578 -0.8909 -1.4553
   6623SM  H15T 8549   4.790   2.338   5.879 -1.6413 -0.4032  0.7917
   6623SM  C16S 8550   4.825   2.325   5.661  1.2052  0.7831  0.1833
   6623SM  H16S 8551   4.765   2.411   5.624 -0.3167 -0.2145  0.2136
   6623SM  H16T 8552   4.826   2.247   5.582  0.2146  0.0255  0.8876
   6623SM  C17S 8553   4.966   2.366   5.699 -0.0546 -0.0847  0.2545
   6623SM  H17S 8554   4.947   2.433   5.786 -1.6620 -0.9231  0.5818
   6623SM  H17T 8555   5.019   2.432   5.627  0.5758  0.1359  0.9092
   6623SM  C18S 8556   5.066   2.255   5.729 -0.6699 -0.8705 -0.2974
   6623SM  H18S 8557   5.093   2.198   5.639  0.1616 -0.8539 -0.0641
   6623SM  H18T 8558   5.016   2.188   5.803 -0.9880  1.1094  1.4001
   6623SM  H18U 8559   5.163   2.293   5.768 -0.6005 -1.1184 -0.2277
   6623SM   C1F 8560   4.247   2.211   6.817  0.1432 -0.6597 -0.0988
   6623SM    OF 8561   4.302   2.118   6.869 -0.1344  0.3551  0.6113
   6623SM   C2F 8562   4.314   2.316   6.739  0.2107 -0.7488 -0.5692
   6623SM   H2F 8563   4.262   2.410   6.764  0.4811 -0.3568 -1.4305
   6623SM   H2G 8564   4.288   2.297   6.633 -0.1345  2.0049 -1.0311
   6623SM   C3F 8565   4.468   2.328   6.760 -0.1931 -0.0303  0.6767
   6623SM   H3F 8566   4.512   2.230   6.732  1.3995  1.1439 -1.1774
   6623SM   H3G 8567   4.497   2.356   6.863  1.1064  0.1206  0.2834
   6623SM   C4F 8568   4.542   2.439   6.670 -0.0642 -0.1883  0.4341
   6623SM   H4F 8569   4.651   2.431   6.689  0.2551 -0.8899 -1.5494
   6623SM   H4G 8570   4.497   2.537   6.699 -1.3466 -0.7038  0.2552
   6623SM   C5F 8571   4.507   2.412   6.516 -0.1749 -0.0938 -0.1659
   6623SM   H5F 8572   4.397   2.413   6.503  0.0012 -0.7508 -1.9484
   6623SM   H5G 8573   4.540   2.306   6.508 -1.1409 -0.3264 -1.2952
   6623SM   C6F 8574   4.597   2.496   6.424 -0.5020  0.3313  0.4331
   6623SM   H6F 8575   4.699   2.519   6.461 -0.6687  1.4913  0.2111
   6623SM   H6G 8576   4.561   2.601   6.418  0.0334  0.5018  0.0896
   6623SM   C7F 8577   4.614   2.446   6.281  0.3157  0.6609  0.2508
   6623SM   H7F 8578   4.516   2.412   6.241 -0.6011  1.1347  1.9796
   6623SM   H7G 8579   4.694   2.369   6.281  2.0451  2.3563 -1.2648
   6623SM   C8F 8580   4.670   2.554   6.186 -0.2304  0.9887  0.4987
   6623SM   H8F 8581   4.719   2.499   6.102  0.3957 -0.9214  2.0377
   6623SM   H8G 8582   4.752   2.596   6.246  0.9926 -0.4836 -0.0763
   6623SM   C9F 8583   4.561   2.649   6.127 -0.0597  0.0849 -0.4540
   6623SM   H9F 8584   4.561   2.734   6.198 -0.0822  0.5292 -0.9788
   6623SM   H9G 8585   4.474   2.579   6.123 -1.0350  0.7287  4.2137
   6623SM  C10F 8586   4.605   2.699   5.989 -0.0807 -0.3976  0.0377
   6623SM  H10F 8587   4.623   2.613   5.921 -0.0934  0.7005 -1.4143
   6623SM  H10G 8588   4.701   2.754   6.004 -0.3138  0.1583 -0.4975
   6623SM  C11F 8589   4.505   2.793   5.920 -0.4744 -0.0745  0.4975
   6623SM  H11F 8590   4.547   2.837   5.827  0.0423  0.5405  1.0154
   6623SM  H11G 8591   4.480   2.874   5.992 -2.2703 -0.3311  0.2201
   6623SM  C12F 8592   4.367   2.723   5.895  0.0230  0.0332 -1.0428
   6623SM  H12F 8593   4.309   2.711   5.989 -0.5072  2.5698 -0.9939
   6623SM  H12G 8594   4.386   2.627   5.843  1.9168  0.2342 -0.8007
   6623SM  C13F 8595   4.279   2.801   5.805  0.4280 -0.0998  0.1705
   6623SM  H13F 8596   4.271   2.901   5.852  1.1001  0.6387 -1.2466
   6623SM  H13G 8597   4.176   2.760   5.803  0.3884 -0.2367  2.5319
   6623SM  C14F 8598   4.320   2.800   5.656 -0.0951  0.1577  0.0668
   6623SM  H14F 8599   4.295   2.698   5.618  2.0559 -1.2215  2.0416
   6623SM  H14G 8600   4.427   2.819   5.635 -0.2105 -1.2459 -2.1349
   6623SM  C15F 8601   4.258   2.909   5.574  0.3005 -0.7763  0.0770
   6623SM  H15F 8602   4.294   3.010   5.604 -0.2181 -0.3060 -0.8289
   6623SM  H15G 8603   4.148   2.911   5.590  0.1375  0.8063 -1.0088
   6623SM  C16F 8604   4.270   2.888   5.420  0.3417 -0.6215 -0.5535
   6623SM  H16F 8605   4.217   2.794   5.395 -1.3707  0.1889 -0.1461
   6623SM  H16G 8606   4.376   2.876   5.390  1.3803 -0.7429  2.7555
   6623SM  C17F 8607   4.215   3.010   5.338 -0.7103 -0.3670 -0.6024
   6623SM  H17F 8608   4.270   3.102   5.365  1.2469 -1.8252  0.6980
   6623SM  H17G 8609   4.107   3.019   5.365  0.1757  0.9865  3.0836
   6623SM  C18F 8610   4.221   2.972   5.181  0.1267  0.4210  0.0953
   6623SM  H18F 8611   4.163   2.879   5.158 -0.8028  1.0050  0.0322
   6623SM  H18G 8612   4.323   2.942   5.149  0.9177  2.1286  0.9296
   6623SM  C19F 8613   4.146   3.082   5.112 -0.3540 -0.3885  0.1910
   6623SM  H19F 8614   4.172   3.181   5.155 -0.7282 -0.3458  0.3256
   6623SM  H19G 8615   4.040   3.061   5.140 -1.3282  1.9117 -1.4434
   6623SM  C20F 8616   4.148   3.079   4.953  0.3279 -0.4368 -0.2187
   6623SM  H20F 8617   4.065   3.142   4.913  0.0357 -1.4388 -1.2567
   6623SM  H20G 8618   4.145   2.972   4.924  0.9247 -0.2714 -0.9412
   6623SM  C21F 8619   4.285   3.137   4.893  0.1758  0.2253 -0.5370
   6623SM  H21F 8620   4.370   3.074   4.929 -1.9433 -2.5401 -0.0541
   6623SM  H21G 8621   4.296   3.243   4.924  2.0034  1.1632 -3.8516
   6623SM  C22F 8622   4.305   3.145   4.739 -0.6339  0.3548  0.6504
   6623SM  H22F 8623   4.396   3.205   4.721  1.0759 -1.8623  1.4427
   6623SM  H22G 8624   4.213   3.191   4.697 -2.8555 -4.1853 -0.0481
   6623SM  C23F 8625   4.311   3.014   4.662 -0.0925 -0.3228 -0.9398
   6623SM  H23F 8626   4.409   2.966   4.679 -0.7994 -0.7059  2.9091
   6623SM  H23G 8627   4.300   3.025   4.552  0.1772  0.6658 -0.8780
   6623SM  H23H 8628   4.237   2.937   4.693  0.9977 -0.1033  2.5983
   6723SM     N 8629   2.803   6.456   7.415  0.5174  0.0542 -0.3398
   6723SM   C15 8630   2.911   6.412   7.502 -0.3815 -0.6922 -0.2246
   6723SM  H15A 8631   2.947   6.319   7.461  2.7534 -0.2139  1.1728
   6723SM  H15B 8632   2.881   6.387   7.603  3.5204 -0.5202  1.1309
   6723SM  H15C 8633   2.996   6.478   7.506  1.5190 -3.0441  1.5283
   6723SM   C14 8634   2.701   6.346   7.420  0.3738 -0.3624 -0.1224
   6723SM  H14A 8635   2.639   6.347   7.331 -0.3470  0.8453  0.3658
   6723SM  H14B 8636   2.638   6.369   7.504 -0.2822 -3.8653  0.4925
   6723SM  H14C 8637   2.728   6.245   7.443  0.3871  0.0119  1.6023
   6723SM   C13 8638   2.736   6.578   7.472 -0.0480  0.6738 -0.1420
   6723SM  H13A 8639   2.660   6.605   7.401  0.2453  2.1578  0.0924
   6723SM  H13B 8640   2.807   6.658   7.486  1.6637 -0.9540  1.1855
   6723SM  H13C 8641   2.681   6.553   7.562  0.0679 -1.9228 -0.7078
   6723SM   C12 8642   2.845   6.472   7.268 -0.0032 -0.5149  0.3230
   6723SM  H12A 8643   2.911   6.558   7.269 -0.0817 -0.3827  3.1645
   6723SM  H12B 8644   2.761   6.492   7.203  0.7416  0.1104 -0.4865
   6723SM   C11 8645   2.929   6.353   7.202  0.1502 -0.1800 -0.7972
   6723SM  H11A 8646   2.937   6.369   7.093  1.9774  1.5972 -0.4681
   6723SM  H11B 8647   2.866   6.263   7.220  0.7304 -0.1192  1.9619
   6723SM     P 8648   3.165   6.460   7.234 -0.3339 -0.5341  0.1114
   6723SM   O13 8649   3.108   6.590   7.268 -0.0807 -0.4888  0.3229
   6723SM   O14 8650   3.291   6.423   7.301  0.0328 -0.6676 -0.0696
   6723SM   O11 8651   3.193   6.444   7.079  0.6618  0.1042 -0.0593
   6723SM   O12 8652   3.054   6.353   7.268  0.6553  0.2434  0.6389
   6723SM   C1S 8653   3.208   6.318   7.016  0.2621 -1.3017  0.3578
   6723SM   H1S 8654   3.140   6.250   7.070  0.3162 -2.1106 -0.5562
   6723SM   H1T 8655   3.315   6.288   7.020  1.4985  2.4469  0.0902
   6723SM    NF 8656   3.197   6.201   6.809 -0.1000 -0.5218 -0.5370
   6723SM   HNF 8657   3.289   6.177   6.779  0.3854  1.3813 -0.7124
   6723SM   C2S 8658   3.167   6.330   6.865 -0.4477  0.9953  0.2555
   6723SM   H2S 8659   3.065   6.365   6.838  0.0517  0.3627 -2.6939
   6723SM   C3S 8660   3.261   6.440   6.803 -0.2294 -0.2657 -0.0936
   6723SM   H3S 8661   3.364   6.400   6.812 -0.0599  0.3657  0.7744
   6723SM    O3 8662   3.266   6.568   6.868 -0.3235  0.7166 -0.1986
   6723SM   HO3 8663   3.224   6.548   6.953 -0.1110 -1.3470 -0.5312
   6723SM   C4S 8664   3.224   6.465   6.664  0.0485  0.6101 -0.3865
   6723SM   H4S 8665   3.136   6.531   6.658  0.7052  1.6118  0.6229
   6723SM   C5S 8666   3.289   6.418   6.555 -0.0965  0.6609  0.0333
   6723SM   H5S 8667   3.369   6.348   6.583 -1.5815 -1.1763 -0.0917
   6723SM   C6S 8668   3.253   6.432   6.414  0.3457 -0.0330  0.0665
   6723SM   H6S 8669   3.308   6.517   6.367 -0.5284  0.4246 -0.1554
   6723SM   H6T 8670   3.144   6.454   6.412  0.4531  0.5866  0.7486
   6723SM   C7S 8671   3.258   6.305   6.326 -0.0772 -0.1007 -0.2020
   6723SM   H7S 8672   3.177   6.241   6.368  1.2858 -0.8567  1.3745
   6723SM   H7T 8673   3.351   6.245   6.340  1.1041  0.8895 -3.0541
   6723SM   C8S 8674   3.231   6.335   6.178 -0.9692  0.6678 -0.1016
   6723SM   H8S 8675   3.144   6.403   6.170 -1.2458  0.7381  2.6502
   6723SM   H8T 8676   3.196   6.237   6.139 -0.3264  0.0035  0.9580
   6723SM   C9S 8677   3.348   6.371   6.090  0.3925 -0.8066  0.4642
   6723SM   H9S 8678   3.412   6.281   6.080  1.1487 -0.4883  2.2133
   6723SM   H9T 8679   3.417   6.448   6.130  0.9278 -0.7124 -0.5974
   6723SM  C10S 8680   3.293   6.415   5.960 -0.0789  0.7871 -0.3971
   6723SM  H10S 8681   3.234   6.509   5.971 -0.3222  0.4777  1.1420
   6723SM  H10T 8682   3.221   6.339   5.922  1.9286 -0.9052 -0.9999
   6723SM  C11S 8683   3.396   6.438   5.856  0.4206 -0.2406 -0.5363
   6723SM  H11S 8684   3.451   6.345   5.828 -1.6976 -1.5602 -0.5615
   6723SM  H11T 8685   3.465   6.517   5.892  0.6047 -2.1076  3.9822
   6723SM  C12S 8686   3.342   6.474   5.716 -0.4280  0.0620 -0.2927
   6723SM  H12S 8687   3.326   6.583   5.702  0.3803 -0.0370 -2.2522
   6723SM  H12T 8688   3.252   6.415   5.690 -0.9060  0.9823 -0.7739
   6723SM  C13S 8689   3.448   6.441   5.605 -0.5489 -0.3736  0.5128
   6723SM  H13S 8690   3.478   6.334   5.608  0.8132 -0.0152  0.3513
   6723SM  H13T 8691   3.546   6.484   5.637 -0.3994  0.4257 -0.9591
   6723SM  C14S 8692   3.404   6.484   5.466  0.1268  0.0558 -0.1183
   6723SM  H14S 8693   3.405   6.595   5.468  1.2623  0.0606  2.3655
   6723SM  H14T 8694   3.300   6.445   5.455  0.1320 -0.2525  0.8404
   6723SM  C15S 8695   3.488   6.425   5.352 -0.0975 -0.0926 -0.3428
   6723SM  H15S 8696   3.470   6.316   5.357  1.3806 -0.4056 -1.2356
   6723SM  H15T 8697   3.595   6.455   5.362 -0.3377  1.4033 -1.8527
   6723SM  C16S 8698   3.433   6.481   5.212 -0.8787 -0.2420 -0.0749
   6723SM  H16S 8699   3.414   6.589   5.227  1.5347  0.0099  2.0078
   6723SM  H16T 8700   3.337   6.427   5.197 -0.8264 -1.3161  2.6905
   6723SM  C17S 8701   3.527   6.454   5.093  0.2884 -0.6147  0.0817
   6723SM  H17S 8702   3.539   6.344   5.088  0.3885 -0.6143  0.2727
   6723SM  H17T 8703   3.627   6.503   5.090  0.1299 -0.3408 -1.6308
   6723SM  C18S 8704   3.458   6.496   4.963  0.6757 -0.8405  0.2274
   6723SM  H18S 8705   3.361   6.443   4.954 -0.1336 -0.4405  4.3056
   6723SM  H18T 8706   3.523   6.488   4.874  1.2518 -1.0728  0.6610
   6723SM  H18U 8707   3.425   6.602   4.969  0.1693 -0.8147 -2.0734
   6723SM   C1F 8708   3.100   6.109   6.799 -0.7968  0.4319  0.3218
   6723SM    OF 8709   2.996   6.145   6.839  0.5121 -0.3332 -0.3302
   6723SM   C2F 8710   3.133   5.975   6.751 -0.9052  0.1203 -0.3589
   6723SM   H2F 8711   3.161   5.912   6.838  0.1835  0.6515 -0.3102
   6723SM   H2G 8712   3.229   5.981   6.696  0.1459 -0.4353  1.3533
   6723SM   C3F 8713   3.019   5.938   6.656 -0.0081  0.4003  0.1439
   6723SM   H3F 8714   2.919   5.946   6.702  0.0904  0.3230  0.3703
   6723SM   H3G 8715   3.048   5.836   6.623  1.7002  1.6628 -2.6898
   6723SM   C4F 8716   3.006   6.021   6.530 -0.2303  0.2183 -1.0496
   6723SM   H4F 8717   3.097   6.007   6.468 -0.9241 -1.4840 -1.7424
   6723SM   H4G 8718   3.008   6.127   6.565 -0.7226 -0.6225  1.7436
   6723SM   C5F 8719   2.869   6.021   6.453  0.3993  0.3757  0.2116
   6723SM   H5F 8720   2.796   6.054   6.531  0.9108  0.8990  0.4771
   6723SM   H5G 8721   2.844   5.925   6.404 -1.4511  2.4289 -3.2729
   6723SM   C6F 8722   2.877   6.121   6.336 -0.0323  0.3236 -0.8668
   6723SM   H6F 8723   2.966   6.108   6.270 -1.0955 -0.2764 -2.2268
   6723SM   H6G 8724   2.865   6.221   6.382 -2.8292 -0.0791 -0.5679
   6723SM   C7F 8725   2.764   6.091   6.240  0.0479  0.0965  0.0115
   6723SM   H7F 8726   2.664   6.077   6.286 -0.1174 -1.7823 -0.8212
   6723SM   H7G 8727   2.779   5.995   6.187  0.7274  1.0742 -1.6550
   6723SM   C8F 8728   2.751   6.210   6.145  0.1751  0.0598  0.1676
   6723SM   H8F 8729   2.768   6.305   6.202 -0.7547  0.1865  0.2577
   6723SM   H8G 8730   2.644   6.213   6.115 -0.0835  1.3187  1.1005
   6723SM   C9F 8731   2.850   6.203   6.030  0.8485 -0.1078 -0.0724
   6723SM   H9F 8732   2.831   6.111   5.971 -0.6752  0.0774  0.0679
   6723SM   H9G 8733   2.952   6.182   6.067  0.9887  1.8457  0.7713
   6723SM  C10F 8734   2.848   6.325   5.939 -0.1216 -0.0622 -0.2832
   6723SM  H10F 8735   2.882   6.407   6.006  1.2591 -1.5292  0.8706
   6723SM  H10G 8736   2.742   6.352   5.917 -0.0993  1.1076  0.8849
   6723SM  C11F 8737   2.925   6.318   5.806 -0.3469 -0.1524 -0.0240
   6723SM  H11F 8738   2.894   6.229   5.747 -0.3639  0.3236 -0.7453
   6723SM  H11G 8739   3.034   6.325   5.822 -0.5431 -0.5196  1.6275
   6723SM  C12F 8740   2.891   6.440   5.717 -0.3642 -0.1262 -0.7546
   6723SM  H12F 8741   2.971   6.452   5.641 -0.7253  0.1601 -1.0912
   6723SM  H12G 8742   2.898   6.535   5.773  2.0750  0.6160 -2.1640
   6723SM  C13F 8743   2.761   6.423   5.633  0.7201 -0.0175 -0.1272
   6723SM  H13F 8744   2.739   6.517   5.578  1.1829 -1.0988 -2.2692
   6723SM  H13G 8745   2.682   6.395   5.706 -0.3204  1.6003 -0.5864
   6723SM  C14F 8746   2.765   6.301   5.534 -0.6916  0.1157 -0.8113
   6723SM  H14F 8747   2.753   6.201   5.582 -0.6676  0.7305  0.5152
   6723SM  H14G 8748   2.867   6.308   5.491 -0.7275  1.0566 -0.7648
   6723SM  C15F 8749   2.654   6.302   5.426  0.1899  0.4325  0.0316
   6723SM  H15F 8750   2.659   6.405   5.385  0.5167  0.8819  1.1630
   6723SM  H15G 8751   2.550   6.295   5.465  0.1096 -0.7983 -0.3550
   6723SM  C16F 8752   2.669   6.176   5.332  0.2912 -0.2762  0.3041
   6723SM  H16F 8753   2.640   6.088   5.393 -1.1050 -1.6642 -2.1974
   6723SM  H16G 8754   2.776   6.158   5.309  0.4281  0.4245  0.3661
   6723SM  C17F 8755   2.596   6.178   5.195 -0.7472 -0.4346 -0.1900
   6723SM  H17F 8756   2.636   6.271   5.149  1.5573 -0.9999  0.5097
   6723SM  H17G 8757   2.488   6.193   5.214 -0.4250 -0.9057  2.3455
   6723SM  C18F 8758   2.640   6.067   5.096  0.3072 -0.4529  0.1156
   6723SM  H18F 8759   2.609   5.965   5.125 -0.3290 -0.6727 -1.2253
   6723SM  H18G 8760   2.751   6.068   5.086  0.2547 -2.1446 -0.9423
   6723SM  C19F 8761   2.578   6.085   4.954 -0.0842 -0.3325  0.5985
   6723SM  H19F 8762   2.625   6.161   4.888  1.4134 -2.6993 -1.2129
   6723SM  H19G 8763   2.474   6.119   4.974  0.7954  2.2863  1.1565
   6723SM  C20F 8764   2.575   5.966   4.868 -0.1457  0.4647  0.7318
   6723SM  H20F 8765   2.516   5.983   4.775 -0.3234 -1.3150  0.4745
   6723SM  H20G 8766   2.530   5.882   4.925  1.3006 -0.7012  0.2240
   6723SM  C21F 8767   2.717   5.908   4.843  0.4717 -0.4587  0.7061
   6723SM  H21F 8768   2.707   5.814   4.785 -0.5660  0.0921 -0.0705
   6723SM  H21G 8769   2.759   5.883   4.942 -0.0932 -0.2292  1.0092
   6723SM  C22F 8770   2.807   6.009   4.775 -0.2921  0.4496 -0.1886
   6723SM  H22F 8771   2.823   6.100   4.837 -3.0067  2.3474 -2.0293
   6723SM  H22G 8772   2.760   6.045   4.682 -0.5126 -0.2856 -0.3656
   6723SM  C23F 8773   2.944   5.945   4.735  0.4546 -0.2244  0.2235
   6723SM  H23F 8774   2.922   5.871   4.655 -0.2503  1.0304 -0.7994
   6723SM  H23G 8775   2.983   5.889   4.822 -1.0102 -0.1198  0.9612
   6723SM  H23H 8776   2.994   6.032   4.686  0.2665 -0.9071 -1.2319
   6823SM     N 8777   3.078   1.260   7.384 -0.3509  0.2442 -0.5226
   6823SM   C15 8778   3.074   1.114   7.432 -0.4608 -0.5182  0.3175
   6823SM  H15A 8779   3.067   1.118   7.540 -0.1650 -0.1301  0.3267
   6823SM  H15B 8780   3.166   1.063   7.408 -0.5699 -0.2956 -0.5788
   6823SM  H15C 8781   2.992   1.052   7.401 -0.8133  0.7714 -1.4658
   6823SM   C14 8782   2.943   1.318   7.409  0.1852 -0.3936 -0.5852
   6823SM  H14A 8783   2.871   1.249   7.366 -0.9531  2.2558 -3.2673
   6823SM  H14B 8784   2.930   1.416   7.366  0.6963 -0.2215 -0.3554
   6823SM  H14C 8785   2.924   1.333   7.515 -1.4673  1.2045 -1.0531
   6823SM   C13 8786   3.182   1.329   7.459 -0.9966  0.3012 -0.1386
   6823SM  H13A 8787   3.271   1.269   7.454 -0.7661  0.3858  2.1311
   6823SM  H13B 8788   3.161   1.340   7.564  0.6021  0.1470  0.2162
   6823SM  H13C 8789   3.187   1.428   7.416  0.9689  0.3421  0.1170
   6823SM   C12 8790   3.103   1.260   7.238 -0.0507 -0.1221 -0.7422
   6823SM  H12A 8791   3.014   1.216   7.195 -0.7869 -2.4700  2.7713
   6823SM  H12B 8792   3.185   1.194   7.209 -1.3643 -1.2942 -1.9622
   6823SM   C11 8793   3.130   1.398   7.178 -0.2555 -0.3879 -0.2050
   6823SM  H11A 8794   3.058   1.475   7.211  0.9378 -0.4218  2.7841
   6823SM  H11B 8795   3.105   1.375   7.072 -1.4809 -1.3389  0.2640
   6823SM     P 8796   3.377   1.387   7.104 -0.3418  0.0489  0.0384
   6823SM   O13 8797   3.501   1.462   7.137 -0.1430 -0.1153 -0.0910
   6823SM   O14 8798   3.386   1.238   7.100  0.6984 -0.0640 -0.5950
   6823SM   O11 8799   3.327   1.431   6.954 -0.0569  0.1601  0.4365
   6823SM   O12 8800   3.261   1.441   7.205 -0.3295 -0.7498 -0.2346
   6823SM   C1S 8801   3.287   1.560   6.931 -0.3658 -0.0823 -0.1918
   6823SM   H1S 8802   3.300   1.625   7.020 -0.3541  0.6687 -0.7279
   6823SM   H1T 8803   3.183   1.573   6.892 -0.2966  2.4432  0.2528
   6823SM    NF 8804   3.332   1.766   6.806  0.2338 -0.8252 -0.6445
   6823SM   HNF 8805   3.275   1.800   6.731 -2.4938 -1.4670  0.9967
   6823SM   C2S 8806   3.372   1.630   6.822 -0.1963  0.2501 -0.3482
   6823SM   H2S 8807   3.476   1.613   6.858  0.5697  4.3119 -0.2263
   6823SM   C3S 8808   3.364   1.557   6.686 -0.6997  0.0273  0.1833
   6823SM   H3S 8809   3.261   1.571   6.647 -0.3810  0.0682 -0.6670
   6823SM    O3 8810   3.380   1.413   6.686  0.3081 -0.1068 -0.3750
   6823SM   HO3 8811   3.392   1.381   6.775 -1.0016 -1.5639 -0.6822
   6823SM   C4S 8812   3.446   1.628   6.583  0.2810  0.3540 -0.1074
   6823SM   H4S 8813   3.405   1.676   6.493  3.2362 -0.3785 -1.9742
   6823SM   C5S 8814   3.582   1.625   6.577 -0.3590 -0.6406 -0.4973
   6823SM   H5S 8815   3.630   1.571   6.660 -1.8056 -0.8036  0.2651
   6823SM   C6S 8816   3.663   1.682   6.465 -0.2339  0.5349  0.3338
   6823SM   H6S 8817   3.746   1.612   6.442 -1.0104  0.0737 -1.2355
   6823SM   H6T 8818   3.691   1.786   6.491 -0.0481  0.5555  0.0470
   6823SM   C7S 8819   3.596   1.695   6.328 -0.0980  0.1091  0.0055
   6823SM   H7S 8820   3.505   1.758   6.323  0.6602  1.2543  0.1068
   6823SM   H7T 8821   3.562   1.593   6.301  2.1831 -0.1620 -2.1500
   6823SM   C8S 8822   3.693   1.744   6.221 -0.3982  0.6090  0.5886
   6823SM   H8S 8823   3.789   1.687   6.218 -0.1165  1.1268 -1.7709
   6823SM   H8T 8824   3.731   1.846   6.239  0.2195  0.2002  1.6615
   6823SM   C9S 8825   3.640   1.724   6.080  1.0226  0.3006  0.2668
   6823SM   H9S 8826   3.587   1.820   6.061  1.2364  0.2786 -0.4645
   6823SM   H9T 8827   3.559   1.648   6.082 -0.3912  1.7338 -0.2143
   6823SM  C10S 8828   3.730   1.699   5.958 -0.3473 -0.3220 -0.0633
   6823SM  H10S 8829   3.667   1.680   5.869 -0.5894 -1.6645  0.3654
   6823SM  H10T 8830   3.796   1.612   5.980 -0.1492 -0.3295 -0.6705
   6823SM  C11S 8831   3.822   1.817   5.930 -0.3221  0.7980  0.2387
   6823SM  H11S 8832   3.890   1.855   6.009 -1.3684  1.9339  0.6363
   6823SM  H11T 8833   3.764   1.907   5.902 -1.1023  0.4517  0.7156
   6823SM  C12S 8834   3.923   1.788   5.816 -0.0389  0.0911 -0.0068
   6823SM  H12S 8835   3.870   1.753   5.724  1.1193 -0.3512 -0.5195
   6823SM  H12T 8836   3.985   1.705   5.856  0.5663  1.7396  2.6925
   6823SM  C13S 8837   4.011   1.912   5.809 -0.4921 -0.4570  0.6107
   6823SM  H13S 8838   4.086   1.914   5.891 -0.6458  0.7121  0.7402
   6823SM  H13T 8839   3.968   2.015   5.809  1.6202  0.4850  0.9185
   6823SM  C14S 8840   4.097   1.905   5.675  0.5095  1.0958 -0.6057
   6823SM  H14S 8841   4.032   1.942   5.594 -1.4867  1.3411  1.0197
   6823SM  H14T 8842   4.109   1.795   5.660 -0.0667  0.4627  2.7053
   6823SM  C15S 8843   4.225   1.976   5.693 -0.1860  0.0833  0.6914
   6823SM  H15S 8844   4.279   1.931   5.779  0.6603  0.8479  0.5854
   6823SM  H15T 8845   4.196   2.081   5.715 -0.7294  0.0732  0.0409
   6823SM  C16S 8846   4.318   1.963   5.562 -0.2119 -0.1178  0.0650
   6823SM  H16S 8847   4.253   1.992   5.477  1.4301  2.5451 -0.4245
   6823SM  H16T 8848   4.358   1.860   5.550  0.8539  0.4536 -1.6285
   6823SM  C17S 8849   4.444   2.049   5.559  1.1132  0.4534 -0.0288
   6823SM  H17S 8850   4.509   2.028   5.647 -0.4787 -0.0431  1.0725
   6823SM  H17T 8851   4.424   2.158   5.558  1.7051  0.5957 -2.7028
   6823SM  C18S 8852   4.540   2.032   5.440  0.2335  0.5608 -0.1084
   6823SM  H18S 8853   4.477   2.044   5.349 -1.5951  0.6973  1.1128
   6823SM  H18T 8854   4.575   1.926   5.444 -3.0157 -0.5881  3.0684
   6823SM  H18U 8855   4.617   2.111   5.437  1.2888 -0.4632 -0.8777
   6823SM   C1F 8856   3.366   1.862   6.890 -0.5163  0.1400 -0.4239
   6823SM    OF 8857   3.438   1.840   6.990 -0.1013 -0.3435 -0.1869
   6823SM   C2F 8858   3.314   1.992   6.868 -0.1040  0.3069 -0.8971
   6823SM   H2F 8859   3.287   2.041   6.964 -2.9098 -1.9100 -0.4197
   6823SM   H2G 8860   3.218   1.984   6.811 -0.4737  1.5397 -0.4789
   6823SM   C3F 8861   3.427   2.080   6.811 -0.2096 -0.2551  0.8058
   6823SM   H3F 8862   3.515   2.059   6.875 -0.3423 -2.2579  0.3930
   6823SM   H3G 8863   3.399   2.187   6.817 -1.6936 -0.5638 -0.0176
   6823SM   C4F 8864   3.470   2.060   6.664  0.2803  0.6711  0.1141
   6823SM   H4F 8865   3.529   1.966   6.657  3.4399  2.4586  0.8967
   6823SM   H4G 8866   3.535   2.145   6.634 -0.0882  0.5961 -0.9370
   6823SM   C5F 8867   3.362   2.055   6.557 -0.0721 -0.4010  0.0435
   6823SM   H5F 8868   3.322   2.159   6.553  0.1538 -0.3627 -1.7324
   6823SM   H5G 8869   3.285   1.977   6.577  0.2672 -0.5862  0.6601
   6823SM   C6F 8870   3.416   2.026   6.421 -0.5828 -0.3016 -0.0489
   6823SM   H6F 8871   3.481   1.937   6.416  0.1902  0.3245 -2.4805
   6823SM   H6G 8872   3.479   2.109   6.382  0.3253 -0.3761  1.2087
   6823SM   C7F 8873   3.302   2.016   6.317  0.6365  0.7998 -0.5363
   6823SM   H7F 8874   3.250   2.114   6.319  1.8574  1.4534  0.0315
   6823SM   H7G 8875   3.227   1.939   6.347  2.2004 -0.4550  0.3457
   6823SM   C8F 8876   3.355   1.972   6.175  0.1238 -0.2856 -0.6644
   6823SM   H8F 8877   3.330   1.867   6.149 -1.7741  0.2486 -1.2135
   6823SM   H8G 8878   3.464   1.994   6.181  0.1882 -0.1065 -2.0876
   6823SM   C9F 8879   3.272   2.044   6.060 -0.0822 -0.0428  0.1612
   6823SM   H9F 8880   3.261   2.154   6.069 -0.6423  0.2076 -2.7215
   6823SM   H9G 8881   3.167   2.007   6.071 -1.0026  2.0054 -1.0907
   6823SM  C10F 8882   3.313   1.986   5.923 -0.1708  0.6364 -0.7499
   6823SM  H10F 8883   3.294   1.876   5.916  0.3611  0.3005  1.9154
   6823SM  H10G 8884   3.422   2.008   5.910  0.9723 -0.3752  4.7116
   6823SM  C11F 8885   3.236   2.036   5.805  0.0800  0.9638  0.2008
   6823SM  H11F 8886   3.258   2.143   5.786 -0.0886  1.0790  0.6436
   6823SM  H11G 8887   3.128   2.019   5.826  0.2010  1.9152  1.7395
   6823SM  C12F 8888   3.284   1.973   5.667  0.3906 -0.8025  0.3859
   6823SM  H12F 8889   3.257   1.866   5.663 -0.5086 -0.6142  1.1219
   6823SM  H12G 8890   3.395   1.980   5.673  0.2914  1.2680  0.7464
   6823SM  C13F 8891   3.218   2.044   5.545  0.9018  0.7393  0.3131
   6823SM  H13F 8892   3.231   2.152   5.566  1.4939  0.1884  3.1128
   6823SM  H13G 8893   3.112   2.016   5.526  1.3711 -1.6360  0.9149
   6823SM  C14F 8894   3.302   1.996   5.424  0.0749 -0.1318 -0.0076
   6823SM  H14F 8895   3.295   1.888   5.396  1.6997 -0.2971  0.1088
   6823SM  H14G 8896   3.410   2.010   5.444 -0.3450  2.5564  0.7146
   6823SM  C15F 8897   3.264   2.072   5.295  0.8890 -0.2857 -0.9692
   6823SM  H15F 8898   3.288   2.179   5.309 -1.2448  0.1823 -0.5048
   6823SM  H15G 8899   3.155   2.063   5.273  0.9611 -0.1342 -1.4004
   6823SM  C16F 8900   3.348   2.037   5.177 -0.6681 -0.5919  0.0790
   6823SM  H16F 8901   3.365   1.928   5.163  0.0324 -0.6134  0.9982
   6823SM  H16G 8902   3.447   2.085   5.190 -1.1502  0.2977  0.5270
   6823SM  C17F 8903   3.285   2.085   5.047 -0.4303 -0.0950  0.3346
   6823SM  H17F 8904   3.290   2.195   5.039  2.7105 -0.2643 -1.7444
   6823SM  H17G 8905   3.180   2.050   5.051 -0.9263  1.4060  3.6537
   6823SM  C18F 8906   3.353   2.036   4.918 -0.6733  0.2684 -0.3378
   6823SM  H18F 8907   3.358   1.925   4.917  1.0703  0.2112  2.8308
   6823SM  H18G 8908   3.454   2.075   4.895  0.7207 -1.5586  2.2655
   6823SM  C19F 8909   3.275   2.063   4.786 -0.5821 -0.0037 -0.2921
   6823SM  H19F 8910   3.279   2.173   4.769 -1.6326  0.4083  1.8304
   6823SM  H19G 8911   3.172   2.022   4.796 -0.3952  0.0786  3.1031
   6823SM  C20F 8912   3.343   2.000   4.664  0.0807 -0.0172  0.1728
   6823SM  H20F 8913   3.346   1.889   4.667  0.8529 -0.1197 -2.0276
   6823SM  H20G 8914   3.450   2.032   4.657  1.1858 -3.4261 -0.4159
   6823SM  C21F 8915   3.264   2.019   4.533  0.1135 -0.0286 -0.5032
   6823SM  H21F 8916   3.171   1.959   4.545  1.4916 -2.0692  0.6826
   6823SM  H21G 8917   3.316   1.973   4.446 -0.3089  0.5903 -1.0894
   6823SM  C22F 8918   3.231   2.163   4.497 -0.2583 -0.6033 -0.6913
   6823SM  H22F 8919   3.323   2.226   4.498 -0.7460  0.1460 -1.1835
   6823SM  H22G 8920   3.164   2.204   4.576  1.1313  0.8951 -0.2159
   6823SM  C23F 8921   3.176   2.191   4.359 -0.3722 -0.2864  0.2952
   6823SM  H23F 8922   3.256   2.187   4.282  1.1499 -1.1329  1.8609
   6823SM  H23G 8923   3.131   2.293   4.356 -2.4598 -1.1735 -0.3545
   6823SM  H23H 8924   3.097   2.117   4.336 -0.2455  0.1523 -1.7890
   6923SM     N 8925   6.525   2.028   6.931 -0.4809  0.4147 -0.2601
   6923SM   C15 8926   6.393   1.975   6.974 -0.0088  0.1834  0.4715
   6923SM  H15A 8927   6.403   1.903   7.054 -3.3243 -0.6044  0.3056
   6923SM  H15B 8928   6.356   1.914   6.894 -0.9043 -0.1252  1.1058
   6923SM  H15C 8929   6.328   2.053   7.010 -1.6643 -0.3008 -1.3238
   6923SM   C14 8930   6.515   2.137   6.825 -0.3385  0.1111  0.1985
   6923SM  H14A 8931   6.606   2.192   6.809  0.0146 -0.8082 -1.1377
   6923SM  H14B 8932   6.428   2.197   6.848 -2.2727 -1.7772 -1.6731
   6923SM  H14C 8933   6.482   2.096   6.731  2.3106 -1.2622 -0.2230
   6923SM   C13 8934   6.598   2.088   7.047  0.1517 -0.3528  0.4104
   6923SM  H13A 8935   6.700   2.114   7.022 -0.2358  0.3630 -0.4858
   6923SM  H13B 8936   6.597   2.023   7.133 -0.9106  0.6960  1.2198
   6923SM  H13C 8937   6.551   2.181   7.074  0.4324  0.0730 -0.5344
   6923SM   C12 8938   6.624   1.918   6.884  0.1080 -0.4179  0.4650
   6923SM  H12A 8939   6.634   1.846   6.963 -0.1466 -2.6477 -1.4169
   6923SM  H12B 8940   6.720   1.962   6.860  1.2188 -3.0230 -0.1637
   6923SM   C11 8941   6.592   1.833   6.761  0.0070 -0.2410 -0.0436
   6923SM  H11A 8942   6.686   1.779   6.735  1.2417  0.5118  2.6066
   6923SM  H11B 8943   6.571   1.898   6.672  1.6664  1.7472  0.9340
   6923SM     P 8944   6.493   1.624   6.878 -0.2288  0.2260  0.1134
   6923SM   O13 8945   6.627   1.618   6.940  0.4020 -0.5422 -0.0604
   6923SM   O14 8946   6.383   1.631   6.973  0.3240  0.0106  0.2019
   6923SM   O11 8947   6.487   1.496   6.783 -1.0661 -0.1959 -0.1303
   6923SM   O12 8948   6.479   1.748   6.778 -0.4101  0.7450  0.2961
   6923SM   C1S 8949   6.364   1.463   6.716  0.3049  0.1257  0.0063
   6923SM   H1S 8950   6.275   1.472   6.783  1.1547 -1.0817  1.3725
   6923SM   H1T 8951   6.357   1.352   6.713  1.6967 -0.0776  2.1887
   6923SM    NF 8952   6.213   1.501   6.531  0.0236  0.5150  0.0938
   6923SM   HNF 8953   6.207   1.434   6.457  1.5614  0.5626 -0.1011
   6923SM   C2S 8954   6.350   1.528   6.572  0.5790 -0.5426  0.3830
   6923SM   H2S 8955   6.367   1.637   6.579 -1.7178  0.0269 -1.4822
   6923SM   C3S 8956   6.460   1.473   6.483  0.5142 -0.3418 -0.0389
   6923SM   H3S 8957   6.448   1.362   6.484  0.7795 -0.3719  0.8641
   6923SM    O3 8958   6.587   1.492   6.538  0.0458  0.7669 -0.1441
   6923SM   HO3 8959   6.557   1.514   6.626 -0.6350  0.0751 -0.1902
   6923SM   C4S 8960   6.448   1.512   6.334 -1.0804  0.0967 -0.0557
   6923SM   H4S 8961   6.403   1.434   6.271 -1.7544  2.0882 -2.1925
   6923SM   C5S 8962   6.479   1.638   6.280 -0.2787 -0.2311  0.8023
   6923SM   H5S 8963   6.524   1.707   6.353 -1.1790 -1.3740  2.5359
   6923SM   C6S 8964   6.457   1.666   6.133  0.5244 -0.7063  0.2022
   6923SM   H6S 8965   6.532   1.741   6.100  0.1911 -0.5246 -0.1526
   6923SM   H6T 8966   6.361   1.721   6.122  1.6199  1.4155  0.7159
   6923SM   C7S 8967   6.468   1.549   6.036 -0.2367  0.2675  0.2448
   6923SM   H7S 8968   6.392   1.472   6.063 -0.3955  0.1697 -0.4636
   6923SM   H7T 8969   6.565   1.495   6.040 -1.0150 -1.1675  3.6243
   6923SM   C8S 8970   6.438   1.597   5.895 -0.3238 -0.1359  0.2492
   6923SM   H8S 8971   6.516   1.668   5.864 -1.3047  0.2126 -1.5691
   6923SM   H8T 8972   6.335   1.631   5.872  0.3680  1.5972 -0.4253
   6923SM   C9S 8973   6.455   1.480   5.794  0.4539  0.1092 -0.0357
   6923SM   H9S 8974   6.388   1.396   5.820  2.2480 -1.3630  0.0509
   6923SM   H9T 8975   6.556   1.436   5.810  0.0792 -0.8266 -0.2287
   6923SM  C10S 8976   6.436   1.515   5.642 -0.2835  0.3064 -0.2231
   6923SM  H10S 8977   6.511   1.585   5.599 -3.6658  2.9867 -2.2230
   6923SM  H10T 8978   6.344   1.575   5.627 -0.2760  0.7289  1.2829
   6923SM  C11S 8979   6.419   1.384   5.561 -0.3098 -0.3472 -0.5459
   6923SM  H11S 8980   6.399   1.419   5.458  1.9349 -1.4706 -1.4349
   6923SM  H11T 8981   6.326   1.331   5.588 -0.5455  0.1190 -0.4307
   6923SM  C12S 8982   6.546   1.298   5.569 -0.2109  0.4994 -0.0866
   6923SM  H12S 8983   6.508   1.201   5.530 -2.2981  0.8453  0.9123
   6923SM  H12T 8984   6.574   1.263   5.671 -2.3102 -0.0552  0.3460
   6923SM  C13S 8985   6.670   1.342   5.484 -0.4772 -0.5431  0.1487
   6923SM  H13S 8986   6.757   1.274   5.496  2.4438  3.0898  1.1476
   6923SM  H13T 8987   6.703   1.432   5.539 -2.4747 -0.1482  0.7993
   6923SM  C14S 8988   6.640   1.353   5.333  0.1594  0.6480 -0.0352
   6923SM  H14S 8989   6.588   1.451   5.326  1.1696  1.3957  1.9686
   6923SM  H14T 8990   6.567   1.275   5.303 -0.8395  0.7801  1.8297
   6923SM  C15S 8991   6.773   1.328   5.249  0.6268 -0.4553  0.0111
   6923SM  H15S 8992   6.793   1.219   5.260 -1.0821 -1.0566 -2.0355
   6923SM  H15T 8993   6.857   1.390   5.287 -1.5851  2.2329  0.8342
   6923SM  C16S 8994   6.749   1.357   5.095  0.1540  0.1150 -0.2307
   6923SM  H16S 8995   6.691   1.449   5.074 -2.7736 -1.1507  1.7076
   6923SM  H16T 8996   6.698   1.268   5.053 -1.3440 -0.2033  2.0745
   6923SM  C17S 8997   6.891   1.373   5.026  0.1469  0.0607 -0.4684
   6923SM  H17S 8998   6.955   1.292   5.067  0.0349  0.2219  0.0333
   6923SM  H17T 8999   6.941   1.466   5.061  0.2492  0.7320 -2.3128
   6923SM  C18S 9000   6.893   1.376   4.873  0.1244 -0.2122  0.1581
   6923SM  H18S 9001   6.835   1.458   4.824 -1.0838  0.4329  2.4791
   6923SM  H18T 9002   6.859   1.283   4.823 -1.0505  0.1786  0.1737
   6923SM  H18U 9003   6.997   1.387   4.836  0.3776  1.7208  1.3198
   6923SM   C1F 9004   6.106   1.560   6.580  0.1414 -0.4530 -0.1488
   6923SM    OF 9005   6.113   1.652   6.663 -0.2177  0.1126 -0.2529
   6923SM   C2F 9006   5.972   1.516   6.526 -0.6427 -0.3307 -0.1219
   6923SM   H2F 9007   5.932   1.430   6.584  0.4589  0.4072  1.8412
   6923SM   H2G 9008   5.981   1.492   6.418 -0.3478 -2.3869  0.3166
   6923SM   C3F 9009   5.858   1.633   6.530 -0.4928  0.3274  0.3567
   6923SM   H3F 9010   5.903   1.725   6.487 -1.1151 -0.2610 -1.6348
   6923SM   H3G 9011   5.836   1.648   6.638  1.0634  0.0205  0.7391
   6923SM   C4F 9012   5.727   1.592   6.458 -0.2721 -0.3203 -0.0003
   6923SM   H4F 9013   5.639   1.652   6.490  0.7759  1.7875 -0.8682
   6923SM   H4G 9014   5.708   1.486   6.485 -1.5153 -0.1907 -0.3199
   6923SM   C5F 9015   5.729   1.599   6.302  0.5486  0.3891  0.5126
   6923SM   H5F 9016   5.818   1.547   6.261  0.7043  0.0139  1.3099
   6923SM   H5G 9017   5.754   1.706   6.285  2.0073  0.1803  1.1923
   6923SM   C6F 9018   5.601   1.579   6.222  0.2819 -0.3004 -0.1377
   6923SM   H6F 9019   5.523   1.648   6.260 -0.6853 -1.1600 -0.5182
   6923SM   H6G 9020   5.572   1.472   6.237 -1.0784  0.1184  0.2845
   6923SM   C7F 9021   5.631   1.605   6.079  0.1247 -0.3468 -0.2385
   6923SM   H7F 9022   5.727   1.556   6.053  2.4803  3.4331  0.5251
   6923SM   H7G 9023   5.655   1.713   6.069  2.6831 -0.8181  0.0717
   6923SM   C8F 9024   5.531   1.556   5.968 -0.1031  0.0541 -0.0784
   6923SM   H8F 9025   5.435   1.602   6.000  1.0393  1.5621  1.3767
   6923SM   H8G 9026   5.534   1.445   5.974  3.3485  0.1238  3.2582
   6923SM   C9F 9027   5.576   1.603   5.824  0.1789  0.5923 -0.4051
   6923SM   H9F 9028   5.667   1.542   5.801 -0.3935 -0.4448 -0.0002
   6923SM   H9G 9029   5.604   1.710   5.836  2.2907  0.0367  0.0993
   6923SM  C10F 9030   5.469   1.577   5.718 -0.5508  0.1966  0.1020
   6923SM  H10F 9031   5.380   1.635   5.752 -0.8568 -1.8245  3.0806
   6923SM  H10G 9032   5.437   1.470   5.714 -0.7537  0.2827 -1.4307
   6923SM  C11F 9033   5.517   1.600   5.572  0.6388 -0.1023  0.8864
   6923SM  H11F 9034   5.616   1.560   5.539  0.0829 -1.4715  0.7890
   6923SM  H11G 9035   5.516   1.710   5.557 -0.1708  0.1865  2.7218
   6923SM  C12F 9036   5.415   1.556   5.467 -0.0906 -0.2800  0.1627
   6923SM  H12F 9037   5.315   1.592   5.499  0.0164  0.6821 -0.5329
   6923SM  H12G 9038   5.418   1.445   5.462  0.0663 -0.2980  0.6231
   6923SM  C13F 9039   5.448   1.611   5.326 -1.0977  0.4092  0.0026
   6923SM  H13F 9040   5.547   1.581   5.285 -1.7575 -0.3843 -1.0730
   6923SM  H13G 9041   5.436   1.721   5.337  0.5016  0.3729  2.7933
   6923SM  C14F 9042   5.339   1.575   5.229  0.1913 -0.0701  0.1136
   6923SM  H14F 9043   5.338   1.645   5.142 -1.2268 -0.8263 -0.5025
   6923SM  H14G 9044   5.239   1.569   5.277  1.5653  0.8134  3.3416
   6923SM  C15F 9045   5.371   1.429   5.174  0.1813  0.2246  0.4472
   6923SM  H15F 9046   5.332   1.368   5.259 -1.0418  2.2807  1.4584
   6923SM  H15G 9047   5.480   1.417   5.157 -0.0724  1.0560 -2.2321
   6923SM  C16F 9048   5.309   1.409   5.035 -0.2267  0.7104  0.5088
   6923SM  H16F 9049   5.204   1.443   5.023 -0.8606 -1.7660 -1.6608
   6923SM  H16G 9050   5.299   1.303   5.005  2.2513  0.3099  0.8378
   6923SM  C17F 9051   5.386   1.480   4.925 -0.3056  0.0662  0.1465
   6923SM  H17F 9052   5.475   1.415   4.922  0.4641  1.0250  1.0422
   6923SM  H17G 9053   5.418   1.581   4.960 -0.1380  0.2273 -0.4674
   6923SM  C18F 9054   5.323   1.485   4.784 -0.1709 -0.5813  0.1196
   6923SM  H18F 9055   5.297   1.383   4.749 -0.9989 -0.4935  0.4477
   6923SM  H18G 9056   5.399   1.519   4.711  1.0336 -4.3150 -0.6042
   6923SM  C19F 9057   5.194   1.567   4.759  0.0437  0.0881 -1.0306
   6923SM  H19F 9058   5.178   1.641   4.841 -1.5742 -1.9282  0.5897
   6923SM  H19G 9059   5.117   1.491   4.785  1.0176 -1.0697 -1.4856
   6923SM  C20F 9060   5.176   1.620   4.619  0.3296  0.4596  0.7585
   6923SM  H20F 9061   5.239   1.709   4.598 -2.0144  2.0241 -0.1406
   6923SM  H20G 9062   5.073   1.662   4.612  0.8285  1.4885 -1.2861
   6923SM  C21F 9063   5.183   1.513   4.505 -0.0878 -0.0822 -0.0461
   6923SM  H21F 9064   5.143   1.412   4.530  0.6287  0.1357  2.2530
   6923SM  H21G 9065   5.290   1.494   4.480 -0.5260 -0.8090 -1.4764
   6923SM  C22F 9066   5.119   1.556   4.369 -0.8292  0.1766  0.6410
   6923SM  H22F 9067   5.182   1.645   4.347  2.3921 -1.9877  0.4908
   6923SM  H22G 9068   5.014   1.593   4.371 -0.7649  0.3770  0.3974
   6923SM  C23F 9069   5.134   1.449   4.255  0.3638  0.1063 -0.1258
   6923SM  H23F 9070   5.242   1.433   4.237  0.4707 -0.3355  0.8558
   6923SM  H23G 9071   5.103   1.476   4.152  1.4319  1.2426 -0.1745
   6923SM  H23H 9072   5.092   1.351   4.288  0.4954  0.2042  0.3290
   7023SM     N 9073   4.823   0.957   6.796  0.0484 -0.0172 -0.0710
   7023SM   C15 9074   4.932   0.927   6.895 -0.1073  0.3032 -0.1208
   7023SM  H15A 9075   5.025   0.926   6.839 -0.3252 -2.5693 -0.5714
   7023SM  H15B 9076   4.918   0.827   6.934 -0.7677  0.6454  0.5389
   7023SM  H15C 9077   4.927   0.999   6.975 -0.4354  0.9325 -0.6895
   7023SM   C14 9078   4.861   0.907   6.657  0.6750  0.1251  0.1346
   7023SM  H14A 9079   4.768   0.885   6.606  0.8013 -1.4340  0.5367
   7023SM  H14B 9080   4.921   0.818   6.660 -0.4137 -0.6044  1.6287
   7023SM  H14C 9081   4.916   0.987   6.610 -2.3535  3.1825  1.3044
   7023SM   C13 9082   4.696   0.889   6.834 -0.2048 -0.4504 -0.1211
   7023SM  H13A 9083   4.645   0.924   6.922 -1.5889 -4.3844  0.8686
   7023SM  H13B 9084   4.713   0.784   6.853 -0.5751 -0.5287 -0.2138
   7023SM  H13C 9085   4.624   0.892   6.753  0.0524  1.9808 -0.3199
   7023SM   C12 9086   4.800   1.105   6.799 -0.3018  0.2481 -0.1821
   7023SM  H12A 9087   4.717   1.117   6.731 -2.5332  1.0946  2.5140
   7023SM  H12B 9088   4.885   1.157   6.759 -0.3716 -0.1357 -0.8451
   7023SM   C11 9089   4.754   1.188   6.922 -0.0218 -0.1608 -0.2358
   7023SM  H11A 9090   4.662   1.143   6.963 -0.3053 -0.7330 -1.4654
   7023SM  H11B 9091   4.726   1.291   6.891  2.1470  0.4887 -0.2230
   7023SM     P 9092   4.971   1.286   7.047 -0.5054  0.2180  0.2321
   7023SM   O13 9093   4.935   1.381   7.156 -0.0796  0.4769  0.2530
   7023SM   O14 9094   5.080   1.192   7.085  0.2726  0.1775  0.5290
   7023SM   O11 9095   5.003   1.363   6.910  0.9565 -0.1753  0.0763
   7023SM   O12 9096   4.854   1.192   7.023  0.0937 -0.5757  0.0665
   7023SM   C1S 9097   5.139   1.359   6.855 -0.2670 -0.1471 -0.6219
   7023SM   H1S 9098   5.205   1.273   6.878  1.2165  1.3024  0.7916
   7023SM   H1T 9099   5.196   1.447   6.892  1.0574 -1.2799  0.1177
   7023SM    NF 9100   5.283   1.354   6.644 -0.0352 -0.1342 -0.1937
   7023SM   HNF 9101   5.334   1.438   6.632  0.2584 -0.2316  0.3183
   7023SM   C2S 9102   5.144   1.380   6.704 -0.3932 -0.1380  0.1506
   7023SM   H2S 9103   5.080   1.307   6.650  0.6670 -0.1843 -1.1010
   7023SM   C3S 9104   5.082   1.520   6.668 -0.2136 -0.3998 -0.1763
   7023SM   H3S 9105   5.119   1.602   6.732 -1.0533  1.1639 -1.6274
   7023SM    O3 9106   4.940   1.517   6.700 -0.1696 -0.7721 -0.4056
   7023SM   HO3 9107   4.943   1.464   6.779 -0.7305  0.6303  0.5935
   7023SM   C4S 9108   5.112   1.573   6.534  0.7197  0.5039  0.0966
   7023SM   H4S 9109   5.205   1.630   6.539  0.5274  0.7259  1.4791
   7023SM   C5S 9110   5.026   1.575   6.429  0.6747 -0.2128  0.0412
   7023SM   H5S 9111   4.922   1.543   6.442  0.2737  1.0187 -0.0007
   7023SM   C6S 9112   5.038   1.653   6.296  0.2090 -0.5461 -0.8491
   7023SM   H6S 9113   4.974   1.744   6.299  0.4152 -0.4155  0.4850
   7023SM   H6T 9114   4.994   1.585   6.220  0.5114 -0.1841 -1.3538
   7023SM   C7S 9115   5.178   1.696   6.266 -0.7140 -0.8981  0.4950
   7023SM   H7S 9116   5.246   1.612   6.291 -0.5213 -1.2960 -1.2234
   7023SM   H7T 9117   5.193   1.783   6.333 -0.5323 -0.9838  0.5649
   7023SM   C8S 9118   5.191   1.750   6.115 -0.1728  0.1117  0.0207
   7023SM   H8S 9119   5.182   1.666   6.043  0.9600  0.4222 -0.5139
   7023SM   H8T 9120   5.292   1.792   6.092  1.1962 -2.3036  1.1878
   7023SM   C9S 9121   5.093   1.851   6.072 -0.5915 -0.8331  0.2831
   7023SM   H9S 9122   5.096   1.935   6.145 -0.3276 -1.1396  0.6310
   7023SM   H9T 9123   4.992   1.806   6.079 -0.8739 -0.1319  0.8460
   7023SM  C10S 9124   5.107   1.889   5.925 -0.4967  0.1378 -0.1062
   7023SM  H10S 9125   5.205   1.938   5.905 -0.5772  0.5079  0.3940
   7023SM  H10T 9126   5.044   1.979   5.906 -1.7800 -0.7287 -0.0989
   7023SM  C11S 9127   5.069   1.777   5.823  0.0213 -0.3298  0.2139
   7023SM  H11S 9128   4.960   1.761   5.842  0.3169 -0.6561  1.8121
   7023SM  H11T 9129   5.123   1.680   5.829  0.9512  0.2477  2.1544
   7023SM  C12S 9130   5.083   1.823   5.678  0.0299 -0.1146 -0.4908
   7023SM  H12S 9131   4.998   1.891   5.654  1.1419  1.0154 -1.3379
   7023SM  H12T 9132   5.062   1.740   5.607 -1.7133  0.7899 -1.1039
   7023SM  C13S 9133   5.213   1.888   5.645  0.4700 -0.5424  0.0454
   7023SM  H13S 9134   5.304   1.833   5.679  0.0749 -0.1022  1.9697
   7023SM  H13T 9135   5.195   1.988   5.689 -3.0828 -1.6587  1.4824
   7023SM  C14S 9136   5.228   1.907   5.497  0.8509 -0.2185  0.3680
   7023SM  H14S 9137   5.130   1.936   5.454  1.5190 -0.2374 -1.2636
   7023SM  H14T 9138   5.254   1.805   5.461 -2.2627 -0.8676 -0.3553
   7023SM  C15S 9139   5.340   2.006   5.452  0.5229  0.6222  0.5992
   7023SM  H15S 9140   5.435   1.955   5.476 -0.8100 -2.7361 -0.6308
   7023SM  H15T 9141   5.328   2.101   5.510 -0.1684  0.9231 -0.0118
   7023SM  C16S 9142   5.329   2.029   5.303 -0.8070  0.3409 -0.1227
   7023SM  H16S 9143   5.268   1.944   5.264 -0.7480 -0.0946  0.7050
   7023SM  H16T 9144   5.431   2.019   5.259 -0.9177 -1.8238 -0.0132
   7023SM  C17S 9145   5.266   2.165   5.273 -0.3518  0.8564 -0.0333
   7023SM  H17S 9146   5.329   2.244   5.320 -1.3371  0.2198  2.4971
   7023SM  H17T 9147   5.168   2.184   5.321  0.1336  2.2967  0.4556
   7023SM  C18S 9148   5.244   2.191   5.126 -0.0763  0.2841 -0.0475
   7023SM  H18S 9149   5.216   2.295   5.099 -4.4292 -0.8093 -0.5155
   7023SM  H18T 9150   5.182   2.113   5.075  1.5115 -1.3387  0.3827
   7023SM  H18U 9151   5.341   2.178   5.073 -0.5839 -1.0140 -0.7047
   7023SM   C1F 9152   5.343   1.236   6.621  0.6888 -0.0337  0.9476
   7023SM    OF 9153   5.285   1.121   6.620  0.1857 -0.6773  0.7276
   7023SM   C2F 9154   5.491   1.249   6.587 -0.2151  0.4497 -0.4498
   7023SM   H2F 9155   5.556   1.210   6.669 -0.3443 -0.5460 -0.8065
   7023SM   H2G 9156   5.512   1.353   6.555 -0.8194  0.2685 -1.4946
   7023SM   C3F 9157   5.525   1.150   6.475 -0.6060 -0.2469  0.0029
   7023SM   H3F 9158   5.465   1.174   6.385 -1.3519  0.0753  0.5803
   7023SM   H3G 9159   5.511   1.043   6.501  0.2823  0.0570  1.8304
   7023SM   C4F 9160   5.672   1.164   6.420  0.2931  0.5236 -0.4256
   7023SM   H4F 9161   5.751   1.112   6.479  1.2735  0.6545 -1.5740
   7023SM   H4G 9162   5.708   1.268   6.403  0.1313  0.1751 -3.6448
   7023SM   C5F 9163   5.678   1.096   6.278 -0.7528 -0.1397  0.4823
   7023SM   H5F 9164   5.606   1.012   6.270  0.3793 -1.2282  1.3198
   7023SM   H5G 9165   5.772   1.037   6.265 -0.8362 -0.1684 -0.0286
   7023SM   C6F 9166   5.656   1.185   6.152 -0.1239  0.2231  0.3995
   7023SM   H6F 9167   5.706   1.284   6.165 -3.0756  1.9943 -0.6247
   7023SM   H6G 9168   5.552   1.221   6.137  0.0614 -0.1593 -2.2936
   7023SM   C7F 9169   5.692   1.114   6.023 -0.0395  0.5628 -0.5546
   7023SM   H7F 9170   5.650   1.012   6.038  0.8354  0.3499  0.5690
   7023SM   H7G 9171   5.801   1.112   6.001 -0.0699 -0.1078 -0.6590
   7023SM   C8F 9172   5.622   1.185   5.899  0.2525 -0.2699  0.1537
   7023SM   H8F 9173   5.639   1.294   5.900 -1.3807  0.0139  0.6313
   7023SM   H8G 9174   5.512   1.168   5.903 -0.0538  1.2779 -0.8023
   7023SM   C9F 9175   5.678   1.128   5.765  0.0799  0.2116  0.5007
   7023SM   H9F 9176   5.701   1.020   5.779  0.6878  0.5070  1.8575
   7023SM   H9G 9177   5.778   1.173   5.750 -0.0237  0.1779 -0.3315
   7023SM  C10F 9178   5.589   1.162   5.641 -0.0964  0.4833 -0.9273
   7023SM  H10F 9179   5.571   1.271   5.631 -1.5496  0.2299 -1.2372
   7023SM  H10G 9180   5.488   1.123   5.663 -0.6802  1.0753 -2.4005
   7023SM  C11F 9181   5.638   1.102   5.506  0.2505 -0.7539 -0.7883
   7023SM  H11F 9182   5.641   0.991   5.502 -2.3350 -1.2816  3.9969
   7023SM  H11G 9183   5.746   1.128   5.511  0.2714 -0.8924 -0.4868
   7023SM  C12F 9184   5.577   1.184   5.390  0.3938 -0.0907  0.0447
   7023SM  H12F 9185   5.587   1.293   5.409 -0.4823 -0.0560  0.3666
   7023SM  H12G 9186   5.467   1.173   5.383  0.5912 -2.9547  0.1624
   7023SM  C13F 9187   5.635   1.155   5.256  0.2653 -0.0328  0.3498
   7023SM  H13F 9188   5.744   1.171   5.244  0.3902 -0.7303  0.4950
   7023SM  H13G 9189   5.583   1.218   5.182 -1.0451  1.9180  2.7812
   7023SM  C14F 9190   5.621   1.007   5.212  0.6054  0.4897 -0.9038
   7023SM  H14F 9191   5.678   0.944   5.284 -0.4535  1.1234  0.5460
   7023SM  H14G 9192   5.660   0.996   5.109  1.7507 -1.7689 -0.2818
   7023SM  C15F 9193   5.476   0.945   5.198  0.0635 -0.0011  0.5750
   7023SM  H15F 9194   5.429   0.936   5.298 -0.2125  2.8283  0.7878
   7023SM  H15G 9195   5.499   0.842   5.163  3.0534 -0.0753  2.4039
   7023SM  C16F 9196   5.385   1.027   5.102 -0.0751  0.2545 -0.0293
   7023SM  H16F 9197   5.446   1.056   5.014  0.3441  0.9730  0.4925
   7023SM  H16G 9198   5.349   1.121   5.149  1.2901  1.1128 -0.6356
   7023SM  C17F 9199   5.269   0.935   5.048 -0.3119 -0.3812  0.1913
   7023SM  H17F 9200   5.223   0.892   5.140  0.4503  0.4524  0.9879
   7023SM  H17G 9201   5.314   0.856   4.985 -0.4709  0.3281 -0.8338
   7023SM  C18F 9202   5.179   1.007   4.947 -0.5310 -0.5289  0.5037
   7023SM  H18F 9203   5.120   1.089   4.993  0.6720  0.3928  0.4635
   7023SM  H18G 9204   5.098   0.937   4.918 -1.3626  0.1330  1.1423
   7023SM  C19F 9205   5.256   1.071   4.829  0.4466 -0.0147  0.0130
   7023SM  H19F 9206   5.318   0.997   4.774  0.2031  0.1050 -0.4255
   7023SM  H19G 9207   5.324   1.148   4.871 -0.6818 -0.3520  2.6679
   7023SM  C20F 9208   5.155   1.123   4.728  0.5965 -0.0452 -0.3802
   7023SM  H20F 9209   5.200   1.209   4.675 -0.6212  1.5521  1.0648
   7023SM  H20G 9210   5.071   1.161   4.790  0.4325 -1.5035  0.3519
   7023SM  C21F 9211   5.104   1.013   4.646 -0.3921  0.0898 -0.4720
   7023SM  H21F 9212   5.046   0.938   4.704  1.1752 -0.9237 -0.1231
   7023SM  H21G 9213   5.186   0.949   4.605 -2.4057 -1.6808 -1.9329
   7023SM  C22F 9214   5.027   1.063   4.527 -0.3567  1.0302 -0.1702
   7023SM  H22F 9215   5.089   1.140   4.475  2.6319  0.2603  2.0288
   7023SM  H22G 9216   4.944   1.132   4.555 -0.3141  0.8959  0.2914
   7023SM  C23F 9217   4.990   0.959   4.424  0.2060 -0.0228  0.2470
   7023SM  H23F 9218   5.080   0.911   4.377 -1.1690  0.1485 -2.8332
   7023SM  H23G 9219   4.945   1.018   4.341  0.7865 -0.8147 -0.6553
   7023SM  H23H 9220   4.919   0.891   4.475  1.0793 -1.6853 -0.6440
   7123SM     N 9221   2.774   7.571   7.207 -0.7505 -0.3279 -0.4723
   7123SM   C15 9222   2.691   7.604   7.084  0.8632  0.3550  0.0590
   7123SM  H15A 9223   2.739   7.679   7.023 -1.9774  0.5257 -2.1921
   7123SM  H15B 9224   2.601   7.653   7.120  0.1146  0.0537 -1.3073
   7123SM  H15C 9225   2.664   7.513   7.032 -1.4509  0.4376  0.9978
   7123SM   C14 9226   2.798   7.699   7.271 -0.8344  0.1090 -0.9901
   7123SM  H14A 9227   2.832   7.772   7.199  1.0951  0.3347  0.0708
   7123SM  H14B 9228   2.877   7.704   7.345 -0.7195  0.6548 -1.1446
   7123SM  H14C 9229   2.710   7.747   7.312  0.6144  4.1317 -2.1476
   7123SM   C13 9230   2.693   7.501   7.303 -0.1864 -0.1638 -0.4143
   7123SM  H13A 9231   2.605   7.555   7.335  2.0740  2.2264  2.3543
   7123SM  H13B 9232   2.746   7.480   7.395  0.8313 -0.8112 -1.1384
   7123SM  H13C 9233   2.673   7.406   7.256  0.1135  0.4697 -1.8486
   7123SM   C12 9234   2.903   7.501   7.162  0.0126 -0.0543 -0.5371
   7123SM  H12A 9235   2.935   7.459   7.256  2.9362 -4.0686 -2.9635
   7123SM  H12B 9236   2.982   7.569   7.135 -0.5196  0.7634 -0.0851
   7123SM   C11 9237   2.890   7.400   7.047  0.4173 -0.3797  0.3502
   7123SM  H11A 9238   2.991   7.376   7.008 -0.3199 -0.6911 -1.4406
   7123SM  H11B 9239   2.849   7.452   6.958  0.0543 -0.5421  0.4238
   7123SM     P 9240   2.874   7.140   7.079 -0.2720  0.2277  0.3721
   7123SM   O13 9241   2.950   7.129   7.208  0.5375  0.1426 -0.6618
   7123SM   O14 9242   2.759   7.051   7.054 -0.0906  0.1462 -0.5882
   7123SM   O11 9243   2.975   7.134   6.954  1.0336 -0.5481 -0.1983
   7123SM   O12 9244   2.816   7.282   7.083 -0.3944  0.5630 -0.1933
   7123SM   C1S 9245   2.922   7.075   6.836  0.5441  0.3193  0.6201
   7123SM   H1S 9246   2.812   7.060   6.831  0.5505  0.2444  0.6906
   7123SM   H1T 9247   2.974   6.977   6.820 -2.7235 -1.9368  2.5529
   7123SM    NF 9248   2.887   7.121   6.595  0.3582 -0.5289  0.2117
   7123SM   HNF 9249   2.946   7.095   6.519  0.3937 -0.8277  0.3395
   7123SM   C2S 9250   2.960   7.171   6.713 -0.1666  0.1595  0.3847
   7123SM   H2S 9251   2.919   7.272   6.737 -1.7027 -0.4041  0.2326
   7123SM   C3S 9252   3.117   7.184   6.710 -0.0692  0.4913 -0.2468
   7123SM   H3S 9253   3.158   7.084   6.734  0.7086  0.1046 -2.8296
   7123SM    O3 9254   3.165   7.263   6.822  0.1030 -0.3451 -0.3869
   7123SM   HO3 9255   3.090   7.279   6.879  0.0955 -0.4758 -0.3608
   7123SM   C4S 9256   3.171   7.229   6.578  0.5863  0.5260 -0.2837
   7123SM   H4S 9257   3.147   7.332   6.546  3.5316  0.8238 -1.8237
   7123SM   C5S 9258   3.246   7.154   6.496  0.6945 -0.9081  0.2420
   7123SM   H5S 9259   3.266   7.047   6.506  0.7001 -1.2294 -2.6009
   7123SM   C6S 9260   3.303   7.209   6.369  0.0945  0.2919  0.1736
   7123SM   H6S 9261   3.253   7.153   6.287 -1.3320  0.9891  0.5260
   7123SM   H6T 9262   3.413   7.195   6.366  0.0892  0.3518 -1.9046
   7123SM   C7S 9263   3.292   7.359   6.335  1.0271  1.0480  0.2454
   7123SM   H7S 9264   3.347   7.410   6.416  1.0433  1.1018  0.2001
   7123SM   H7T 9265   3.187   7.395   6.343  1.0555  1.3122 -0.5007
   7123SM   C8S 9266   3.358   7.416   6.207 -0.1718  0.5398 -0.4919
   7123SM   H8S 9267   3.335   7.350   6.121 -1.0221  1.9760 -1.3967
   7123SM   H8T 9268   3.464   7.394   6.232 -0.7962 -1.0484  0.9470
   7123SM   C9S 9269   3.362   7.565   6.179 -0.3042 -0.4293 -0.1286
   7123SM   H9S 9270   3.379   7.628   6.269 -0.3420  0.8646 -1.0019
   7123SM   H9T 9271   3.261   7.593   6.141  0.2368  1.3956 -0.3322
   7123SM  C10S 9272   3.471   7.616   6.080  0.0301  0.3904 -0.2322
   7123SM  H10S 9273   3.475   7.537   6.001  0.2485  0.5681 -0.4009
   7123SM  H10T 9274   3.572   7.627   6.126  0.4240 -0.8192 -0.7688
   7123SM  C11S 9275   3.433   7.754   6.025  0.4052 -0.0378  0.4093
   7123SM  H11S 9276   3.450   7.833   6.101  3.7511 -0.2321  0.0218
   7123SM  H11T 9277   3.328   7.754   5.990  0.4375  0.7986  0.2994
   7123SM  C12S 9278   3.527   7.778   5.902 -0.1623  0.2491 -0.0339
   7123SM  H12S 9279   3.506   7.705   5.820  1.6101  0.8087 -1.0541
   7123SM  H12T 9280   3.630   7.766   5.942  0.1902  2.0755 -0.3285
   7123SM  C13S 9281   3.518   7.912   5.829  0.2282 -0.0285 -0.7241
   7123SM  H13S 9282   3.529   7.985   5.913  1.2183 -2.4016  1.3160
   7123SM  H13T 9283   3.426   7.942   5.774  0.6603  0.0100 -1.4343
   7123SM  C14S 9284   3.634   7.926   5.734  0.3773 -0.4848  0.9219
   7123SM  H14S 9285   3.605   7.863   5.647  1.1648  1.0199 -0.4988
   7123SM  H14T 9286   3.723   7.879   5.780  0.6811 -0.3974  0.4349
   7123SM  C15S 9287   3.678   8.064   5.689  0.5472 -0.5703 -0.0499
   7123SM  H15S 9288   3.764   8.057   5.619  0.8510  0.7942  0.1620
   7123SM  H15T 9289   3.712   8.116   5.780  1.6922  1.0131 -1.3184
   7123SM  C16S 9290   3.562   8.157   5.630  0.2001  0.2747 -0.0252
   7123SM  H16S 9291   3.479   8.167   5.703 -1.9896 -2.0208 -2.0433
   7123SM  H16T 9292   3.513   8.112   5.541 -0.5663  0.0648  0.4973
   7123SM  C17S 9293   3.619   8.295   5.595 -0.3654  0.4828  0.0433
   7123SM  H17S 9294   3.682   8.274   5.507  1.2564 -2.1774  1.6937
   7123SM  H17T 9295   3.680   8.338   5.678 -0.6812  2.2353 -0.5921
   7123SM  C18S 9296   3.518   8.393   5.550 -0.2062 -1.2485 -0.1820
   7123SM  H18S 9297   3.479   8.459   5.630 -2.3364 -1.3748 -1.0647
   7123SM  H18T 9298   3.448   8.338   5.483 -0.4761 -1.8262  0.5615
   7123SM  H18U 9299   3.568   8.467   5.484  0.2939  0.3266  1.8431
   7123SM   C1F 9300   2.756   7.116   6.578 -0.3296 -0.5272 -0.0473
   7123SM    OF 9301   2.682   7.184   6.654 -0.1466  0.2947  0.1199
   7123SM   C2F 9302   2.698   7.030   6.467  0.3627  0.6286 -0.0819
   7123SM   H2F 9303   2.594   7.068   6.457 -1.0644 -2.1285  2.6698
   7123SM   H2G 9304   2.694   6.924   6.498  0.9283  0.6082 -0.0725
   7123SM   C3F 9305   2.772   7.044   6.328 -0.1516  0.2336 -0.5252
   7123SM   H3F 9306   2.721   6.971   6.262 -0.5344  0.8109 -0.8706
   7123SM   H3G 9307   2.879   7.019   6.346 -0.2143  0.5576  0.3828
   7123SM   C4F 9308   2.777   7.183   6.263  0.5641  0.1711 -0.1056
   7123SM   H4F 9309   2.822   7.254   6.336  2.8782 -0.4358 -0.8590
   7123SM   H4G 9310   2.672   7.212   6.240  0.3317 -0.4151  0.1858
   7123SM   C5F 9311   2.846   7.189   6.129  0.1598  0.4647 -0.2887
   7123SM   H5F 9312   2.804   7.274   6.072 -0.6032  1.0689  1.1298
   7123SM   H5G 9313   2.818   7.101   6.067 -1.0218 -0.0909  0.9691
   7123SM   C6F 9314   3.000   7.197   6.135  0.5105  0.5081 -0.1845
   7123SM   H6F 9315   3.046   7.107   6.181  1.1739  0.6880 -0.4887
   7123SM   H6G 9316   3.020   7.281   6.206  2.8508 -0.3316  0.2356
   7123SM   C7F 9317   3.051   7.215   5.994 -0.0379 -0.2150 -0.1292
   7123SM   H7F 9318   3.008   7.148   5.916 -0.3129  1.6868 -1.6967
   7123SM   H7G 9319   3.159   7.190   5.985 -0.3077 -1.6019  0.1891
   7123SM   C8F 9320   3.032   7.362   5.960 -0.4257 -0.1085  0.0946
   7123SM   H8F 9321   3.031   7.433   6.045  0.9518 -0.5107  0.4852
   7123SM   H8G 9322   2.941   7.376   5.898  1.6651 -0.6316 -3.4038
   7123SM   C9F 9323   3.141   7.412   5.862 -0.0843 -0.2185 -0.2597
   7123SM   H9F 9324   3.146   7.331   5.786 -5.6450 -1.8610  0.6809
   7123SM   H9G 9325   3.232   7.421   5.925  0.9720  2.6979 -1.9973
   7123SM  C10F 9326   3.103   7.549   5.796 -0.7754 -1.1302 -0.6241
   7123SM  H10F 9327   3.087   7.617   5.882 -1.9068 -0.8868 -1.0082
   7123SM  H10G 9328   3.000   7.537   5.758 -2.1901  1.6294  1.8844
   7123SM  C11F 9329   3.211   7.590   5.699  0.0284  0.1111  0.1844
   7123SM  H11F 9330   3.201   7.526   5.609 -0.1206  0.6205 -0.1710
   7123SM  H11G 9331   3.313   7.573   5.738  2.5590  1.4955 -4.8967
   7123SM  C12F 9332   3.212   7.729   5.648  0.1523 -0.5957 -0.4205
   7123SM  H12F 9333   3.210   7.804   5.730 -3.0773  0.6672 -1.5030
   7123SM  H12G 9334   3.110   7.747   5.608 -0.2797 -2.2457 -0.1203
   7123SM  C13F 9335   3.320   7.750   5.542 -0.3455 -0.4647 -0.2202
   7123SM  H13F 9336   3.299   7.678   5.461 -1.6948  1.1086 -1.3166
   7123SM  H13G 9337   3.427   7.744   5.573 -1.0344 -1.2830  2.2568
   7123SM  C14F 9338   3.305   7.890   5.472 -0.4113 -0.0470 -0.5214
   7123SM  H14F 9339   3.316   7.972   5.546 -0.1001 -1.4724  1.0699
   7123SM  H14G 9340   3.202   7.899   5.434 -0.5863  0.2866  0.0185
   7123SM  C15F 9341   3.386   7.917   5.339  0.4507  1.3418 -0.6227
   7123SM  H15F 9342   3.492   7.922   5.374  0.1473  1.2331  0.3608
   7123SM  H15G 9343   3.354   8.012   5.292 -1.7237  0.5010 -0.9546
   7123SM  C16F 9344   3.377   7.803   5.237 -0.1868  0.2055  0.2106
   7123SM  H16F 9345   3.275   7.760   5.231  0.6254 -1.6717 -1.2997
   7123SM  H16G 9346   3.450   7.724   5.268  2.1851  1.1882 -2.4032
   7123SM  C17F 9347   3.418   7.846   5.093  0.1794  0.1543 -0.7504
   7123SM  H17F 9348   3.529   7.851   5.088  0.1390  1.3633 -0.6342
   7123SM  H17G 9349   3.374   7.945   5.069 -2.7150 -0.3306  1.8920
   7123SM  C18F 9350   3.372   7.737   4.995  0.2216  0.1001 -0.6643
   7123SM  H18F 9351   3.262   7.728   5.011 -0.0872  2.9182 -0.5728
   7123SM  H18G 9352   3.409   7.639   5.030  1.6839  0.6152 -0.7014
   7123SM  C19F 9353   3.408   7.758   4.852  0.7883  0.1135 -0.1222
   7123SM  H19F 9354   3.409   7.655   4.808  3.2441 -0.0179  0.1359
   7123SM  H19G 9355   3.514   7.790   4.850  0.3588  1.5983 -0.1447
   7123SM  C20F 9356   3.313   7.842   4.778  0.0747  0.5413  0.0879
   7123SM  H20F 9357   3.329   7.945   4.815  0.4108  0.2159  0.8556
   7123SM  H20G 9358   3.206   7.820   4.797  0.5348  0.0606  2.4560
   7123SM  C21F 9359   3.350   7.845   4.628  0.3950  0.6159 -0.2732
   7123SM  H21F 9360   3.365   7.743   4.585  2.5148  1.0081 -0.5840
   7123SM  H21G 9361   3.449   7.894   4.615  1.2503 -0.5688  1.3235
   7123SM  C22F 9362   3.250   7.924   4.547  0.8567  0.9131 -0.4541
   7123SM  H22F 9363   3.219   8.018   4.597 -1.0921 -0.5103  1.1722
   7123SM  H22G 9364   3.154   7.869   4.541  0.9614  0.7546 -0.7033
   7123SM  C23F 9365   3.283   7.953   4.401 -0.8549  0.6189 -0.1990
   7123SM  H23F 9366   3.199   7.992   4.340  0.1732 -0.6301 -2.5825
   7123SM  H23G 9367   3.314   7.861   4.347  0.1859  0.8190  0.0223
   7123SM  H23H 9368   3.369   8.024   4.403 -1.2010  1.0268  0.7318
   7223SM     N 9369   7.027   3.080   7.231  0.0718  0.4605  0.0900
   7223SM   C15 9370   7.058   2.970   7.134  0.0332  0.4097  0.4458
   7223SM  H15A 9371   6.973   2.904   7.127  0.0627  0.5325 -1.4652
   7223SM  H15B 9372   7.127   2.897   7.175  0.4512 -0.1442 -1.1914
   7223SM  H15C 9373   7.098   3.000   7.039 -2.8995  1.8247 -0.4395
   7223SM   C14 9374   6.985   3.030   7.366 -0.8332 -0.0944 -0.0840
   7223SM  H14A 9375   7.066   3.000   7.431 -1.0178 -0.5089 -0.0416
   7223SM  H14B 9376   6.916   2.951   7.344 -0.7462 -0.3449  0.5263
   7223SM  H14C 9377   6.927   3.111   7.409  0.0962 -0.1506  1.3525
   7223SM   C13 9378   7.148   3.173   7.239  0.4438  0.7603 -0.3162
   7223SM  H13A 9379   7.233   3.127   7.286 -0.1880 -0.1338 -0.0329
   7223SM  H13B 9380   7.125   3.259   7.300  1.9810  0.2290  1.0460
   7223SM  H13C 9381   7.180   3.213   7.144 -1.0147  0.0778 -1.1315
   7223SM   C12 9382   6.910   3.161   7.176 -0.2938  0.0730  0.2920
   7223SM  H12A 9383   6.840   3.088   7.139  0.9624 -1.3603  0.6375
   7223SM  H12B 9384   6.937   3.223   7.092  0.9675 -0.4656  0.2846
   7223SM   C11 9385   6.826   3.254   7.272  0.0846  0.6676  0.4472
   7223SM  H11A 9386   6.764   3.203   7.348 -1.6729  2.2235  0.1300
   7223SM  H11B 9387   6.748   3.294   7.204 -1.6726  0.5296  2.2796
   7223SM     P 9388   6.918   3.492   7.257 -0.1340 -0.0196  0.3222
   7223SM   O13 9389   6.784   3.543   7.285  0.2949  0.0914 -0.0830
   7223SM   O14 9390   7.037   3.561   7.303  0.0288 -0.0752 -0.0834
   7223SM   O11 9391   6.939   3.450   7.101 -0.3529  0.2444 -1.0296
   7223SM   O12 9392   6.917   3.349   7.321 -0.1110  0.1858  0.0306
   7223SM   C1S 9393   7.062   3.470   7.038  0.7466 -0.2338 -0.1818
   7223SM   H1S 9394   7.143   3.406   7.079  2.6093  1.7106 -0.5887
   7223SM   H1T 9395   7.100   3.575   7.047 -0.8935  0.5716 -2.0202
   7223SM    NF 9396   7.179   3.413   6.832 -0.2437  0.7348  0.2271
   7223SM   HNF 9397   7.218   3.486   6.776 -0.8831 -0.4665 -1.9072
   7223SM   C2S 9398   7.047   3.452   6.880  0.3531  0.5997 -0.3954
   7223SM   H2S 9399   6.980   3.364   6.865  0.8458  0.2691 -0.6984
   7223SM   C3S 9400   6.974   3.566   6.809  0.0087 -0.4466 -0.7746
   7223SM   H3S 9401   7.044   3.651   6.825 -0.7828 -0.2813  2.2791
   7223SM    O3 9402   6.852   3.593   6.870 -0.7802  0.6569 -0.1541
   7223SM   HO3 9403   6.858   3.535   6.946  1.6897  1.8681  0.6691
   7223SM   C4S 9404   6.952   3.542   6.665 -0.5653 -0.2937  0.2259
   7223SM   H4S 9405   6.874   3.476   6.625 -2.6317  2.6045 -0.8901
   7223SM   C5S 9406   7.022   3.615   6.578 -0.0384 -0.5644 -0.6154
   7223SM   H5S 9407   7.115   3.668   6.601 -0.8710 -0.3858  2.7372
   7223SM   C6S 9408   7.004   3.617   6.435  0.2827 -0.6387  0.5200
   7223SM   H6S 9409   6.924   3.546   6.404 -1.2738 -1.0014  4.6843
   7223SM   H6T 9410   7.094   3.591   6.375  0.4667 -1.7882  1.2585
   7223SM   C7S 9411   6.960   3.755   6.380  0.9962  0.2435  0.7213
   7223SM   H7S 9412   6.947   3.738   6.271  0.0335 -0.8680  0.9852
   7223SM   H7T 9413   7.040   3.832   6.383  1.9065 -0.5398 -1.3107
   7223SM   C8S 9414   6.814   3.792   6.422  0.5725 -0.4914  0.4337
   7223SM   H8S 9415   6.816   3.832   6.526 -0.6749  0.3693  0.1480
   7223SM   H8T 9416   6.750   3.702   6.425  2.2433 -1.7302  0.2152
   7223SM   C9S 9417   6.760   3.903   6.336  0.6960 -0.2604 -1.4346
   7223SM   H9S 9418   6.773   3.873   6.230 -0.2048  0.7213 -1.8437
   7223SM   H9T 9419   6.822   3.993   6.357 -1.4695  0.7505  1.1845
   7223SM  C10S 9420   6.617   3.942   6.369 -0.4597 -0.1081 -0.2792
   7223SM  H10S 9421   6.598   4.049   6.347  2.2569  0.5744  0.3379
   7223SM  H10T 9422   6.595   3.931   6.477 -0.8491  1.3118 -0.1945
   7223SM  C11S 9423   6.521   3.850   6.300 -0.5544 -0.6476 -0.1334
   7223SM  H11S 9424   6.536   3.754   6.354 -0.2921  0.3902  1.7094
   7223SM  H11T 9425   6.534   3.841   6.190 -0.3211  0.4265 -0.2016
   7223SM  C12S 9426   6.377   3.905   6.326  0.1079  0.2622  0.3066
   7223SM  H12S 9427   6.373   4.013   6.303 -0.4089  0.1263 -0.2350
   7223SM  H12T 9428   6.363   3.901   6.437  0.4019 -0.9965  0.3210
   7223SM  C13S 9429   6.260   3.828   6.256 -0.5364 -0.4009  0.0892
   7223SM  H13S 9430   6.257   3.721   6.283  2.9569 -0.5005  0.5340
   7223SM  H13T 9431   6.286   3.823   6.148 -0.0834 -1.8434  0.2433
   7223SM  C14S 9432   6.133   3.907   6.271 -0.1370 -0.0019  0.2437
   7223SM  H14S 9433   6.139   4.013   6.238  0.7090  0.4056  1.6287
   7223SM  H14T 9434   6.114   3.911   6.380  0.9694  1.5127  0.4074
   7223SM  C15S 9435   6.019   3.839   6.190 -0.3752 -0.2203  0.3281
   7223SM  H15S 9436   6.052   3.734   6.180 -0.6044 -0.1564 -1.4021
   7223SM  H15T 9437   6.030   3.879   6.087  1.3538  1.7907  1.2141
   7223SM  C16S 9438   5.881   3.852   6.245 -0.7305  0.4774  0.0064
   7223SM  H16S 9439   5.844   3.957   6.240  1.9638  1.5136 -0.1331
   7223SM  H16T 9440   5.885   3.807   6.347  1.4526  1.2851  0.3506
   7223SM  C17S 9441   5.778   3.772   6.164 -0.1161  0.3175 -0.7368
   7223SM  H17S 9442   5.768   3.666   6.197 -0.8964  0.8181  0.7536
   7223SM  H17T 9443   5.816   3.782   6.060  1.5103  2.6506  0.0130
   7223SM  C18S 9444   5.642   3.839   6.173  0.5103  0.9323  0.6795
   7223SM  H18S 9445   5.642   3.937   6.120  0.4386  1.4235  1.5757
   7223SM  H18T 9446   5.620   3.855   6.281 -1.5389  0.1669  0.4307
   7223SM  H18U 9447   5.566   3.770   6.130  0.7329  0.4521  1.0409
   7223SM   C1F 9448   7.238   3.294   6.853  0.0682  0.0781  0.2199
   7223SM    OF 9449   7.181   3.206   6.910 -0.5487 -0.4905 -0.2183
   7223SM   C2F 9450   7.379   3.290   6.800  0.1293 -0.1031  0.4210
   7223SM   H2F 9451   7.450   3.255   6.878 -0.2203  0.9997  1.2759
   7223SM   H2G 9452   7.413   3.390   6.767  2.5534 -0.3914  1.8242
   7223SM   C3F 9453   7.384   3.191   6.680 -0.2383 -0.1211  0.4356
   7223SM   H3F 9454   7.331   3.100   6.718  0.4689  0.2607  2.4130
   7223SM   H3G 9455   7.485   3.155   6.651  0.3857  1.9309 -0.0415
   7223SM   C4F 9456   7.302   3.228   6.550  0.1742 -0.2470  0.4317
   7223SM   H4F 9457   7.204   3.267   6.584 -0.6098  0.2298 -2.1339
   7223SM   H4G 9458   7.290   3.137   6.488 -0.6459  0.1134  0.0352
   7223SM   C5F 9459   7.382   3.347   6.476 -0.1889 -0.0895 -0.2666
   7223SM   H5F 9460   7.482   3.304   6.453  0.2720 -0.7003  2.5103
   7223SM   H5G 9461   7.394   3.433   6.545 -1.0259  0.6945 -1.0739
   7223SM   C6F 9462   7.308   3.396   6.354 -0.5002  0.2067 -0.3756
   7223SM   H6F 9463   7.355   3.491   6.321  0.4870 -0.0476  0.2681
   7223SM   H6G 9464   7.206   3.415   6.394 -0.6452 -3.4344  1.4036
   7223SM   C7F 9465   7.312   3.292   6.242  0.6316  0.0501 -0.7274
   7223SM   H7F 9466   7.253   3.210   6.289 -0.2898  1.5504  0.8507
   7223SM   H7G 9467   7.416   3.259   6.224  0.7059  0.7898 -1.7474
   7223SM   C8F 9468   7.247   3.334   6.116 -0.1337 -0.2670 -0.0922
   7223SM   H8F 9469   7.313   3.400   6.055  0.9951 -2.3437 -1.2202
   7223SM   H8G 9470   7.148   3.381   6.136  0.3113 -0.1041  1.9716
   7223SM   C9F 9471   7.205   3.221   6.025  0.4277 -0.0719 -0.1909
   7223SM   H9F 9472   7.137   3.255   5.945 -1.9123 -1.1110  1.2506
   7223SM   H9G 9473   7.142   3.153   6.087 -1.5191  0.2226 -1.7751
   7223SM  C10F 9474   7.324   3.136   5.964  0.4170 -0.2824 -0.2052
   7223SM  H10F 9475   7.387   3.091   6.043 -0.6669 -0.1434  0.7741
   7223SM  H10G 9476   7.391   3.207   5.912  0.0685 -0.4664 -0.9210
   7223SM  C11F 9477   7.276   3.028   5.853 -1.0495 -0.3939 -0.2118
   7223SM  H11F 9478   7.253   3.084   5.760 -1.1400 -1.8293 -1.0942
   7223SM  H11G 9479   7.187   2.991   5.907 -0.3408  0.9488  1.9780
   7223SM  C12F 9480   7.380   2.916   5.827 -0.1201 -0.0233  0.4233
   7223SM  H12F 9481   7.482   2.958   5.838 -0.3051  2.3099 -4.2080
   7223SM  H12G 9482   7.370   2.890   5.720 -0.9658  1.6159  0.0601
   7223SM  C13F 9483   7.365   2.791   5.918 -0.6670  0.3337  0.8626
   7223SM  H13F 9484   7.265   2.746   5.902 -0.0980 -0.2054 -1.6410
   7223SM  H13G 9485   7.369   2.829   6.022  1.2804  0.8490  0.6376
   7223SM  C14F 9486   7.470   2.674   5.903 -0.8838 -0.4833  0.0682
   7223SM  H14F 9487   7.578   2.697   5.889 -0.8167 -1.4279 -1.1423
   7223SM  H14G 9488   7.438   2.611   5.817 -2.8984 -1.6964  1.6088
   7223SM  C15F 9489   7.467   2.576   6.022 -0.4538  0.7447  0.2140
   7223SM  H15F 9490   7.488   2.474   5.982 -0.0142  0.0444  2.1418
   7223SM  H15G 9491   7.365   2.579   6.066  0.1068 -0.4061  1.6910
   7223SM  C16F 9492   7.569   2.600   6.136 -0.1845 -0.4390  0.1645
   7223SM  H16F 9493   7.525   2.550   6.225 -1.2593 -2.5948 -1.4803
   7223SM  H16G 9494   7.571   2.705   6.173 -0.4608 -0.6250  0.7110
   7223SM  C17F 9495   7.712   2.556   6.102  0.1983  0.2213 -0.1348
   7223SM  H17F 9496   7.757   2.627   6.030 -0.2949 -2.4888 -3.3877
   7223SM  H17G 9497   7.717   2.453   6.060  2.2553  0.7772 -1.3798
   7223SM  C18F 9498   7.801   2.570   6.228  0.3676  0.2150 -0.0079
   7223SM  H18F 9499   7.751   2.526   6.317  0.3671 -0.4208 -0.3154
   7223SM  H18G 9500   7.819   2.677   6.250  0.4111  0.1740  0.1578
   7223SM  C19F 9501   7.934   2.494   6.218  0.1242 -0.3456 -0.0987
   7223SM  H19F 9502   7.994   2.509   6.311  0.0910  0.4745 -0.1989
   7223SM  H19G 9503   7.987   2.534   6.128 -0.5596 -0.1266 -0.4100
   7223SM  C20F 9504   7.920   2.350   6.180 -0.0426  0.2817  0.5394
   7223SM  H20F 9505   7.881   2.343   6.076  1.8759 -2.1691 -0.0875
   7223SM  H20G 9506   7.849   2.308   6.254  1.4609 -0.2382  1.7194
   7223SM  C21F 9507   8.046   2.262   6.178  0.1444 -0.2446 -0.5276
   7223SM  H21F 9508   8.109   2.298   6.262  0.5670  1.3609 -1.4891
   7223SM  H21G 9509   8.108   2.278   6.088  1.5895 -2.5778 -0.0281
   7223SM  C22F 9510   8.019   2.111   6.174  1.0759  0.0820  0.7417
   7223SM  H22F 9511   7.970   2.095   6.075  2.9490  1.7471 -0.5305
   7223SM  H22G 9512   7.961   2.080   6.264  0.3775 -1.3051 -0.1402
   7223SM  C23F 9513   8.145   2.029   6.181 -0.2959 -0.3720 -0.2615
   7223SM  H23F 9514   8.199   2.052   6.276 -0.0904  0.6840 -0.6194
   7223SM  H23G 9515   8.225   2.060   6.110  0.7328  0.9625  1.4021
   7223SM  H23H 9516   8.124   1.921   6.171  1.7662 -0.7551 -1.0467
   7323SM     N 9517   5.422   7.518   7.191 -0.2738  0.1935  0.0088
   7323SM   C15 9518   5.471   7.403   7.265 -0.5198  0.2418  0.3497
   7323SM  H15A 9519   5.523   7.434   7.355  0.3722  0.3122 -0.1844
   7323SM  H15B 9520   5.541   7.350   7.202 -0.7947 -0.6644  0.7749
   7323SM  H15C 9521   5.393   7.330   7.283  0.2639 -0.5614  0.6033
   7323SM   C14 9522   5.357   7.488   7.064  0.4635  0.1407 -0.3768
   7323SM  H14A 9523   5.325   7.585   7.028  0.4563  0.3218  0.1077
   7323SM  H14B 9524   5.277   7.418   7.078  0.1812  0.1843 -1.6722
   7323SM  H14C 9525   5.428   7.442   6.997  0.1887  0.8716 -1.1888
   7323SM   C13 9526   5.322   7.586   7.274  0.4383  0.7509  0.3042
   7323SM  H13A 9527   5.320   7.691   7.247 -0.2795  0.7637  0.3958
   7323SM  H13B 9528   5.331   7.578   7.381  2.4283  3.5836  0.4647
   7323SM  H13C 9529   5.220   7.552   7.266  0.2277  0.4612  3.2253
   7323SM   C12 9530   5.540   7.613   7.165  0.2994  1.4877 -0.0285
   7323SM  H12A 9531   5.625   7.561   7.122 -0.6147 -0.4727  0.4314
   7323SM  H12B 9532   5.571   7.636   7.266 -0.1700 -0.2641  0.5590
   7323SM   C11 9533   5.517   7.748   7.096  0.6131 -0.3805 -0.2374
   7323SM  H11A 9534   5.492   7.725   6.990  0.3775 -1.7854  0.0981
   7323SM  H11B 9535   5.613   7.803   7.092  0.9435 -0.9600 -0.5284
   7323SM     P 9536   5.312   7.921   7.084 -0.2064 -0.1002  0.2335
   7323SM   O13 9537   5.180   7.859   7.095 -0.0393 -0.0611  0.0311
   7323SM   O14 9538   5.335   8.061   7.131 -0.2203 -0.1090 -0.0000
   7323SM   O11 9539   5.359   7.901   6.938  0.0056  0.5321 -0.1437
   7323SM   O12 9540   5.417   7.831   7.163  0.1817  0.0917 -0.1983
   7323SM   C1S 9541   5.318   8.000   6.835  0.1379  0.4316  0.6194
   7323SM   H1S 9542   5.327   8.103   6.875 -2.0556  1.4259 -1.2019
   7323SM   H1T 9543   5.212   7.982   6.804  0.2410 -2.5989  1.7006
   7323SM    NF 9544   5.392   8.130   6.631  0.3256  0.2170 -0.4448
   7323SM   HNF 9545   5.321   8.154   6.566 -1.3645 -0.2914  1.1178
   7323SM   C2S 9546   5.394   7.994   6.695 -0.1951  0.1600 -0.1100
   7323SM   H2S 9547   5.503   7.976   6.707 -0.5036 -1.6534  0.2021
   7323SM   C3S 9548   5.336   7.868   6.625  0.2090  0.4046 -0.2136
   7323SM   H3S 9549   5.234   7.903   6.596 -0.1347 -0.8486 -0.5951
   7323SM    O3 9550   5.318   7.757   6.708  0.3350 -0.0596 -0.3535
   7323SM   HO3 9551   5.345   7.796   6.792 -0.3799 -1.3766  0.5117
   7323SM   C4S 9552   5.406   7.830   6.495  0.3615  0.6402  0.3015
   7323SM   H4S 9553   5.388   7.874   6.396  0.3310  0.9983  0.4652
   7323SM   C5S 9554   5.507   7.736   6.490  0.0082 -0.3969 -0.1794
   7323SM   H5S 9555   5.550   7.687   6.579  1.8144 -0.5012 -1.0607
   7323SM   C6S 9556   5.580   7.692   6.360  0.2492  0.3502 -0.1141
   7323SM   H6S 9557   5.518   7.727   6.275 -0.7692 -2.1928 -0.5285
   7323SM   H6T 9558   5.578   7.581   6.357 -0.4174  0.3259  0.6649
   7323SM   C7S 9559   5.729   7.725   6.355 -0.7475 -0.2619 -0.3230
   7323SM   H7S 9560   5.771   7.717   6.458 -0.1494  1.8849 -0.3444
   7323SM   H7T 9561   5.738   7.835   6.338  0.8684 -0.2070  0.6174
   7323SM   C8S 9562   5.806   7.627   6.266 -1.0172  0.3078 -0.1661
   7323SM   H8S 9563   5.784   7.527   6.309 -0.2072 -0.3666 -1.2724
   7323SM   H8T 9564   5.916   7.633   6.277 -0.9525  0.4097 -0.8312
   7323SM   C9S 9565   5.769   7.642   6.117 -0.3975 -0.2130  0.2786
   7323SM   H9S 9566   5.793   7.744   6.080  3.2310 -1.4668 -1.2964
   7323SM   H9T 9567   5.658   7.637   6.116 -0.4584  0.7681  1.0725
   7323SM  C10S 9568   5.827   7.527   6.028  0.2360  0.0501  0.0288
   7323SM  H10S 9569   5.747   7.451   6.037 -0.9750  0.8439 -2.8771
   7323SM  H10T 9570   5.920   7.497   6.081 -0.1181 -1.7249 -0.2883
   7323SM  C11S 9571   5.876   7.580   5.888  0.1998  0.1528  0.3740
   7323SM  H11S 9572   5.952   7.655   5.918  0.3257  0.8730 -1.6031
   7323SM  H11T 9573   5.789   7.629   5.839  0.2476 -2.5003 -2.7534
   7323SM  C12S 9574   5.935   7.462   5.804  0.5550  0.7505 -0.5342
   7323SM  H12S 9575   5.866   7.377   5.786  0.5645  1.1624 -2.8397
   7323SM  H12T 9576   6.018   7.410   5.856 -1.4321 -0.1180  1.9889
   7323SM  C13S 9577   5.968   7.507   5.663  0.2171  0.5399 -0.1807
   7323SM  H13S 9578   6.050   7.581   5.661  0.6606  0.0567 -0.0237
   7323SM  H13T 9579   5.878   7.565   5.633 -0.1557 -0.2631 -0.6400
   7323SM  C14S 9580   5.980   7.400   5.557  1.2749  0.1799 -0.2006
   7323SM  H14S 9581   5.898   7.329   5.580  0.4263  1.9994  2.9386
   7323SM  H14T 9582   6.075   7.343   5.561  1.7510  0.7480 -2.1091
   7323SM  C15S 9583   5.969   7.457   5.411  0.1323  0.3370 -0.1066
   7323SM  H15S 9584   5.866   7.469   5.372 -0.2689  2.6291  1.4389
   7323SM  H15T 9585   6.007   7.377   5.344 -0.5973  0.6443 -0.8990
   7323SM  C16S 9586   6.046   7.588   5.382  0.3131  0.3027  1.1050
   7323SM  H16S 9587   6.153   7.561   5.373 -0.0500 -1.6062  2.0273
   7323SM  H16T 9588   6.026   7.664   5.461 -2.6996 -0.9453  1.7086
   7323SM  C17S 9589   6.006   7.649   5.246  0.1630  0.1915 -0.3527
   7323SM  H17S 9590   5.898   7.675   5.238  0.3796  0.9969 -0.8059
   7323SM  H17T 9591   6.015   7.572   5.167 -1.6144  0.0640 -0.4681
   7323SM  C18S 9592   6.085   7.778   5.211 -0.3656  0.1774 -0.3453
   7323SM  H18S 9593   6.059   7.859   5.283 -0.6504 -1.4553  1.4808
   7323SM  H18T 9594   6.066   7.801   5.104  0.7862  0.7440 -0.4450
   7323SM  H18U 9595   6.195   7.767   5.226 -0.3085  0.3720 -0.6187
   7323SM   C1F 9596   5.470   8.222   6.681  0.2864  0.1017  0.0109
   7323SM    OF 9597   5.535   8.203   6.783  0.1376  0.3201  0.2311
   7323SM   C2F 9598   5.485   8.359   6.613 -0.3879 -0.2948 -0.2902
   7323SM   H2F 9599   5.430   8.426   6.682 -1.0568 -0.6253 -0.4901
   7323SM   H2G 9600   5.431   8.362   6.515 -1.1760 -0.2570  0.1321
   7323SM   C3F 9601   5.631   8.405   6.594 -0.3226  0.5903 -0.0978
   7323SM   H3F 9602   5.682   8.416   6.692 -0.7657 -1.8719  0.4736
   7323SM   H3G 9603   5.625   8.504   6.543  0.2895  1.0374  0.6780
   7323SM   C4F 9604   5.711   8.323   6.500 -0.1776  0.9829  0.5179
   7323SM   H4F 9605   5.712   8.217   6.533  2.1858  0.4351 -1.0911
   7323SM   H4G 9606   5.817   8.357   6.497  0.0062  0.3366 -1.1025
   7323SM   C5F 9607   5.657   8.320   6.355 -0.7747 -0.9551  0.8730
   7323SM   H5F 9608   5.656   8.425   6.320  1.7152 -0.6462  1.5244
   7323SM   H5G 9609   5.551   8.286   6.355 -1.7305  1.8130  0.2985
   7323SM   C6F 9610   5.757   8.229   6.274  0.2009 -0.4935  0.0400
   7323SM   H6F 9611   5.758   8.127   6.318  0.5748 -0.8283 -0.7276
   7323SM   H6G 9612   5.855   8.281   6.284 -1.5593  3.7542 -2.0868
   7323SM   C7F 9613   5.724   8.224   6.120  0.3366  0.2819  1.0677
   7323SM   H7F 9614   5.623   8.177   6.118  0.9919 -1.2816 -2.0956
   7323SM   H7G 9615   5.792   8.156   6.064  0.1434  0.6985  0.3081
   7323SM   C8F 9616   5.732   8.363   6.060  0.4840 -0.1265  0.3726
   7323SM   H8F 9617   5.833   8.399   6.090  0.6605 -0.9671  0.8196
   7323SM   H8G 9618   5.658   8.433   6.104 -1.1743 -0.3444 -1.8892
   7323SM   C9F 9619   5.732   8.363   5.906 -0.0763 -0.5027 -0.2251
   7323SM   H9F 9620   5.796   8.279   5.871  0.1195 -0.9329  1.1203
   7323SM   H9G 9621   5.779   8.460   5.877 -1.7416  0.2160 -0.6789
   7323SM  C10F 9622   5.586   8.356   5.850  0.4471 -0.6952 -0.0933
   7323SM  H10F 9623   5.528   8.445   5.884  0.1919 -0.7079 -0.4913
   7323SM  H10G 9624   5.541   8.259   5.877  1.4220 -0.7650  1.4479
   7323SM  C11F 9625   5.599   8.374   5.695  0.1206 -0.1906 -0.3895
   7323SM  H11F 9626   5.646   8.277   5.665 -1.8494 -0.7129 -1.9741
   7323SM  H11G 9627   5.670   8.454   5.665  0.1093  0.9543  2.3875
   7323SM  C12F 9628   5.460   8.376   5.620 -0.2434 -0.5114  0.1076
   7323SM  H12F 9629   5.419   8.474   5.652  0.6707  0.2746 -1.0225
   7323SM  H12G 9630   5.409   8.282   5.651  2.1667 -2.2429 -0.8136
   7323SM  C13F 9631   5.483   8.368   5.471 -0.5426 -0.3599 -0.4865
   7323SM  H13F 9632   5.556   8.287   5.449 -1.0733 -1.8057  2.5107
   7323SM  H13G 9633   5.524   8.466   5.437 -3.3412  0.5147 -1.5798
   7323SM  C14F 9634   5.357   8.334   5.387 -0.2622 -0.4989  0.3150
   7323SM  H14F 9635   5.324   8.232   5.415 -2.9367 -0.3048 -1.7298
   7323SM  H14G 9636   5.380   8.327   5.279  0.9513  0.3999  0.4898
   7323SM  C15F 9637   5.244   8.429   5.409 -0.3477 -0.2843 -0.5136
   7323SM  H15F 9638   5.266   8.535   5.384  0.4085 -0.7458 -1.9217
   7323SM  H15G 9639   5.214   8.434   5.516  0.6700  2.0573 -0.2782
   7323SM  C16F 9640   5.114   8.384   5.338 -0.0600  0.1759  0.1869
   7323SM  H16F 9641   5.086   8.280   5.365 -2.4101  1.1271  1.7985
   7323SM  H16G 9642   5.126   8.395   5.228 -1.1438  1.1154  0.1444
   7323SM  C17F 9643   5.004   8.480   5.381 -0.1213  0.2427  0.1753
   7323SM  H17F 9644   5.023   8.582   5.343 -0.3889  0.4397  0.5587
   7323SM  H17G 9645   5.005   8.484   5.492 -0.0292 -0.7339  0.2241
   7323SM  C18F 9646   4.859   8.444   5.333  0.2083 -0.0460  0.3552
   7323SM  H18F 9647   4.858   8.446   5.222  0.3390  1.5101  0.3580
   7323SM  H18G 9648   4.797   8.526   5.375 -1.9760 -0.8034 -1.2277
   7323SM  C19F 9649   4.800   8.306   5.381 -0.0233 -0.3304 -0.0606
   7323SM  H19F 9650   4.790   8.307   5.492 -4.6458  2.0678 -0.2277
   7323SM  H19G 9651   4.871   8.227   5.349  0.3531  0.8159 -2.2464
   7323SM  C20F 9652   4.663   8.276   5.321 -0.2063  0.4937 -0.0814
   7323SM  H20F 9653   4.673   8.268   5.211  0.0115 -0.0902 -0.0211
   7323SM  H20G 9654   4.584   8.353   5.338 -2.8005 -2.1869  0.9652
   7323SM  C21F 9655   4.605   8.150   5.397 -0.7586 -0.0756 -0.9534
   7323SM  H21F 9656   4.568   8.171   5.499 -2.1407  0.7654 -1.6023
   7323SM  H21G 9657   4.687   8.074   5.404  0.9840  1.8510  1.2937
   7323SM  C22F 9658   4.487   8.084   5.322 -0.3482  0.0275 -0.0974
   7323SM  H22F 9659   4.504   8.099   5.213  0.9725 -0.1430  0.0667
   7323SM  H22G 9660   4.395   8.142   5.344  0.6892  2.3129 -1.2767
   7323SM  C23F 9661   4.477   7.933   5.349  0.5722 -0.0451  0.3496
   7323SM  H23F 9662   4.384   7.896   5.301  0.9837 -0.6403 -0.0100
   7323SM  H23G 9663   4.472   7.906   5.457  1.9872 -1.2301  0.1538
   7323SM  H23H 9664   4.562   7.879   5.301  1.5860  0.5976  1.3605
   7423SM     N 9665   1.160   4.480   7.295  0.7530 -0.1067 -0.0267
   7423SM   C15 9666   1.006   4.482   7.293 -0.3850 -0.1140 -0.0397
   7423SM  H15A 9667   0.968   4.452   7.390 -0.0070  0.3997  0.2681
   7423SM  H15B 9668   0.973   4.414   7.216  0.1339  1.6661 -1.9094
   7423SM  H15C 9669   0.966   4.578   7.266  0.0896  0.9644  2.7669
   7423SM   C14 9670   1.210   4.562   7.411 -0.3084 -0.1469  0.4366
   7423SM  H14A 9671   1.191   4.514   7.506 -0.0391 -1.2826 -0.0677
   7423SM  H14B 9672   1.180   4.665   7.398 -0.3206 -0.4297 -2.6232
   7423SM  H14C 9673   1.318   4.552   7.411 -0.3008 -0.3966 -1.1886
   7423SM   C13 9674   1.198   4.336   7.322  0.5967  0.0105  0.6710
   7423SM  H13A 9675   1.178   4.275   7.235  2.1823  0.7360 -0.2596
   7423SM  H13B 9676   1.150   4.292   7.408 -2.3173 -1.1273 -1.3819
   7423SM  H13C 9677   1.302   4.336   7.353  0.5192  1.3430  0.9882
   7423SM   C12 9678   1.215   4.536   7.168  0.2736  0.0971  0.1755
   7423SM  H12A 9679   1.179   4.470   7.090  1.6579 -1.4606  0.7888
   7423SM  H12B 9680   1.323   4.538   7.157  0.1826  0.3900 -0.7833
   7423SM   C11 9681   1.172   4.687   7.127 -0.1342 -0.2236 -0.5216
   7423SM  H11A 9682   1.224   4.727   7.037 -0.5506 -1.1543 -1.1997
   7423SM  H11B 9683   1.215   4.743   7.212 -0.3538 -1.6069  0.5387
   7423SM     P 9684   0.933   4.671   7.019  0.2872  0.1435 -0.3558
   7423SM   O13 9685   0.817   4.607   7.083  0.4902 -0.3055  0.5914
   7423SM   O14 9686   0.899   4.791   6.939 -1.0361  0.4158 -0.3329
   7423SM   O11 9687   1.004   4.562   6.938 -0.3133 -0.5034  0.1973
   7423SM   O12 9688   1.033   4.718   7.131 -0.1986  0.3307  0.3928
   7423SM   C1S 9689   0.945   4.510   6.824 -0.3272  0.2853 -0.3667
   7423SM   H1S 9690   0.835   4.496   6.828 -0.4229 -0.1142 -2.9518
   7423SM   H1T 9691   0.985   4.408   6.807 -1.4303 -0.2510  0.1974
   7423SM    NF 9692   0.899   4.514   6.592  0.8788 -0.1537  0.5739
   7423SM   HNF 9693   0.956   4.467   6.525 -0.1613  0.6572 -0.9543
   7423SM   C2S 9694   0.973   4.589   6.692  0.7462 -0.2466  0.1837
   7423SM   H2S 9695   0.919   4.685   6.704 -1.4260 -1.4946  1.2563
   7423SM   C3S 9696   1.127   4.593   6.664  0.0184 -0.0767  0.5565
   7423SM   H3S 9697   1.169   4.490   6.662  1.4395  0.4926  0.6604
   7423SM    O3 9698   1.199   4.645   6.776 -0.3311 -1.1353  0.4281
   7423SM   HO3 9699   1.128   4.660   6.838 -2.0397 -1.3875 -1.3643
   7423SM   C4S 9700   1.155   4.660   6.532  0.8638 -0.0698 -0.9894
   7423SM   H4S 9701   1.156   4.589   6.448 -0.7389  0.6849 -1.6980
   7423SM   C5S 9702   1.174   4.787   6.500 -0.3417 -0.0443  0.5337
   7423SM   H5S 9703   1.161   4.870   6.571  0.7066  0.7963 -0.2158
   7423SM   C6S 9704   1.202   4.833   6.362 -0.1346 -0.2560 -0.5916
   7423SM   H6S 9705   1.308   4.865   6.377  0.1389 -1.9764  1.7256
   7423SM   H6T 9706   1.130   4.917   6.351  0.4582  0.4435  0.5631
   7423SM   C7S 9707   1.190   4.736   6.240  0.1077  0.8451  0.5774
   7423SM   H7S 9708   1.095   4.681   6.254  0.1133  0.7962  0.4333
   7423SM   H7T 9709   1.266   4.656   6.245 -1.3121 -0.5214  0.9397
   7423SM   C8S 9710   1.183   4.804   6.104 -0.2563 -0.0569  0.0630
   7423SM   H8S 9711   1.286   4.835   6.077  0.4131 -1.7689  0.5561
   7423SM   H8T 9712   1.116   4.893   6.104  0.0480  0.1744 -0.2375
   7423SM   C9S 9713   1.141   4.708   5.989 -0.0772 -0.6944  0.7077
   7423SM   H9S 9714   1.169   4.757   5.893 -2.0308  0.2044  0.5318
   7423SM   H9T 9715   1.030   4.698   5.986 -0.2685  0.9427  1.3632
   7423SM  C10S 9716   1.210   4.573   5.976  0.0222 -0.2066 -1.1872
   7423SM  H10S 9717   1.188   4.516   6.069  2.0668  0.1672 -0.4229
   7423SM  H10T 9718   1.320   4.584   5.974  0.1145 -1.2173 -2.3241
   7423SM  C11S 9719   1.148   4.492   5.858  0.2330 -0.5497 -0.3037
   7423SM  H11S 9720   1.039   4.507   5.840  0.0863 -0.3001  0.7121
   7423SM  H11T 9721   1.172   4.385   5.877  2.4390  0.1697  1.5043
   7423SM  C12S 9722   1.217   4.524   5.728  0.5756  0.2313 -0.3978
   7423SM  H12S 9723   1.320   4.488   5.746  0.2120 -0.7226 -0.1279
   7423SM  H12T 9724   1.215   4.631   5.698 -0.0396  0.3401  0.0098
   7423SM  C13S 9725   1.151   4.441   5.620 -0.6305  0.0775  0.1097
   7423SM  H13S 9726   1.048   4.478   5.601 -1.9418 -1.8965  2.6458
   7423SM  H13T 9727   1.142   4.335   5.653  3.8477 -0.3902  0.4543
   7423SM  C14S 9728   1.230   4.429   5.488  0.2493  0.1996  0.0384
   7423SM  H14S 9729   1.328   4.396   5.528 -0.3732  0.1806  1.6622
   7423SM  H14T 9730   1.247   4.533   5.453  0.2848  0.8259  1.8089
   7423SM  C15S 9731   1.184   4.338   5.379 -0.0962  0.0576 -0.4291
   7423SM  H15S 9732   1.074   4.348   5.371  0.0500  0.4009 -2.6949
   7423SM  H15T 9733   1.201   4.230   5.400  0.2352 -0.0773 -1.3703
   7423SM  C16S 9734   1.251   4.382   5.248  0.6564  0.2370 -0.1153
   7423SM  H16S 9735   1.361   4.384   5.256  0.7080  0.4088 -0.7743
   7423SM  H16T 9736   1.230   4.490   5.234  1.8925  0.4223 -0.7159
   7423SM  C17S 9737   1.202   4.307   5.125  0.3292  0.5986 -0.2679
   7423SM  H17S 9738   1.221   4.357   5.027 -2.4890  0.6470 -0.8777
   7423SM  H17T 9739   1.091   4.305   5.130  0.2929  1.7059 -0.3498
   7423SM  C18S 9740   1.258   4.168   5.128 -0.3006  0.1066  0.8715
   7423SM  H18S 9741   1.369   4.166   5.140  0.3156  1.1347 -3.2626
   7423SM  H18T 9742   1.224   4.109   5.041  0.1729 -0.4243  1.0405
   7423SM  H18U 9743   1.216   4.106   5.210 -4.4577 -0.4495 -1.4017
   7423SM   C1F 9744   0.769   4.501   6.580  0.8377 -0.8245  0.0523
   7423SM    OF 9745   0.684   4.561   6.644 -0.2372 -0.3434 -0.0341
   7423SM   C2F 9746   0.727   4.405   6.473  0.1620  0.0733 -0.3553
   7423SM   H2F 9747   0.759   4.300   6.489 -0.3481  0.0476  0.5515
   7423SM   H2G 9748   0.782   4.430   6.380 -3.1245  2.7302 -1.8028
   7423SM   C3F 9749   0.575   4.398   6.443 -0.3840  0.3777 -0.0429
   7423SM   H3F 9750   0.537   4.498   6.416  1.5454  1.0380 -0.4203
   7423SM   H3G 9751   0.523   4.358   6.533  0.9613  2.7117  1.8748
   7423SM   C4F 9752   0.554   4.300   6.323 -0.4677 -0.3448  0.0578
   7423SM   H4F 9753   0.601   4.205   6.357  0.2454  0.0099  0.0946
   7423SM   H4G 9754   0.611   4.346   6.239  0.7361 -0.7439  0.6326
   7423SM   C5F 9755   0.406   4.291   6.288 -0.0118 -0.4427 -0.3345
   7423SM   H5F 9756   0.380   4.391   6.247 -1.3937 -0.9326 -0.6998
   7423SM   H5G 9757   0.340   4.285   6.377 -0.4184  2.0387 -0.4119
   7423SM   C6F 9758   0.370   4.182   6.192 -0.2522  0.3494  0.5152
   7423SM   H6F 9759   0.384   4.085   6.243  1.3713  1.0907  1.5484
   7423SM   H6G 9760   0.442   4.186   6.108 -1.5275  1.2395 -0.5879
   7423SM   C7F 9761   0.227   4.183   6.141  0.2331 -0.3412  0.5264
   7423SM   H7F 9762   0.210   4.101   6.068 -0.4208  0.8990 -0.7630
   7423SM   H7G 9763   0.197   4.269   6.077  1.4233 -0.9212 -0.8746
   7423SM   C8F 9764   0.131   4.174   6.253 -0.2715 -0.3132 -0.3921
   7423SM   H8F 9765   0.147   4.258   6.324 -0.1585 -1.4968  1.0256
   7423SM   H8G 9766   0.152   4.085   6.315 -1.5864  1.0023  2.1016
   7423SM   C9F 9767  -0.019   4.168   6.214 -0.8626  0.1350  0.8997
   7423SM   H9F 9768  -0.085   4.166   6.304 -0.3074  0.7060  1.3238
   7423SM   H9G 9769  -0.040   4.085   6.142  0.9680  1.3874 -1.1950
   7423SM  C10F 9770  -0.062   4.286   6.129 -0.0644 -0.8109  0.2670
   7423SM  H10F 9771   0.002   4.304   6.040 -0.8896 -0.5162 -0.2761
   7423SM  H10G 9772  -0.056   4.387   6.176  0.1049 -0.8724  0.3786
   7423SM  C11F 9773  -0.209   4.276   6.091 -0.0100 -0.2544 -0.3333
   7423SM  H11F 9774  -0.279   4.276   6.178 -0.1233 -3.4588 -0.2971
   7423SM  H11G 9775  -0.223   4.188   6.025 -0.5570 -1.5236  1.3894
   7423SM  C12F 9776  -0.247   4.407   6.012 -0.1347  0.1009  1.2807
   7423SM  H12F 9777  -0.236   4.494   6.079 -1.5617  2.5731 -1.4743
   7423SM  H12G 9778  -0.356   4.395   5.997  0.2197 -0.7486 -1.1464
   7423SM  C13F 9779  -0.184   4.432   5.875 -0.6022 -0.2258  0.0767
   7423SM  H13F 9780  -0.157   4.351   5.803  1.0315  1.4503 -1.3227
   7423SM  H13G 9781  -0.080   4.469   5.890  1.0819 -3.7797 -1.5329
   7423SM  C14F 9782  -0.262   4.544   5.800 -0.7160  0.1340  0.5258
   7423SM  H14F 9783  -0.270   4.637   5.861  1.1375  0.0507  0.9555
   7423SM  H14G 9784  -0.367   4.519   5.776 -0.5692  0.1745 -0.1785
   7423SM  C15F 9785  -0.200   4.579   5.671  0.4119 -0.2739 -0.0991
   7423SM  H15F 9786  -0.089   4.569   5.675  0.3003 -1.1606  1.6532
   7423SM  H15G 9787  -0.221   4.685   5.646  1.3760 -0.1693 -0.5275
   7423SM  C16F 9788  -0.272   4.503   5.563 -0.6923  0.0685  0.8751
   7423SM  H16F 9789  -0.383   4.508   5.566 -0.7173  1.7486 -0.8921
   7423SM  H16G 9790  -0.237   4.397   5.566 -0.1330  0.1840 -0.7806
   7423SM  C17F 9791  -0.230   4.560   5.420 -0.0084 -0.2153  0.7795
   7423SM  H17F 9792  -0.122   4.537   5.406  0.0724  0.2644  0.6171
   7423SM  H17G 9793  -0.232   4.670   5.411 -1.3185 -0.2358  0.6428
   7423SM  C18F 9794  -0.307   4.500   5.300  0.1083  0.5300  0.1242
   7423SM  H18F 9795  -0.416   4.505   5.322  0.5623  0.0276  2.8844
   7423SM  H18G 9796  -0.282   4.392   5.295 -0.1794  0.4839 -0.4099
   7423SM  C19F 9797  -0.276   4.564   5.164 -0.4133 -0.3334 -0.1802
   7423SM  H19F 9798  -0.167   4.551   5.148 -0.7675 -0.7418 -2.8108
   7423SM  H19G 9799  -0.302   4.671   5.180  3.6667  1.1998 -2.3565
   7423SM  C20F 9800  -0.349   4.502   5.045 -0.3857 -0.7957  0.2256
   7423SM  H20F 9801  -0.456   4.497   5.077  0.4912 -0.8426  3.5978
   7423SM  H20G 9802  -0.297   4.404   5.033 -1.0658 -1.0602 -0.6640
   7423SM  C21F 9803  -0.357   4.594   4.914 -0.2226  1.3353 -0.4152
   7423SM  H21F 9804  -0.398   4.695   4.936  0.1776  1.3506  0.2769
   7423SM  H21G 9805  -0.423   4.557   4.833  0.8778  1.5219 -1.4276
   7423SM  C22F 9806  -0.220   4.608   4.846 -0.5953 -0.0880 -0.3279
   7423SM  H22F 9807  -0.145   4.659   4.911 -0.7389  1.2065 -1.1499
   7423SM  H22G 9808  -0.242   4.680   4.765  2.2182  0.2905 -0.8710
   7423SM  C23F 9809  -0.169   4.478   4.789 -0.6641 -0.3338 -0.7730
   7423SM  H23F 9810  -0.083   4.488   4.720 -1.1957  0.9919 -1.2762
   7423SM  H23G 9811  -0.255   4.438   4.730 -0.6886  0.2689 -1.1557
   7423SM  H23H 9812  -0.120   4.415   4.866  3.4273  1.0709 -1.9950
   7523SM     N 9813   0.094   5.288   7.070 -0.0680 -0.2971  0.5019
   7523SM   C15 9814   0.207   5.264   7.168  0.5098  0.2089  0.4685
   7523SM  H15A 9815   0.238   5.356   7.215  0.6394 -0.5662  1.9618
   7523SM  H15B 9816   0.293   5.223   7.117  0.1780  0.5207 -0.3485
   7523SM  H15C 9817   0.174   5.201   7.250 -0.9075  3.0970  2.2864
   7523SM   C14 9818   0.154   5.371   6.957  0.1411  0.1163  0.8401
   7523SM  H14A 9819   0.164   5.473   6.992  0.9337  0.0332  0.8608
   7523SM  H14B 9820   0.091   5.378   6.870 -1.9966  1.1705  2.3713
   7523SM  H14C 9821   0.249   5.334   6.922  0.1327  2.1712 -1.5921
   7523SM   C13 9822   0.032   5.162   7.019 -0.4701 -0.1107  0.2076
   7523SM  H13A 9823  -0.005   5.098   7.097  1.8301 -0.0171  1.4715
   7523SM  H13B 9824   0.112   5.107   6.971 -0.9285  0.3812 -1.1819
   7523SM  H13C 9825  -0.058   5.177   6.960 -2.9127 -1.0839  3.4325
   7523SM   C12 9826  -0.014   5.377   7.128  0.4691 -0.4768 -0.6168
   7523SM  H12A 9827   0.027   5.465   7.174 -0.5452 -0.4745  0.3177
   7523SM  H12B 9828  -0.059   5.324   7.211  1.0042 -2.0130 -1.2616
   7523SM   C11 9829  -0.133   5.418   7.036  0.2144  0.2961 -0.2812
   7523SM  H11A 9830  -0.085   5.467   6.948  0.3889 -0.4899 -0.6301
   7523SM  H11B 9831  -0.195   5.501   7.077 -1.4984 -0.0280 -2.0861
   7523SM     P 9832  -0.331   5.253   7.075 -0.5612  0.2736 -0.2061
   7523SM   O13 9833  -0.389   5.144   7.002  0.1694 -0.0910  0.9584
   7523SM   O14 9834  -0.272   5.218   7.207 -0.3848  0.1137 -0.5476
   7523SM   O11 9835  -0.433   5.375   7.092 -0.1102  0.4561  0.1549
   7523SM   O12 9836  -0.214   5.311   6.980 -0.3207 -0.0172  0.1870
   7523SM   C1S 9837  -0.475   5.457   6.986  0.4291 -0.5919  0.3216
   7523SM   H1S 9838  -0.399   5.474   6.907  2.0897  0.4612  2.0748
   7523SM   H1T 9839  -0.489   5.554   7.037  0.6028 -1.8327  2.8754
   7523SM    NF 9840  -0.622   5.483   6.783  0.6845 -0.0789  0.2834
   7523SM   HNF 9841  -0.689   5.556   6.782  1.5651  0.7299 -0.5046
   7523SM   C2S 9842  -0.610   5.418   6.913 -0.4398  0.5718 -0.3111
   7523SM   H2S 9843  -0.607   5.308   6.895 -0.1687  0.7210 -1.2223
   7523SM   C3S 9844  -0.725   5.437   7.010  0.1479 -0.3515  0.3977
   7523SM   H3S 9845  -0.712   5.543   7.041  0.8351 -1.2107  3.3939
   7523SM    O3 9846  -0.713   5.371   7.135 -0.0659  0.0968  0.1547
   7523SM   HO3 9847  -0.619   5.353   7.135 -0.0453  0.1998  0.0044
   7523SM   C4S 9848  -0.863   5.442   6.944  0.3043  0.3983 -0.6468
   7523SM   H4S 9849  -0.916   5.536   6.923 -0.2908 -0.3127 -2.5561
   7523SM   C5S 9850  -0.910   5.335   6.885  0.3442  0.5820  0.2819
   7523SM   H5S 9851  -0.844   5.248   6.896 -1.7138 -0.9434  1.3738
   7523SM   C6S 9852  -1.033   5.327   6.792 -0.9416  0.0869 -0.1890
   7523SM   H6S 9853  -1.059   5.423   6.742 -2.4060 -0.3679 -0.3579
   7523SM   H6T 9854  -1.127   5.304   6.846 -1.5188 -0.2070 -1.2746
   7523SM   C7S 9855  -1.031   5.226   6.674  0.2491 -0.1792 -0.2629
   7523SM   H7S 9856  -1.124   5.248   6.617  1.1771  1.3279 -1.2835
   7523SM   H7T 9857  -1.043   5.121   6.707  1.9955 -1.2281 -2.6843
   7523SM   C8S 9858  -0.920   5.248   6.583  0.0946 -0.3513  0.6250
   7523SM   H8S 9859  -0.822   5.271   6.630  0.2777 -0.8086  0.4714
   7523SM   H8T 9860  -0.944   5.328   6.511 -0.7498 -0.4582  0.7757
   7523SM   C9S 9861  -0.903   5.136   6.489  1.0447  0.0219 -0.6741
   7523SM   H9S 9862  -0.838   5.056   6.531  1.6417  0.6294 -0.4349
   7523SM   H9T 9863  -0.853   5.182   6.401  0.3161  0.3084 -0.9429
   7523SM  C10S 9864  -1.032   5.067   6.439  0.1699  0.2628  0.1260
   7523SM  H10S 9865  -1.112   5.141   6.417 -0.3526 -0.1778  0.5365
   7523SM  H10T 9866  -1.079   5.014   6.524 -1.0993  3.1427  1.3321
   7523SM  C11S 9867  -1.015   4.967   6.320  1.1416 -0.1354  0.1763
   7523SM  H11S 9868  -1.112   4.916   6.304  1.4482 -1.3368  1.8624
   7523SM  H11T 9869  -0.930   4.900   6.348  1.2700  1.1271  3.1626
   7523SM  C12S 9870  -0.976   5.039   6.186  0.7849 -0.0285 -0.9606
   7523SM  H12S 9871  -1.000   4.963   6.108  2.0095 -1.8872  0.3756
   7523SM  H12T 9872  -0.867   5.056   6.176  0.7663  1.4691  0.8094
   7523SM  C13S 9873  -1.052   5.170   6.144 -0.2677  0.0062  0.2207
   7523SM  H13S 9874  -1.035   5.245   6.224  1.8195 -0.3834  0.2082
   7523SM  H13T 9875  -1.157   5.135   6.140  0.3204 -1.9757  0.6846
   7523SM  C14S 9876  -1.025   5.227   6.011 -0.2190 -0.1407 -0.3209
   7523SM  H14S 9877  -1.085   5.320   6.003  0.1927  0.3685  1.8209
   7523SM  H14T 9878  -1.045   5.160   5.924 -0.0143  0.1828 -0.6197
   7523SM  C15S 9879  -0.871   5.251   5.992 -0.6691 -0.5289  0.3615
   7523SM  H15S 9880  -0.816   5.157   5.973  1.2567  0.3546  1.2313
   7523SM  H15T 9881  -0.834   5.306   6.081  3.0363 -0.3967 -1.1040
   7523SM  C16S 9882  -0.845   5.333   5.867  0.3181  0.2381 -0.1217
   7523SM  H16S 9883  -0.741   5.368   5.848 -0.0476  1.4661 -0.0060
   7523SM  H16T 9884  -0.912   5.422   5.870 -2.4314 -1.7253  1.1518
   7523SM  C17S 9885  -0.875   5.263   5.727 -1.0020  0.3090  0.1436
   7523SM  H17S 9886  -0.985   5.251   5.722 -1.1855  2.1673 -1.1484
   7523SM  H17T 9887  -0.823   5.165   5.718 -0.1769  0.9315 -4.7415
   7523SM  C18S 9888  -0.837   5.338   5.602  0.3193 -0.0207 -0.5119
   7523SM  H18S 9889  -0.911   5.413   5.568 -0.8614 -1.2490 -0.7262
   7523SM  H18T 9890  -0.822   5.270   5.515  0.2195  0.3690 -0.8387
   7523SM  H18U 9891  -0.744   5.398   5.616 -0.5974  1.1894  0.6220
   7523SM   C1F 9892  -0.541   5.461   6.684 -0.3213  0.1233  0.4440
   7523SM    OF 9893  -0.467   5.365   6.686  0.8786 -0.1901 -0.3931
   7523SM   C2F 9894  -0.539   5.558   6.579  0.2053 -0.4448 -0.7496
   7523SM   H2F 9895  -0.486   5.645   6.623  0.3043  0.7206 -3.0110
   7523SM   H2G 9896  -0.646   5.581   6.562  0.1799  0.0206  0.0041
   7523SM   C3F 9897  -0.484   5.501   6.455 -0.7497  0.0943  0.5165
   7523SM   H3F 9898  -0.529   5.403   6.427 -1.9901  0.5873  0.6857
   7523SM   H3G 9899  -0.374   5.492   6.454 -0.7622 -1.0369 -2.8463
   7523SM   C4F 9900  -0.514   5.588   6.335  0.1067 -0.9202  0.1376
   7523SM   H4F 9901  -0.465   5.688   6.338  0.7495 -1.2492  1.4331
   7523SM   H4G 9902  -0.621   5.618   6.343  0.1400 -0.7338 -0.0920
   7523SM   C5F 9903  -0.491   5.514   6.201 -0.1523  0.1650 -0.6515
   7523SM   H5F 9904  -0.565   5.431   6.197  0.2777 -0.2267 -0.6701
   7523SM   H5G 9905  -0.392   5.463   6.192 -1.1065 -2.4233  1.7810
   7523SM   C6F 9906  -0.504   5.614   6.078 -0.3967  0.6881 -0.3703
   7523SM   H6F 9907  -0.573   5.698   6.100 -2.0919 -0.9542  0.9713
   7523SM   H6G 9908  -0.542   5.561   5.988 -0.5546 -0.0747  0.1357
   7523SM   C7F 9909  -0.367   5.667   6.039 -0.4360 -0.8865  0.5467
   7523SM   H7F 9910  -0.302   5.581   6.015 -0.7559 -0.6198 -1.4610
   7523SM   H7G 9911  -0.315   5.723   6.120  1.7287  0.0014 -1.3692
   7523SM   C8F 9912  -0.353   5.756   5.915 -0.5411 -0.1387 -0.0011
   7523SM   H8F 9913  -0.417   5.846   5.904 -0.9930 -0.6196 -1.6667
   7523SM   H8G 9914  -0.383   5.699   5.824 -0.2369 -0.2037 -0.0614
   7523SM   C9F 9915  -0.205   5.801   5.897 -0.1917 -0.2367  0.4977
   7523SM   H9F 9916  -0.194   5.878   5.976 -0.1144  0.3475 -0.0736
   7523SM   H9G 9917  -0.189   5.854   5.801  1.7076 -1.6599 -0.0498
   7523SM  C10F 9918  -0.098   5.690   5.916 -0.1551 -0.6452 -0.0175
   7523SM  H10F 9919  -0.104   5.624   6.006  2.4069 -1.5125 -0.4107
   7523SM  H10G 9920   0.002   5.737   5.926  0.1594 -1.6155  2.2379
   7523SM  C11F 9921  -0.099   5.607   5.796  1.0623 -0.5615 -0.0639
   7523SM  H11F 9922  -0.139   5.655   5.704  1.1074 -2.8847 -1.3841
   7523SM  H11G 9923  -0.159   5.514   5.808  0.2295 -0.1279 -0.8048
   7523SM  C12F 9924   0.045   5.560   5.769 -0.2012  0.0132  0.6665
   7523SM  H12F 9925   0.079   5.496   5.853  0.2116  0.2448  0.6741
   7523SM  H12G 9926   0.106   5.649   5.743 -0.4739 -0.1712 -0.6684
   7523SM  C13F 9927   0.062   5.467   5.651 -0.3378 -0.5076  0.3524
   7523SM  H13F 9928   0.014   5.521   5.567  0.4043  0.5344  0.5799
   7523SM  H13G 9929  -0.009   5.382   5.656  0.0620 -0.7751  1.8762
   7523SM  C14F 9930   0.203   5.416   5.629  0.4795  0.9152 -0.5368
   7523SM  H14F 9931   0.247   5.381   5.725 -1.7842 -1.7462 -0.3354
   7523SM  H14G 9932   0.274   5.494   5.596  1.6846  0.4224  0.7831
   7523SM  C15F 9933   0.210   5.310   5.523 -0.3937  0.3764 -0.2059
   7523SM  H15F 9934   0.156   5.359   5.439 -1.7069  0.2609  0.5341
   7523SM  H15G 9935   0.160   5.214   5.548  0.1359  0.0602 -0.3569
   7523SM  C16F 9936   0.349   5.264   5.491 -0.3956 -0.1991 -0.5888
   7523SM  H16F 9937   0.407   5.243   5.583 -1.8138 -0.3285  0.3053
   7523SM  H16G 9938   0.393   5.348   5.432  0.5095  0.7963  1.3993
   7523SM  C17F 9939   0.353   5.135   5.401 -0.4422 -0.7748  0.5805
   7523SM  H17F 9940   0.282   5.148   5.317 -1.5116  1.1792  1.7081
   7523SM  H17G 9941   0.314   5.054   5.466  0.2726 -0.6351  1.2012
   7523SM  C18F 9942   0.489   5.093   5.334  0.5158  0.4705  0.0315
   7523SM  H18F 9943   0.564   5.102   5.416 -0.2723 -0.3135  0.8520
   7523SM  H18G 9944   0.516   5.163   5.251 -1.1301  1.5579  0.3645
   7523SM  C19F 9945   0.485   4.960   5.258  0.4133 -0.2273 -0.9987
   7523SM  H19F 9946   0.411   4.977   5.176 -0.4295 -0.4704 -0.2973
   7523SM  H19G 9947   0.444   4.876   5.318  0.2639  0.5386 -0.0095
   7523SM  C20F 9948   0.625   4.920   5.197 -0.1858 -0.2031  0.4852
   7523SM  H20F 9949   0.688   4.887   5.281  1.0497  0.4510 -0.1631
   7523SM  H20G 9950   0.667   5.015   5.156 -1.3448 -0.6514 -1.9563
   7523SM  C21F 9951   0.619   4.804   5.090  0.1819 -0.0270  0.3989
   7523SM  H21F 9952   0.600   4.704   5.135  0.8955 -0.7228 -0.7772
   7523SM  H21G 9953   0.727   4.801   5.063 -0.1638  0.8794 -1.2344
   7523SM  C22F 9954   0.549   4.823   4.962  0.5007 -0.1732  0.4335
   7523SM  H22F 9955   0.600   4.911   4.918 -1.5176  1.5409  1.3476
   7523SM  H22G 9956   0.439   4.839   4.961  0.6040  0.6049 -1.2794
   7523SM  C23F 9957   0.572   4.710   4.861 -0.6074  0.8161 -0.7127
   7523SM  H23F 9958   0.507   4.723   4.771 -0.8138  0.5019 -0.6117
   7523SM  H23G 9959   0.554   4.617   4.918 -1.7815  0.2856 -1.8844
   7523SM  H23H 9960   0.678   4.718   4.829  0.2632 -1.6959  1.2520
   7623SM     N 9961   0.599   6.883   6.811  0.2776  0.2603  0.1621
   7623SM   C15 9962   0.484   6.930   6.893  0.1974 -0.3792 -0.3452
   7623SM  H15A 9963   0.483   6.889   6.992  2.0611  0.4013  0.0321
   7623SM  H15B 9964   0.389   6.910   6.845 -0.9115 -0.3178  1.7058
   7623SM  H15C 9965   0.485   7.037   6.908 -1.4788 -0.4188  0.3046
   7623SM   C14 9966   0.716   6.953   6.878 -0.3665  0.0466  0.0967
   7623SM  H14A 9967   0.721   6.942   6.986 -1.0612 -1.7492 -0.0115
   7623SM  H14B 9968   0.705   7.056   6.849 -1.1852 -0.5013 -1.6432
   7623SM  H14C 9969   0.811   6.921   6.839 -0.6065  1.4730 -1.7540
   7623SM   C13 9970   0.606   6.738   6.833  0.2331 -1.0382  0.1167
   7623SM  H13A 9971   0.703   6.693   6.820  0.0064 -1.9976  1.5105
   7623SM  H13B 9972   0.541   6.691   6.761 -0.6557 -1.5030  1.1873
   7623SM  H13C 9973   0.569   6.706   6.930 -1.3470  0.3009  0.0031
   7623SM   C12 9974   0.596   6.919   6.670  0.5033 -0.4491 -0.3229
   7623SM  H12A 9975   0.690   6.884   6.627 -1.5789 -2.5776 -3.6782
   7623SM  H12B 9976   0.593   7.026   6.662 -0.2038 -0.4229  0.2592
   7623SM   C11 9977   0.483   6.868   6.580 -0.2500  0.8595 -0.1476
   7623SM  H11A 9978   0.461   6.760   6.592  1.5921  0.0920 -2.6966
   7623SM  H11B 9979   0.523   6.886   6.478 -1.6356 -1.0353 -1.0834
   7623SM     P 9980   0.338   7.087   6.590 -0.2570  0.3303 -0.2537
   7623SM   O13 9981   0.241   7.137   6.691  0.6355 -0.0800  0.6668
   7623SM   O14 9982   0.470   7.156   6.591 -0.6381  0.5435  0.4884
   7623SM   O11 9983   0.282   7.107   6.438  0.3709  0.1661  0.6990
   7623SM   O12 9984   0.355   6.932   6.601 -0.0890  0.1344 -0.2580
   7623SM   C1S 9985   0.184   7.013   6.390 -0.7193 -0.5585  0.2795
   7623SM   H1S 9986   0.090   7.024   6.448 -0.4934  1.2030  0.3683
   7623SM   H1T 9987   0.213   6.907   6.408 -0.0748 -0.1134  2.0314
   7623SM    NF 9988   0.075   6.893   6.197  0.8702 -0.5436  0.0140
   7623SM   HNF 9989   0.116   6.817   6.148  0.0095  0.2694 -2.1184
   7623SM   C2S 9990   0.159   7.010   6.233 -0.3928 -1.0532 -0.4287
   7623SM   H2S 9991   0.109   7.105   6.205 -1.0486 -1.5951 -1.1611
   7623SM   C3S 9992   0.291   7.003   6.149  0.0317  0.0579  0.0638
   7623SM   H3S 9993   0.331   6.899   6.145 -0.8017 -0.2296 -2.3325
   7623SM    O3 9994   0.392   7.089   6.198  0.4707  0.3695  0.7178
   7623SM   HO3 9995   0.361   7.102   6.288  1.6497  1.3229  1.0138
   7623SM   C4S 9996   0.265   7.039   6.011  0.2296 -0.4961  0.2398
   7623SM   H4S 9997   0.242   7.146   6.003  0.6562 -0.3737  0.6620
   7623SM   C5S 9998   0.288   6.968   5.896 -0.5264 -0.8885 -0.1681
   7623SM   H5S 9999   0.335   6.869   5.907  2.7091  0.3074 -2.0879
   7623SM   C6S10000   0.277   7.008   5.757 -0.0512 -0.7382  0.0141
   7623SM   H6S10001   0.180   6.972   5.715  0.5057  0.1546 -2.1829
   7623SM   H6T10002   0.355   6.957   5.695 -1.1053 -0.5896 -1.4855
   7623SM   C7S10003   0.307   7.160   5.732 -0.0411  0.0834 -0.2473
   7623SM   H7S10004   0.404   7.191   5.776  0.0112 -2.7714  1.8892
   7623SM   H7T10005   0.240   7.219   5.798 -0.0730 -1.4484  1.1243
   7623SM   C8S10006   0.311   7.193   5.583  0.2583 -0.1776  0.0670
   7623SM   H8S10007   0.208   7.203   5.542  0.5323 -1.0853 -0.8963
   7623SM   H8T10008   0.359   7.109   5.529  0.0597  0.2373 -0.7765
   7623SM   C9S10009   0.390   7.327   5.558 -0.0070  0.1897 -0.0219
   7623SM   H9S10010   0.498   7.309   5.576  0.5703 -0.0862 -3.1004
   7623SM   H9T10011   0.357   7.403   5.631  1.4107 -1.0567  2.0179
   7623SM  C10S10012   0.377   7.377   5.409  0.5396  0.6150 -0.3854
   7623SM  H10S10013   0.425   7.306   5.339 -1.3589  0.1649 -1.2910
   7623SM  H10T10014   0.434   7.472   5.401  0.8873  0.4021 -0.4604
   7623SM  C11S10015   0.233   7.388   5.364  0.4038 -0.3295 -0.5778
   7623SM  H11S10016   0.171   7.429   5.446  1.7603 -1.3232  1.0037
   7623SM  H11T10017   0.203   7.284   5.337  0.8682 -0.6609  0.1649
   7623SM  C12S10018   0.215   7.475   5.232 -0.2865 -0.3291 -0.6351
   7623SM  H12S10019   0.240   7.581   5.252  0.0655 -0.1937 -1.7260
   7623SM  H12T10020   0.106   7.488   5.215 -0.0798  0.8734 -1.1193
   7623SM  C13S10021   0.298   7.412   5.115 -0.0368  0.3362  0.6648
   7623SM  H13S10022   0.290   7.301   5.117  0.8235  0.2553  0.1386
   7623SM  H13T10023   0.401   7.451   5.126 -0.2225  1.5556 -1.4104
   7623SM  C14S10024   0.250   7.465   4.977  0.4490  0.0340 -0.6013
   7623SM  H14S10025   0.236   7.575   4.978 -0.2081  0.0292 -3.0268
   7623SM  H14T10026   0.147   7.424   4.968 -0.0025  0.9146  0.3597
   7623SM  C15S10027   0.339   7.417   4.857  0.4513 -0.4532  0.0307
   7623SM  H15S10028   0.290   7.324   4.818  1.1751 -0.8414  0.0322
   7623SM  H15T10029   0.444   7.403   4.890  1.0381 -0.4806 -1.7565
   7623SM  C16S10030   0.334   7.522   4.739 -0.7298  0.0444 -0.0520
   7623SM  H16S10031   0.357   7.617   4.792 -1.8450  1.1705 -1.4880
   7623SM  H16T10032   0.240   7.537   4.681 -0.3304  2.1026 -0.2700
   7623SM  C17S10033   0.458   7.513   4.645 -0.5227  0.9180  0.2507
   7623SM  H17S10034   0.534   7.469   4.712 -0.7966  1.7328  1.1194
   7623SM  H17T10035   0.496   7.615   4.626  0.2603  0.4216 -0.9679
   7623SM  C18S10036   0.437   7.433   4.513  0.2332 -0.0904 -0.0983
   7623SM  H18S10037   0.363   7.481   4.444  1.0796 -0.4702 -1.3089
   7623SM  H18T10038   0.404   7.338   4.560  0.9630  0.3330  1.3196
   7623SM  H18U10039   0.536   7.413   4.466  0.9632  2.4314  0.1930
   7623SM   C1F10040  -0.057   6.888   6.220 -0.2883  0.3961  0.6094
   7623SM    OF10041  -0.107   6.969   6.299 -0.1153  0.0722 -0.1383
   7623SM   C2F10042  -0.137   6.773   6.151  0.9576 -0.2823 -0.2887
   7623SM   H2F10043  -0.220   6.815   6.090 -0.4108 -1.0696  0.9662
   7623SM   H2G10044  -0.173   6.700   6.227 -1.0827 -1.6961 -2.4524
   7623SM   C3F10045  -0.053   6.695   6.049 -0.7993  0.2061 -0.3015
   7623SM   H3F10046   0.033   6.646   6.100 -0.9728  2.7880  2.7723
   7623SM   H3G10047  -0.008   6.762   5.973 -0.2097 -0.2062 -0.3228
   7623SM   C4F10048  -0.135   6.601   5.959  0.5152  0.2736 -0.2045
   7623SM   H4F10049  -0.215   6.652   5.901  0.9130 -1.1984 -2.1733
   7623SM   H4G10050  -0.189   6.526   6.021 -1.1825 -0.4895 -2.4758
   7623SM   C5F10051  -0.043   6.514   5.867 -0.6079 -0.3244 -0.9601
   7623SM   H5F10052  -0.095   6.421   5.834 -1.3034 -0.1167 -0.4703
   7623SM   H5G10053   0.050   6.483   5.919  0.9875 -0.1297 -3.5011
   7623SM   C6F10054   0.010   6.587   5.742  0.0413 -0.2572 -0.0860
   7623SM   H6F10055   0.096   6.537   5.692 -0.6367 -1.6749  0.1051
   7623SM   H6G10056   0.035   6.688   5.781 -0.6069 -0.7142  1.5709
   7623SM   C7F10057  -0.097   6.601   5.623 -0.3659 -0.2073 -0.1916
   7623SM   H7F10058  -0.191   6.625   5.676  0.1397 -1.7549  1.5473
   7623SM   H7G10059  -0.111   6.498   5.584 -0.2386 -0.4060  0.2731
   7623SM   C8F10060  -0.069   6.699   5.508  0.6852  0.1214  0.2151
   7623SM   H8F10061  -0.032   6.794   5.552  1.6492 -0.3205  0.3915
   7623SM   H8G10062  -0.156   6.716   5.442  2.1743  1.9099 -1.3848
   7623SM   C9F10063   0.050   6.644   5.420  0.3133 -0.3981 -0.6935
   7623SM   H9F10064   0.018   6.547   5.377 -2.1908  0.7296 -1.6094
   7623SM   H9G10065   0.138   6.624   5.485 -0.0180  1.4199  0.3929
   7623SM  C10F10066   0.089   6.738   5.306  0.0455  0.3544  0.1881
   7623SM  H10F10067  -0.006   6.760   5.252  0.7767 -1.6724 -2.0932
   7623SM  H10G10068   0.146   6.666   5.244 -2.1605 -0.8460 -0.5855
   7623SM  C11F10069   0.173   6.858   5.343 -0.6108 -0.0463  0.3533
   7623SM  H11F10070   0.246   6.839   5.424 -1.3312  2.1928  1.5971
   7623SM  H11G10071   0.113   6.943   5.380 -1.5326 -0.2450 -0.6464
   7623SM  C12F10072   0.242   6.927   5.222 -0.1646 -0.2388  0.3978
   7623SM  H12F10073   0.336   6.871   5.200 -0.2477 -1.0556  1.9837
   7623SM  H12G10074   0.280   7.027   5.251  0.7190 -0.6735  0.7940
   7623SM  C13F10075   0.144   6.952   5.106  0.3145  0.0784 -0.3809
   7623SM  H13F10076   0.081   7.037   5.139  1.1660 -0.1028  1.9658
   7623SM  H13G10077   0.084   6.862   5.084 -1.2054  0.5951  1.3717
   7623SM  C14F10078   0.214   6.997   4.974 -0.5005  0.5312  0.9447
   7623SM  H14F10079   0.289   6.917   4.959 -0.3931  0.5729  1.2631
   7623SM  H14G10080   0.248   7.100   4.998 -0.5456  0.6608  0.4701
   7623SM  C15F10081   0.113   6.990   4.853 -0.3767  0.6877 -0.4818
   7623SM  H15F10082   0.024   7.055   4.865  0.5817  1.5283  3.3244
   7623SM  H15G10083   0.072   6.887   4.844  0.0632  0.3924  0.6386
   7623SM  C16F10084   0.184   7.027   4.722 -0.2716  0.2956  0.5129
   7623SM  H16F10085   0.285   6.982   4.718  0.0885  1.1181 -3.6027
   7623SM  H16G10086   0.203   7.136   4.710 -0.9879  0.3127 -0.6930
   7623SM  C17F10087   0.105   6.999   4.593  0.2040  0.3228 -0.3383
   7623SM  H17F10088   0.010   7.054   4.599 -0.2674 -0.2186 -2.1869
   7623SM  H17G10089   0.088   6.889   4.584  0.8267  0.1020  0.9395
   7623SM  C18F10090   0.187   7.031   4.462  0.6169  0.9683  0.5667
   7623SM  H18F10091   0.294   7.003   4.474  0.2383 -0.2794  1.3108
   7623SM  H18G10092   0.192   7.138   4.435  0.6611  0.3347 -2.3033
   7623SM  C19F10093   0.133   6.955   4.344  0.1062 -0.1402 -0.8409
   7623SM  H19F10094   0.022   6.963   4.339 -0.1551 -0.8768  1.9879
   7623SM  H19G10095   0.163   6.850   4.359 -0.2256 -0.4649 -2.2701
   7623SM  C20F10096   0.197   6.995   4.208  0.0318  0.1025  0.1330
   7623SM  H20F10097   0.300   6.955   4.199 -0.6714 -1.5688 -0.9039
   7623SM  H20G10098   0.195   7.106   4.206 -0.6684  0.0993 -1.9623
   7623SM  C21F10099   0.116   6.950   4.091  0.9116 -0.0707 -0.2221
   7623SM  H21F10100   0.009   6.978   4.105  0.7103 -0.3458 -1.1476
   7623SM  H21G10101   0.108   6.839   4.087  1.3501 -0.1447  0.7982
   7623SM  C22F10102   0.161   6.991   3.948 -0.4579 -0.1628  0.6828
   7623SM  H22F10103   0.181   7.100   3.939  1.7730 -0.6480 -1.5205
   7623SM  H22G10104   0.076   6.965   3.881  0.8700 -0.7600 -0.8330
   7623SM  C23F10105   0.287   6.914   3.907  0.4915 -0.8884 -0.1284
   7623SM  H23F10106   0.372   6.969   3.951 -0.2938 -0.7256  1.2269
   7623SM  H23G10107   0.287   6.917   3.796 -1.5829  1.0480 -0.1396
   7623SM  H23H10108   0.270   6.811   3.945 -1.9013  0.0056  1.4745
   7723SM     N10109   0.701   1.186   7.232 -0.1836  0.7379  0.0463
   7723SM   C1510110   0.604   1.271   7.300 -0.7214 -0.0039  0.1408
   7723SM  H15A10111   0.607   1.258   7.407  0.2490  0.2963  0.1610
   7723SM  H15B10112   0.505   1.253   7.261 -0.4432 -0.2864 -0.4474
   7723SM  H15C10113   0.621   1.374   7.274  1.1915 -0.2434  0.3013
   7723SM   C1410114   0.689   1.195   7.080 -0.1568 -0.2827 -0.4520
   7723SM  H14A10115   0.593   1.157   7.048  0.9338 -2.4053 -1.4385
   7723SM  H14B10116   0.765   1.132   7.035  1.8280 -0.4689  2.8583
   7723SM  H14C10117   0.691   1.299   7.050  0.8622 -0.0325  0.4350
   7723SM   C1310118   0.835   1.238   7.268 -0.0861 -0.0657  0.0952
   7723SM  H13A10119   0.916   1.216   7.200 -0.0377  3.1245 -1.0752
   7723SM  H13B10120   0.867   1.201   7.364  1.6321  1.5837  0.2279
   7723SM  H13C10121   0.845   1.342   7.295  1.0740 -0.2545  0.4518
   7723SM   C1210122   0.686   1.038   7.270  0.2421 -0.8466 -1.1097
   7723SM  H12A10123   0.686   1.027   7.378  0.9648 -2.5092 -1.2435
   7723SM  H12B10124   0.770   0.982   7.230  0.2955 -0.7463 -1.1380
   7723SM   C1110125   0.547   0.969   7.235 -0.1879  0.5054  0.5721
   7723SM  H11A10126   0.468   1.037   7.274 -0.7153 -0.4669  1.2417
   7723SM  H11B10127   0.531   0.873   7.288  0.2278 -0.1479 -0.4595
   7723SM     P10128   0.604   0.819   7.028  0.4610 -0.1300  0.6206
   7723SM   O1310129   0.743   0.803   7.082  0.2223  0.0753 -0.0326
   7723SM   O1410130   0.521   0.695   7.057  0.1966 -0.4370 -0.0672
   7723SM   O1110131   0.598   0.843   6.876 -0.0688 -0.7602 -0.3112
   7723SM   O1210132   0.533   0.948   7.090  0.2527  0.6250 -0.4866
   7723SM   C1S10133   0.640   0.971   6.810 -0.4091  0.4915  0.1625
   7723SM   H1S10134   0.722   1.013   6.871  1.2132 -1.2893 -0.6813
   7723SM   H1T10135   0.559   1.047   6.812  0.4748  1.4289  0.8430
   7723SM    NF10136   0.741   1.088   6.620 -0.1376 -0.0597  0.4156
   7723SM   HNF10137   0.685   1.161   6.582 -0.6250  0.2247  1.6377
   7723SM   C2S10138   0.667   0.969   6.660  0.1510 -0.3048  0.7872
   7723SM   H2S10139   0.734   0.883   6.640  1.2163  0.9202 -1.2230
   7723SM   C3S10140   0.538   0.938   6.575  0.0833  0.1162  0.0871
   7723SM   H3S10141   0.477   1.030   6.586  2.3233  1.8971 -1.3492
   7723SM    O310142   0.453   0.836   6.629  0.2470 -0.2589 -0.2677
   7723SM   HO310143   0.514   0.802   6.695  0.7590  2.5282  0.8371
   7723SM   C4S10144   0.565   0.922   6.427  0.2932 -0.4074  0.5493
   7723SM   H4S10145   0.546   1.016   6.374 -3.1195 -1.1874  0.1379
   7723SM   C5S10146   0.597   0.807   6.366 -0.0971 -0.2808 -0.4900
   7723SM   H5S10147   0.587   0.713   6.422 -0.7817  0.3916  0.5477
   7723SM   C6S10148   0.607   0.801   6.215 -1.0494  0.4278  0.2763
   7723SM   H6S10149   0.563   0.891   6.166 -1.6358  0.2728  0.5165
   7723SM   H6T10150   0.543   0.722   6.171 -0.0778  0.0084 -0.4171
   7723SM   C7S10151   0.759   0.797   6.182  0.0627  0.0062 -0.0029
   7723SM   H7S10152   0.778   0.789   6.072  0.4628 -1.1407  0.1355
   7723SM   H7T10153   0.802   0.709   6.234 -0.0278 -1.3358 -2.1014
   7723SM   C8S10154   0.840   0.923   6.230 -0.6170  0.9281  0.0011
   7723SM   H8S10155   0.844   0.931   6.341 -1.7264 -0.3978  0.1576
   7723SM   H8T10156   0.786   1.014   6.195 -0.4984  0.0562 -2.6649
   7723SM   C9S10157   0.986   0.919   6.176  0.2078  0.4072 -0.1137
   7723SM   H9S10158   0.980   0.891   6.068  0.6298  0.5265 -0.1713
   7723SM   H9T10159   1.031   0.834   6.232 -4.3620 -2.2458  0.0244
   7723SM  C10S10160   1.072   1.048   6.186 -0.1017 -0.2499  0.2132
   7723SM  H10S10161   1.179   1.033   6.210 -0.3034 -0.0129  1.3284
   7723SM  H10T10162   1.034   1.116   6.265  0.9391 -0.1892  0.6708
   7723SM  C11S10163   1.073   1.134   6.057 -0.2533  0.5005  0.2901
   7723SM  H11S10164   0.975   1.184   6.039 -0.6618 -1.2109 -2.8271
   7723SM  H11T10165   1.087   1.073   5.965  1.8178 -0.1876  1.0058
   7723SM  C12S10166   1.187   1.238   6.062  0.4537  0.0648 -0.1306
   7723SM  H12S10167   1.276   1.177   6.087 -0.2004 -0.8239  0.0642
   7723SM  H12T10168   1.163   1.312   6.142 -2.1136 -1.7320  0.8792
   7723SM  C13S10169   1.214   1.307   5.931  0.2940  0.8520  0.7771
   7723SM  H13S10170   1.221   1.417   5.942 -1.7057  1.4178 -2.2175
   7723SM  H13T10171   1.118   1.304   5.874  0.7363  0.0572  0.0347
   7723SM  C14S10172   1.332   1.252   5.844  0.7568  0.3644 -0.2218
   7723SM  H14S10173   1.309   1.146   5.820 -1.0238  0.5022  0.6906
   7723SM  H14T10174   1.421   1.252   5.910 -0.8835 -0.3157  2.1683
   7723SM  C15S10175   1.343   1.328   5.713 -0.3294 -0.1587  0.0690
   7723SM  H15S10176   1.356   1.436   5.735  0.9680 -0.1099 -0.8206
   7723SM  H15T10177   1.253   1.308   5.651 -0.7347 -1.0412  0.9160
   7723SM  C16S10178   1.462   1.279   5.632 -0.7971 -0.0370  0.3284
   7723SM  H16S10179   1.457   1.168   5.624  3.2324 -0.4031  0.9136
   7723SM  H16T10180   1.549   1.296   5.699  1.6260  1.3731 -2.9395
   7723SM  C17S10181   1.481   1.344   5.496 -0.3306 -0.6964  0.0462
   7723SM  H17S10182   1.580   1.312   5.456  0.1250 -0.0038  0.6189
   7723SM  H17T10183   1.491   1.454   5.502  3.7387 -0.8065 -1.6023
   7723SM  C18S10184   1.369   1.305   5.399 -0.6856  0.0136 -0.2792
   7723SM  H18S10185   1.381   1.368   5.308 -1.1392 -0.9321 -1.0200
   7723SM  H18T10186   1.263   1.307   5.430 -0.8021  1.0884 -0.6969
   7723SM  H18U10187   1.395   1.206   5.356  2.6237 -0.1522  1.7283
   7723SM   C1F10188   0.870   1.108   6.649  0.1374 -0.0574 -0.4328
   7723SM    OF10189   0.924   1.025   6.717 -0.1063 -0.3303 -0.0353
   7723SM   C2F10190   0.933   1.230   6.595 -0.5064  0.6446  0.0766
   7723SM   H2F10191   0.890   1.313   6.654 -1.6293  1.0121 -1.2220
   7723SM   H2G10192   0.896   1.242   6.491 -2.5179  1.1843  0.8129
   7723SM   C3F10193   1.084   1.225   6.604 -0.3056  0.0071  0.1035
   7723SM   H3F10194   1.121   1.134   6.553 -0.8499  0.2701 -0.7899
   7723SM   H3G10195   1.111   1.222   6.711  2.9245  1.7737 -0.5112
   7723SM   C4F10196   1.144   1.348   6.537 -0.0920  0.0838  0.4323
   7723SM   H4F10197   1.120   1.443   6.590  0.4024  0.3296  0.2262
   7723SM   H4G10198   1.118   1.354   6.429 -0.9882  0.9054  0.6800
   7723SM   C5F10199   1.298   1.347   6.532 -0.3852 -0.2450  0.3723
   7723SM   H5F10200   1.344   1.272   6.465  0.5384 -2.0962  2.9118
   7723SM   H5G10201   1.342   1.340   6.634  1.7414  3.6055 -0.0447
   7723SM   C6F10202   1.358   1.482   6.481  0.5189  0.3334 -0.2920
   7723SM   H6F10203   1.468   1.469   6.477  0.6618  1.6168 -1.2973
   7723SM   H6G10204   1.332   1.553   6.563 -2.9779 -1.7399  0.6068
   7723SM   C7F10205   1.317   1.516   6.337 -0.7223  0.5910  0.2207
   7723SM   H7F10206   1.211   1.546   6.342 -0.7112  1.3502 -2.4182
   7723SM   H7G10207   1.346   1.428   6.276 -0.3321  0.6943  0.2542
   7723SM   C8F10208   1.397   1.631   6.285  0.9475 -0.0152 -0.4418
   7723SM   H8F10209   1.503   1.607   6.306  0.2457 -1.7082  1.5643
   7723SM   H8G10210   1.362   1.712   6.352 -0.7454 -2.2336  1.5492
   7723SM   C9F10211   1.395   1.658   6.137 -0.5210 -0.1778  0.2024
   7723SM   H9F10212   1.405   1.767   6.117  1.8150 -0.5929 -1.1675
   7723SM   H9G10213   1.297   1.636   6.090 -0.6806  0.7738  0.0701
   7723SM  C10F10214   1.515   1.577   6.068 -0.1369 -0.0918 -0.3833
   7723SM  H10F10215   1.497   1.468   6.074  1.8640 -0.4414 -0.0861
   7723SM  H10G10216   1.613   1.588   6.119 -0.5548 -0.3768  0.4970
   7723SM  C11F10217   1.530   1.618   5.919  0.3165 -0.0089  0.5739
   7723SM  H11F10218   1.525   1.728   5.906 -0.7599 -0.0671  0.3641
   7723SM  H11G10219   1.438   1.574   5.875  0.4298 -0.0011  0.3310
   7723SM  C12F10220   1.646   1.544   5.851  0.3164  0.1430  0.8108
   7723SM  H12F10221   1.612   1.439   5.860 -0.8480  0.3431 -0.7758
   7723SM  H12G10222   1.747   1.561   5.895 -0.0938  0.3904  1.6804
   7723SM  C13F10223   1.654   1.582   5.693 -0.2646  0.0815  0.0792
   7723SM  H13F10224   1.558   1.623   5.656 -0.5195 -0.9917 -0.5041
   7723SM  H13G10225   1.683   1.495   5.629  1.6104  1.2657 -0.7527
   7723SM  C14F10226   1.783   1.672   5.677 -0.6968 -0.2500  0.2309
   7723SM  H14F10227   1.872   1.610   5.699 -0.2003 -0.5974 -2.4438
   7723SM  H14G10228   1.773   1.765   5.737 -0.4635 -0.6781  0.9386
   7723SM  C15F10229   1.804   1.707   5.529 -0.6017 -0.5388  0.5513
   7723SM  H15F10230   1.717   1.760   5.484  0.2604 -0.2161 -0.7993
   7723SM  H15G10231   1.819   1.618   5.465  0.4701 -0.1314  0.2078
   7723SM  C16F10232   1.930   1.795   5.514  0.0917  0.0593 -0.3314
   7723SM  H16F10233   2.010   1.718   5.508  0.6103  0.5093  0.5891
   7723SM  H16G10234   1.951   1.851   5.608  0.8017 -1.1914  0.2755
   7723SM  C17F10235   1.929   1.900   5.397  0.6507 -0.1524 -0.3866
   7723SM  H17F10236   2.027   1.952   5.404  0.0391  0.8852  0.9375
   7723SM  H17G10237   1.850   1.978   5.396  1.0128  0.2660  1.2083
   7723SM  C18F10238   1.936   1.834   5.256 -0.2968  0.2650 -0.2326
   7723SM  H18F10239   1.845   1.776   5.232  0.3345 -1.8634  2.0128
   7723SM  H18G10240   2.020   1.761   5.258  0.4234  1.0920  0.9992
   7723SM  C19F10241   1.960   1.933   5.143  0.6395  0.7232  0.2261
   7723SM  H19F10242   2.016   1.895   5.055  0.3978  1.3749 -0.2185
   7723SM  H19G10243   2.037   2.009   5.170  1.2331  0.0305  0.5001
   7723SM  C20F10244   1.831   2.002   5.099  0.1494 -0.2227 -0.3552
   7723SM  H20F10245   1.803   2.072   5.181 -1.4550 -1.2870  0.0424
   7723SM  H20G10246   1.748   1.932   5.076 -2.6760  2.3921  1.1739
   7723SM  C21F10247   1.849   2.091   4.972 -0.4503  0.4926 -0.3310
   7723SM  H21F10248   1.948   2.139   4.985 -0.9055  0.7684  3.0573
   7723SM  H21G10249   1.768   2.162   4.944 -0.8482  0.8054  1.5093
   7723SM  C22F10250   1.872   2.009   4.849  0.8727  0.6549  0.1019
   7723SM  H22F10251   1.946   1.927   4.859 -0.2383 -0.8495 -2.6699
   7723SM  H22G10252   1.918   2.083   4.780 -0.9054  1.8619  0.1426
   7723SM  C23F10253   1.749   1.950   4.777  0.5123 -0.9945 -0.7394
   7723SM  H23F10254   1.785   1.864   4.717  0.9328 -0.5718 -1.1042
   7723SM  H23G10255   1.693   2.026   4.719  0.8562 -0.5848 -0.5449
   7723SM  H23H10256   1.678   1.914   4.854  0.4905  0.3677 -0.0866
   7823SM     N10257   0.838   7.397   6.555 -0.3354  0.4496 -0.1116
   7823SM   C1510258   0.911   7.438   6.432 -0.0618 -1.0001  0.6982
   7823SM  H15A10259   1.015   7.410   6.420  0.5679  1.7867 -1.5869
   7823SM  H15B10260   0.903   7.544   6.415 -0.5767 -1.4182 -2.1138
   7823SM  H15C10261   0.885   7.386   6.341  1.3961  1.5286 -1.2977
   7823SM   C1410262   0.701   7.467   6.536  0.1645 -0.3501  0.0176
   7823SM  H14A10263   0.660   7.447   6.438  0.9886 -1.1589 -0.1757
   7823SM  H14B10264   0.713   7.574   6.540 -0.4075 -0.2961  0.4359
   7823SM  H14C10265   0.630   7.430   6.608  0.0360 -0.9378 -0.4046
   7823SM   C1310266   0.823   7.253   6.563  0.3965 -0.4263 -0.0322
   7823SM  H13A10267   0.760   7.217   6.484  0.1053 -0.8441  0.3831
   7823SM  H13B10268   0.790   7.219   6.660  1.9510  0.2201  0.7759
   7823SM  H13C10269   0.914   7.198   6.546  0.1771 -0.6551 -0.4632
   7823SM   C1210270   0.913   7.442   6.679  0.1727 -0.3853  0.0725
   7823SM  H12A10271   0.907   7.548   6.664 -0.4749 -0.7659 -2.9672
   7823SM  H12B10272   1.015   7.407   6.685 -0.5742 -3.0314 -0.9887
   7823SM   C1110273   0.858   7.404   6.819 -0.5384 -0.2540 -0.4530
   7823SM  H11A10274   0.747   7.411   6.824 -0.4888  2.1556 -1.1542
   7823SM  H11B10275   0.890   7.475   6.898 -0.4855 -0.0098 -0.6900
   7823SM     P10276   1.007   7.218   6.916 -0.7272 -0.0855  0.2329
   7823SM   O1310277   1.047   7.305   7.029 -0.0900 -0.1902 -0.0587
   7823SM   O1410278   1.006   7.072   6.947  0.3193 -0.0754 -0.0356
   7823SM   O1110279   1.113   7.242   6.799  0.3234 -0.0034 -0.3898
   7823SM   O1210280   0.876   7.266   6.850 -0.1820  0.2086 -0.2846
   7823SM   C1S10281   1.157   7.126   6.720  0.1277  0.4684  0.1371
   7823SM   H1S10282   1.064   7.073   6.691 -0.1814  1.3018 -0.4284
   7823SM   H1T10283   1.213   7.061   6.791  3.1805  2.7299 -0.0041
   7823SM    NF10284   1.272   7.029   6.521 -0.1095  0.6991 -0.2407
   7823SM   HNF10285   1.366   6.996   6.521 -0.4261 -0.5717  2.7617
   7823SM   C2S10286   1.242   7.154   6.591  0.2991  0.4782  0.4746
   7823SM   H2S10287   1.178   7.214   6.523 -0.5894 -0.4492  0.4431
   7823SM   C3S10288   1.369   7.235   6.624 -1.3254 -1.0761  0.2423
   7823SM   H3S10289   1.441   7.163   6.669  1.5295  1.7158  0.5616
   7823SM    O310290   1.360   7.338   6.723 -0.3348 -0.3812  0.6161
   7823SM   HO310291   1.285   7.307   6.773 -1.1033 -3.6150 -2.1664
   7823SM   C4S10292   1.434   7.294   6.497 -0.2927  0.4187 -0.2354
   7823SM   H4S10293   1.361   7.301   6.415 -1.2331 -0.8326  0.4549
   7823SM   C5S10294   1.567   7.284   6.476 -0.2987 -0.5630  0.0813
   7823SM   H5S10295   1.621   7.218   6.545 -0.5056 -2.4434 -1.4669
   7823SM   C6S10296   1.637   7.325   6.345  0.5296  0.1130  0.4997
   7823SM   H6S10297   1.672   7.230   6.299 -0.5397 -1.4360  2.6855
   7823SM   H6T10298   1.717   7.395   6.376  0.4035  0.2682  0.4747
   7823SM   C7S10299   1.551   7.421   6.252 -0.3154  0.0944 -0.5770
   7823SM   H7S10300   1.524   7.510   6.312 -0.1882  0.4841 -1.0888
   7823SM   H7T10301   1.459   7.372   6.215  0.2351  1.2532 -3.7442
   7823SM   C8S10302   1.636   7.475   6.139 -1.0837  0.0656  0.3625
   7823SM   H8S10303   1.734   7.512   6.175 -0.1448  2.6611 -4.0808
   7823SM   H8T10304   1.586   7.566   6.100 -0.5732  0.5617  0.8385
   7823SM   C9S10305   1.655   7.374   6.026 -0.4329  0.2175 -0.1378
   7823SM   H9S10306   1.553   7.345   5.993 -0.5665 -2.0861  2.0677
   7823SM   H9T10307   1.704   7.284   6.068  0.4089  1.4122  1.5571
   7823SM  C10S10308   1.720   7.418   5.892  0.3202  0.2453 -0.5750
   7823SM  H10S10309   1.727   7.329   5.825 -0.2046  1.1595 -1.8762
   7823SM  H10T10310   1.822   7.462   5.901  1.5017 -2.6026  2.8897
   7823SM  C11S10311   1.630   7.511   5.814 -0.0516  0.2842  0.4389
   7823SM  H11S10312   1.596   7.598   5.874 -2.3017 -0.5371  0.4541
   7823SM  H11T10313   1.539   7.455   5.782 -0.6696  1.3462  0.2944
   7823SM  C12S10314   1.695   7.565   5.682 -0.5653  0.1676  0.3670
   7823SM  H12S10315   1.772   7.634   5.722 -0.5241 -0.0745  0.7088
   7823SM  H12T10316   1.618   7.625   5.630  0.5143  0.7701 -0.5877
   7823SM  C13S10317   1.763   7.467   5.586  0.5703 -0.3871  0.5651
   7823SM  H13S10318   1.684   7.398   5.548 -1.0633  0.9660  1.3720
   7823SM  H13T10319   1.844   7.405   5.628  0.8069 -0.1595  0.4494
   7823SM  C14S10320   1.808   7.548   5.462  0.4366  0.7138  0.3176
   7823SM  H14S10321   1.876   7.630   5.495 -1.0056  1.1385  2.4944
   7823SM  H14T10322   1.720   7.599   5.418 -0.4289  0.5602  1.7766
   7823SM  C15S10323   1.871   7.465   5.349  0.0287 -0.0355 -0.3672
   7823SM  H15S10324   1.794   7.398   5.306 -0.3565  0.7485 -0.9164
   7823SM  H15T10325   1.926   7.381   5.396 -0.3320  0.5148  1.1026
   7823SM  C16S10326   1.955   7.545   5.255 -0.3320 -0.4005  0.4071
   7823SM  H16S10327   2.025   7.607   5.315 -1.5396  1.8386 -0.3531
   7823SM  H16T10328   1.892   7.603   5.184 -0.4324 -0.2032  0.6585
   7823SM  C17S10329   2.049   7.467   5.162  0.0507  0.6867 -0.5059
   7823SM  H17S10330   2.112   7.544   5.113 -1.1092  1.6104 -0.5718
   7823SM  H17T10331   1.988   7.409   5.089 -2.2512 -0.4630  2.1356
   7823SM  C18S10332   2.155   7.370   5.231  0.2598  0.2227  0.7318
   7823SM  H18S10333   2.104   7.299   5.300  1.8048 -2.8485 -1.0499
   7823SM  H18T10334   2.238   7.433   5.270  0.7172  2.2119 -2.9677
   7823SM  H18U10335   2.195   7.299   5.155  0.1201  1.7458 -0.8357
   7823SM   C1F10336   1.179   6.961   6.459  0.0638  0.3028  0.1469
   7823SM    OF10337   1.073   7.019   6.439  0.0494 -0.1126  0.6133
   7823SM   C2F10338   1.195   6.819   6.412 -0.1577 -0.2617 -0.1534
   7823SM   H2F10339   1.127   6.757   6.474  0.0486  1.1767  1.6171
   7823SM   H2G10340   1.302   6.791   6.422  0.5844  1.2182 -3.0652
   7823SM   C3F10341   1.144   6.804   6.267  0.0165  0.2710  0.0046
   7823SM   H3F10342   1.183   6.880   6.197 -1.4914  0.2634 -0.8975
   7823SM   H3G10343   1.034   6.819   6.271  0.1148  1.3871 -1.0463
   7823SM   C4F10344   1.167   6.659   6.228  0.4996 -0.2011 -0.1937
   7823SM   H4F10345   1.109   6.593   6.297 -0.2857  0.4622 -0.2010
   7823SM   H4G10346   1.275   6.641   6.241  0.8446  1.9398  0.2668
   7823SM   C5F10347   1.135   6.634   6.078  0.1239  0.4224  0.5845
   7823SM   H5F10348   1.224   6.602   6.019 -0.3006  0.1018  0.1134
   7823SM   H5G10349   1.116   6.733   6.031  0.9514 -0.4891 -1.8370
   7823SM   C6F10350   1.016   6.544   6.055  0.2461 -0.3939  0.1842
   7823SM   H6F10351   0.927   6.588   6.106  0.8909  1.7656 -0.4657
   7823SM   H6G10352   1.034   6.445   6.103  0.5494 -1.6626 -2.4060
   7823SM   C7F10353   0.978   6.533   5.907 -0.1148 -0.4412  0.2779
   7823SM   H7F10354   1.074   6.518   5.853 -0.1366  1.3139 -0.3014
   7823SM   H7G10355   0.931   6.628   5.873 -1.6677 -1.0246  0.7007
   7823SM   C8F10356   0.873   6.424   5.893  0.8452  0.4403 -0.0271
   7823SM   H8F10357   0.783   6.451   5.951 -0.3973 -1.1779 -1.0888
   7823SM   H8G10358   0.900   6.324   5.933 -1.2937  0.2434  1.0769
   7823SM   C9F10359   0.818   6.400   5.751 -0.4720 -0.2310 -0.3130
   7823SM   H9F10360   0.771   6.489   5.704 -0.6376 -0.7200 -1.0992
   7823SM   H9G10361   0.739   6.322   5.752 -0.1542 -0.6273 -2.0792
   7823SM  C10F10362   0.917   6.352   5.647 -0.1529 -0.2372 -0.3369
   7823SM  H10F10363   0.977   6.272   5.695 -1.1595  0.2598  1.8997
   7823SM  H10G10364   0.985   6.437   5.627  0.5283 -0.8245 -0.5758
   7823SM  C11F10365   0.865   6.303   5.514 -0.4843 -0.1786 -0.1545
   7823SM  H11F10366   0.949   6.286   5.443 -0.5799  0.6266 -0.4681
   7823SM  H11G10367   0.795   6.377   5.471  0.1986  0.5482 -0.0460
   7823SM  C12F10368   0.780   6.171   5.533 -0.2550  0.0385  0.3594
   7823SM  H12F10369   0.681   6.188   5.580 -2.3663 -2.2456 -2.8105
   7823SM  H12G10370   0.847   6.107   5.595 -0.3266 -0.3533  0.0366
   7823SM  C13F10371   0.754   6.112   5.393  0.5681  0.0676  0.3053
   7823SM  H13F10372   0.846   6.101   5.332 -0.0750  1.2283 -0.8960
   7823SM  H13G10373   0.685   6.171   5.330  0.1756 -1.2531 -0.5490
   7823SM  C14F10374   0.675   5.983   5.404 -0.6828 -0.3141  0.2831
   7823SM  H14F10375   0.583   6.010   5.461 -0.5441  1.0982 -0.1290
   7823SM  H14G10376   0.730   5.903   5.458  0.6683 -1.3300 -2.4272
   7823SM  C15F10377   0.622   5.936   5.271  0.5893  0.3746  0.5297
   7823SM  H15F10378   0.554   6.015   5.231 -0.7355 -0.8210  0.3531
   7823SM  H15G10379   0.552   5.852   5.287  0.9719 -0.1044 -0.2386
   7823SM  C16F10380   0.724   5.905   5.167  0.6772  0.5505  0.4290
   7823SM  H16F10381   0.778   5.998   5.138  0.8013  1.3261  2.9511
   7823SM  H16G10382   0.672   5.865   5.077  4.0744  0.7797 -1.8479
   7823SM  C17F10383   0.834   5.815   5.226  0.3067  0.4312  0.6316
   7823SM  H17F10384   0.783   5.720   5.255  0.3301  0.3766  0.4976
   7823SM  H17G10385   0.876   5.855   5.321 -1.6409  0.1085  1.6826
   7823SM  C18F10386   0.936   5.782   5.113 -0.1058 -0.1180  0.0280
   7823SM  H18F10387   0.982   5.880   5.088  1.3949 -0.6414  0.6185
   7823SM  H18G10388   0.879   5.753   5.022  1.1667  2.0159 -1.5493
   7823SM  C19F10389   1.042   5.674   5.138 -0.1895 -0.3385  0.2633
   7823SM  H19F10390   0.990   5.578   5.153  0.4845 -0.7986 -0.2518
   7823SM  H19G10391   1.095   5.686   5.235  1.9023  2.9341 -1.0793
   7823SM  C20F10392   1.128   5.651   5.011 -0.4101  0.4816  0.5674
   7823SM  H20F10393   1.056   5.633   4.928  0.0683  3.9419 -0.7403
   7823SM  H20G10394   1.196   5.565   5.029  1.7862  1.6617 -1.5832
   7823SM  C21F10395   1.222   5.760   4.965 -0.1298  0.1311  0.2903
   7823SM  H21F10396   1.309   5.770   5.035 -0.4479  0.7424  0.6017
   7823SM  H21G10397   1.175   5.860   4.967  0.3023  0.3488 -0.4107
   7823SM  C22F10398   1.278   5.730   4.825  0.2843 -0.1889  0.4244
   7823SM  H22F10399   1.322   5.628   4.829  0.0306 -0.2805  0.8834
   7823SM  H22G10400   1.357   5.806   4.803  0.1010 -0.0140  0.3704
   7823SM  C23F10401   1.165   5.740   4.717 -0.6610 -0.7433 -0.2200
   7823SM  H23F10402   1.121   5.842   4.715 -0.5853 -0.7198 -1.7144
   7823SM  H23G10403   1.090   5.663   4.746 -0.2010 -0.9273  0.5087
   7823SM  H23H10404   1.202   5.719   4.615  3.0230  2.2924  0.2465
   7923SM     N10405   6.273   0.476   7.207  0.0861 -0.4299  0.2719
   7923SM   C1510406   6.159   0.555   7.266 -0.0912 -0.0870  0.1148
   7923SM  H15A10407   6.166   0.659   7.238 -0.5182  0.6053  2.4164
   7923SM  H15B10408   6.158   0.562   7.374 -1.1595 -1.3134  0.2070
   7923SM  H15C10409   6.066   0.516   7.227  0.6948 -1.5612 -0.3932
   7923SM   C1410410   6.261   0.467   7.060 -0.0621 -0.2392  0.2780
   7923SM  H14A10411   6.334   0.399   7.019 -0.3893 -1.0420  0.9849
   7923SM  H14B10412   6.272   0.554   6.996 -0.4752 -0.2110  0.2404
   7923SM  H14C10413   6.163   0.429   7.033 -0.4439  1.9778 -1.8291
   7923SM   C1310414   6.394   0.543   7.246 -0.0675  0.0577 -0.1980
   7923SM  H13A10415   6.479   0.486   7.212  0.3347  0.9707 -0.7466
   7923SM  H13B10416   6.410   0.548   7.353  2.9957  1.6109 -0.6274
   7923SM  H13C10417   6.409   0.640   7.201  2.9114 -0.1589  0.1465
   7923SM   C1210418   6.267   0.339   7.270  0.4252 -0.6205  0.2076
   7923SM  H12A10419   6.167   0.299   7.254 -0.0849  0.2871  1.0745
   7923SM  H12B10420   6.286   0.358   7.374 -0.4994  0.4424  0.1997
   7923SM   C1110421   6.366   0.234   7.214  0.3230 -0.2050 -0.0140
   7923SM  H11A10422   6.387   0.176   7.307 -0.5546  0.2848  0.5024
   7923SM  H11B10423   6.466   0.276   7.189  2.9592 -4.1438  2.6907
   7923SM     P10424   6.374   0.029   7.068 -0.2180  0.3128 -0.4807
   7923SM   O1310425   6.458  -0.034   7.174  0.4687  0.1363  0.0030
   7923SM   O1410426   6.271  -0.060   7.005  0.2335 -0.0431  0.1660
   7923SM   O1110427   6.464   0.081   6.946  0.2086  0.6543  0.2915
   7923SM   O1210428   6.311   0.163   7.105 -0.0386 -0.0674 -0.1625
   7923SM   C1S10429   6.417   0.090   6.810  0.3766 -0.2439  0.3085
   7923SM   H1S10430   6.311   0.055   6.805  0.4299 -0.2586 -0.9138
   7923SM   H1T10431   6.475   0.028   6.738  1.6485  3.8711 -2.5410
   7923SM    NF10432   6.360   0.237   6.630  0.8916 -0.3896 -0.1621
   7923SM   HNF10433   6.425   0.229   6.556 -0.1283 -0.9365 -1.0231
   7923SM   C2S10434   6.420   0.234   6.764 -0.3188  0.5861 -0.6418
   7923SM   H2S10435   6.351   0.299   6.822 -0.7496  0.2977 -0.8205
   7923SM   C3S10436   6.560   0.292   6.783 -0.3892 -0.3831 -0.2908
   7923SM   H3S10437   6.633   0.229   6.728  0.4738 -0.6807  1.1691
   7923SM    O310438   6.604   0.310   6.914 -0.0876 -0.6010 -0.3659
   7923SM   HO310439   6.554   0.246   6.966  0.2835 -0.4749  0.1557
   7923SM   C4S10440   6.567   0.429   6.708  0.8033  0.3068  0.7321
   7923SM   H4S10441   6.579   0.421   6.599 -0.6286 -1.9604  0.6720
   7923SM   C5S10442   6.545   0.553   6.763  0.1476 -0.0757  0.0306
   7923SM   H5S10443   6.521   0.562   6.871  0.4283  0.0740  0.0816
   7923SM   C6S10444   6.566   0.687   6.694 -0.3202 -0.4084 -0.6133
   7923SM   H6S10445   6.626   0.758   6.755  0.5351 -0.4986 -1.3248
   7923SM   H6T10446   6.470   0.741   6.680  0.0244  0.9398  1.7699
   7923SM   C7S10447   6.624   0.679   6.555 -0.8048 -0.4214 -0.5337
   7923SM   H7S10448   6.715   0.616   6.553  0.1260  0.7272  1.9094
   7923SM   H7T10449   6.666   0.780   6.532 -1.6523  0.0270 -0.1553
   7923SM   C8S10450   6.528   0.651   6.438 -0.3917 -0.0571  0.2470
   7923SM   H8S10451   6.445   0.725   6.435  0.3572  0.9042  1.6062
   7923SM   H8T10452   6.471   0.558   6.455  0.0642 -0.9291 -2.4985
   7923SM   C9S10453   6.603   0.635   6.305 -0.4002 -0.2679  0.0714
   7923SM   H9S10454   6.687   0.562   6.299 -0.0194  0.1193  0.6404
   7923SM   H9T10455   6.642   0.731   6.266 -0.4831 -1.2341 -2.6237
   7923SM  C10S10456   6.492   0.601   6.202 -0.3108  0.0637 -0.1203
   7923SM  H10S10457   6.396   0.656   6.209 -1.3739 -1.5313 -1.5435
   7923SM  H10T10458   6.459   0.495   6.214 -2.7208  0.8292  0.7666
   7923SM  C11S10459   6.555   0.612   6.061 -0.7529 -0.1171  0.6273
   7923SM  H11S10460   6.650   0.555   6.069 -0.1906  0.6944 -0.1166
   7923SM  H11T10461   6.597   0.708   6.025  0.7213 -1.2840 -1.0067
   7923SM  C12S10462   6.467   0.543   5.958 -0.4486  0.4679 -0.0033
   7923SM  H12S10463   6.386   0.618   5.942  1.3654  2.3353 -0.8509
   7923SM  H12T10464   6.436   0.441   5.991  0.3547 -0.3981 -1.7541
   7923SM  C13S10465   6.528   0.524   5.815 -0.6840 -0.3776 -0.3680
   7923SM  H13S10466   6.605   0.444   5.814 -0.7170 -0.4425  0.9305
   7923SM  H13T10467   6.585   0.618   5.797  0.0638 -0.4132  1.5735
   7923SM  C14S10468   6.425   0.484   5.720  0.3285 -0.3290 -0.0094
   7923SM  H14S10469   6.349   0.564   5.710  0.1095 -0.4527  0.6664
   7923SM  H14T10470   6.384   0.389   5.758  1.2699  0.3415  2.9323
   7923SM  C15S10471   6.467   0.448   5.579  0.2431 -0.4094  0.3340
   7923SM  H15S10472   6.506   0.344   5.587 -1.1409 -1.1529 -1.6889
   7923SM  H15T10473   6.535   0.524   5.536 -0.9811  0.2115 -0.5530
   7923SM  C16S10474   6.345   0.446   5.486  1.0200 -0.1562 -0.7179
   7923SM  H16S10475   6.286   0.535   5.517 -0.1504 -1.2451  0.2840
   7923SM  H16T10476   6.280   0.358   5.503 -0.8688  1.3574  0.3482
   7923SM  C17S10477   6.381   0.441   5.331  0.1906 -0.3185  0.6438
   7923SM  H17S10478   6.428   0.539   5.309  0.1342 -0.1707  1.1648
   7923SM  H17T10479   6.283   0.433   5.278 -0.9970 -1.1893  2.8378
   7923SM  C18S10480   6.474   0.331   5.284  0.2200 -0.0740  0.7965
   7923SM  H18S10481   6.574   0.338   5.332  1.0144 -1.5191 -0.5541
   7923SM  H18T10482   6.488   0.327   5.174 -0.9708 -2.3477  0.6637
   7923SM  H18U10483   6.424   0.238   5.320  1.1077 -0.6924  0.4779
   7923SM   C1F10484   6.231   0.211   6.591 -0.0171  0.1583  0.2543
   7923SM    OF10485   6.150   0.167   6.666  0.2403  0.5172  0.4491
   7923SM   C2F10486   6.208   0.222   6.446  0.0954 -0.6081  0.6925
   7923SM   H2F10487   6.174   0.120   6.417  0.7173 -0.7462  0.4346
   7923SM   H2G10488   6.304   0.237   6.391 -0.1325  0.9893  0.7039
   7923SM   C3F10489   6.108   0.330   6.409  0.5743  0.2082  0.5801
   7923SM   H3F10490   6.148   0.427   6.446  0.1795  0.0808  1.3662
   7923SM   H3G10491   6.013   0.300   6.459 -0.0289  1.6148  0.3266
   7923SM   C4F10492   6.080   0.350   6.254 -0.3825  0.0584  0.0848
   7923SM   H4F10493   5.995   0.417   6.230  0.8520  1.1612 -1.4737
   7923SM   H4G10494   6.025   0.260   6.220 -2.9699  0.9729  1.5643
   7923SM   C5F10495   6.204   0.358   6.153  0.3773 -0.3586 -0.0146
   7923SM   H5F10496   6.283   0.302   6.207 -1.4995  0.0245  3.4042
   7923SM   H5G10497   6.229   0.467   6.147  0.8319 -0.4957 -0.7905
   7923SM   C6F10498   6.172   0.311   6.007  0.0938 -0.4795 -0.0919
   7923SM   H6F10499   6.151   0.202   6.019 -0.2885 -0.2225  2.0058
   7923SM   H6G10500   6.263   0.309   5.944  1.0931 -1.4586  1.3221
   7923SM   C7F10501   6.055   0.371   5.939 -0.4150 -0.2836  0.8575
   7923SM   H7F10502   6.062   0.482   5.951 -1.4479 -0.2695  1.4616
   7923SM   H7G10503   5.954   0.346   5.979 -1.9218  1.3595 -1.5743
   7923SM   C8F10504   6.067   0.343   5.788 -0.2121  0.4089  0.3842
   7923SM   H8F10505   6.075   0.234   5.768  1.5141  0.2289  1.8207
   7923SM   H8G10506   6.156   0.396   5.747 -1.2911  2.1882  0.2094
   7923SM   C9F10507   5.948   0.401   5.716  0.9634  0.7615  0.1105
   7923SM   H9F10508   5.944   0.511   5.726 -1.0588  0.8075 -0.6567
   7923SM   H9G10509   5.855   0.353   5.753 -0.2292  0.0387 -3.3790
   7923SM  C10F10510   5.959   0.355   5.571  0.1623 -0.3458 -0.6029
   7923SM  H10F10511   5.962   0.245   5.558  2.6142 -0.2155 -1.5997
   7923SM  H10G10512   6.050   0.380   5.512 -0.3236 -2.5022 -2.4045
   7923SM  C11F10513   5.836   0.398   5.489  0.2978 -0.0708 -0.6252
   7923SM  H11F10514   5.822   0.507   5.503 -3.0657 -0.8062  4.1333
   7923SM  H11G10515   5.744   0.359   5.537  0.5408  0.3966  0.2303
   7923SM  C12F10516   5.853   0.393   5.344 -0.2998  0.0625 -0.1047
   7923SM  H12F10517   5.871   0.286   5.320 -1.9023 -0.5476  1.1759
   7923SM  H12G10518   5.941   0.456   5.321 -0.8656  0.5966 -0.8238
   7923SM  C13F10519   5.736   0.441   5.253 -0.8942  0.4885 -0.7005
   7923SM  H13F10520   5.765   0.428   5.147  0.5734 -1.7711 -0.0950
   7923SM  H13G10521   5.733   0.551   5.273 -1.4725  0.5414 -1.0461
   7923SM  C14F10522   5.607   0.364   5.277 -0.4483  0.6264  0.3468
   7923SM  H14F10523   5.541   0.406   5.198  1.6650  1.4860 -1.0205
   7923SM  H14G10524   5.572   0.373   5.382 -0.9392 -0.2676  0.2788
   7923SM  C15F10525   5.614   0.203   5.267  0.4271 -0.2340  0.2506
   7923SM  H15F10526   5.519   0.153   5.292  1.3363 -1.6010  1.1208
   7923SM  H15G10527   5.686   0.158   5.339  0.5890 -1.9311 -0.9124
   7923SM  C16F10528   5.658   0.158   5.131  0.4277 -0.0066 -0.3276
   7923SM  H16F10529   5.683   0.051   5.146 -1.5915 -0.5179 -0.3411
   7923SM  H16G10530   5.755   0.208   5.106  0.3350  0.8110  0.8398
   7923SM  C17F10531   5.551   0.177   5.028  0.2243 -0.2663 -0.1617
   7923SM  H17F10532   5.536   0.285   5.008  0.4350 -0.2336 -0.1432
   7923SM  H17G10533   5.457   0.129   5.064 -0.9657  2.0311 -0.0139
   7923SM  C18F10534   5.599   0.115   4.889  0.6836 -0.0158 -0.7347
   7923SM  H18F10535   5.589   0.005   4.904 -1.6910 -0.0141 -1.8892
   7923SM  H18G10536   5.705   0.145   4.874  0.7680  0.7562  1.1507
   7923SM  C19F10537   5.513   0.153   4.769 -0.5445 -0.1426 -1.0173
   7923SM  H19F10538   5.494   0.262   4.769 -0.7144 -0.0219  2.8670
   7923SM  H19G10539   5.408   0.120   4.782 -0.4496  0.3885  1.7473
   7923SM  C20F10540   5.564   0.109   4.638 -0.2942 -0.0830  0.2186
   7923SM  H20F10541   5.554  -0.000   4.624  0.7601 -0.1227 -0.2877
   7923SM  H20G10542   5.674   0.124   4.639 -0.6373  3.8791  1.6699
   7923SM  C21F10543   5.488   0.174   4.513 -0.0821  0.0107  0.1869
   7923SM  H21F10544   5.514   0.281   4.496 -1.8388  0.7383  1.7843
   7923SM  H21G10545   5.378   0.176   4.528 -0.2686 -0.7076 -1.0294
   7923SM  C22F10546   5.506   0.090   4.387 -0.7044 -0.9768  0.0086
   7923SM  H22F10547   5.489  -0.020   4.394 -0.4952 -1.0827 -1.0808
   7923SM  H22G10548   5.608   0.109   4.349 -0.3551 -1.3593  0.7313
   7923SM  C23F10549   5.411   0.143   4.280 -0.3903 -0.1037 -0.2156
   7923SM  H23F10550   5.431   0.097   4.181 -1.6104 -1.0439 -0.0448
   7923SM  H23G10551   5.425   0.251   4.263  0.7366 -0.4081 -1.4082
   7923SM  H23H10552   5.302   0.133   4.299 -1.1566  2.4699 -2.6601
   8023SM     N10553   0.230   0.264   6.962 -0.3147 -0.2958 -0.2048
   8023SM   C1510554   0.100   0.230   7.040  0.9643  0.2126  0.6364
   8023SM  H15A10555   0.072   0.300   7.116 -0.4660 -1.1061  1.3746
   8023SM  H15B10556   0.117   0.139   7.095  0.7203  0.7206  1.5613
   8023SM  H15C10557   0.022   0.218   6.966  1.3609  0.3218  0.1914
   8023SM   C1410558   0.253   0.164   6.866 -0.2552 -0.0228  0.2695
   8023SM  H14A10559   0.180   0.168   6.786 -1.5019  2.3413  1.4300
   8023SM  H14B10560   0.240   0.065   6.906  1.4348 -0.3276  0.1193
   8023SM  H14C10561   0.350   0.177   6.822  0.1528  0.5697  1.3105
   8023SM   C1310562   0.201   0.401   6.897  0.1513  0.5578  0.3162
   8023SM  H13A10563   0.115   0.401   6.832 -0.8919  2.0040  1.6052
   8023SM  H13B10564   0.285   0.427   6.835 -0.3869  1.3459 -0.1071
   8023SM  H13C10565   0.190   0.478   6.972  2.5600  0.3840  0.9166
   8023SM   C1210566   0.345   0.274   7.056 -0.1916 -0.2622 -0.2239
   8023SM  H12A10567   0.372   0.183   7.107  0.4066  0.1440  0.1999
   8023SM  H12B10568   0.303   0.338   7.133 -1.3111  1.9151 -2.5277
   8023SM   C1110569   0.476   0.337   7.013 -1.0286  0.3860  0.1525
   8023SM  H11A10570   0.554   0.313   7.089  0.1275  0.3507 -1.0046
   8023SM  H11B10571   0.461   0.446   7.027  0.6216  0.4166  2.1922
   8023SM     P10572   0.627   0.199   6.862 -0.0965 -0.1454 -0.4776
   8023SM   O1310573   0.753   0.257   6.825 -0.9116 -0.3020  0.4126
   8023SM   O1410574   0.632   0.101   6.973 -0.2106  0.0208 -0.0350
   8023SM   O1110575   0.574   0.129   6.730  1.1512  0.0443 -0.5014
   8023SM   O1210576   0.523   0.315   6.884  0.5332  0.1519  0.0750
   8023SM   C1S10577   0.525   0.210   6.621  0.0950 -0.4678 -0.7755
   8023SM   H1S10578   0.609   0.260   6.568  1.2622 -0.7885  0.7115
   8023SM   H1T10579   0.461   0.294   6.656  2.2593  1.6981 -1.7100
   8023SM    NF10580   0.410   0.208   6.404 -0.1594  0.0062 -0.0803
   8023SM   HNF10581   0.328   0.259   6.429  0.0008  0.9725 -1.4178
   8023SM   C2S10582   0.454   0.127   6.509 -0.2917 -0.2311 -0.9704
   8023SM   H2S10583   0.527   0.055   6.466  0.1963 -0.8112  0.7689
   8023SM   C3S10584   0.349   0.028   6.585 -0.0258 -0.6805  0.3409
   8023SM   H3S10585   0.266   0.085   6.630 -0.7915 -2.5245  1.4062
   8023SM    O310586   0.399  -0.047   6.698  0.3491 -0.0632  1.0017
   8023SM   HO310587   0.465   0.015   6.728 -0.0641 -0.7220  3.4884
   8023SM   C4S10588   0.287  -0.061   6.473 -0.5834 -0.5976  0.2299
   8023SM   H4S10589   0.206  -0.011   6.418  1.3177  0.3407 -1.9258
   8023SM   C5S10590   0.328  -0.178   6.429  0.4949 -0.4282 -0.2948
   8023SM   H5S10591   0.410  -0.215   6.491  1.4098  1.1751 -0.4983
   8023SM   C6S10592   0.268  -0.267   6.326 -0.3079 -0.0281  0.5104
   8023SM   H6S10593   0.205  -0.339   6.384 -0.8739 -1.6109 -1.9126
   8023SM   H6T10594   0.339  -0.326   6.265 -1.6478 -1.5851  0.3861
   8023SM   C7S10595   0.189  -0.203   6.207 -0.2499 -0.0404 -0.5246
   8023SM   H7S10596   0.094  -0.156   6.240 -0.9494 -2.7579  1.7544
   8023SM   H7T10597   0.153  -0.294   6.154  2.0933 -2.1357  1.2076
   8023SM   C8S10598   0.273  -0.112   6.117 -0.0191  0.1732  0.6493
   8023SM   H8S10599   0.380  -0.142   6.108  0.4722  2.4023 -2.0009
   8023SM   H8T10600   0.292  -0.021   6.179 -0.3512 -0.2047  1.3212
   8023SM   C9S10601   0.204  -0.078   5.977 -0.5534  0.2898  0.0709
   8023SM   H9S10602   0.265   0.003   5.930  0.1425  0.1409  0.6921
   8023SM   H9T10603   0.103  -0.040   6.001 -0.2579  1.5161 -0.5336
   8023SM  C10S10604   0.182  -0.198   5.879  0.1057  0.3694 -0.4696
   8023SM  H10S10605   0.136  -0.286   5.929 -1.6927  1.4143 -0.1914
   8023SM  H10T10606   0.285  -0.229   5.853 -0.0047 -0.4700  0.0617
   8023SM  C11S10607   0.108  -0.166   5.749  0.1770 -0.1970 -0.0056
   8023SM  H11S10608   0.107  -0.260   5.690 -0.0666 -1.5641  2.0700
   8023SM  H11T10609   0.169  -0.093   5.690  0.1398 -0.6361 -0.5932
   8023SM  C12S10610  -0.028  -0.109   5.775 -0.1995 -0.2332 -0.0421
   8023SM  H12S10611  -0.010  -0.009   5.821  2.5314 -0.4496 -0.5015
   8023SM  H12T10612  -0.086  -0.175   5.844 -0.5367  1.0272  0.9317
   8023SM  C13S10613  -0.119  -0.091   5.655 -0.5748 -0.3067 -0.3216
   8023SM  H13S10614  -0.202  -0.030   5.696 -1.5721 -3.3937  2.7674
   8023SM  H13T10615  -0.179  -0.177   5.618 -0.7125  0.0173 -0.8573
   8023SM  C14S10616  -0.047  -0.021   5.539 -0.1643 -0.1009  0.2231
   8023SM  H14S10617   0.038  -0.083   5.504  0.6700  0.0400  1.8674
   8023SM  H14T10618  -0.005   0.075   5.577  0.9920 -0.2538 -0.6179
   8023SM  C15S10619  -0.131   0.006   5.413  0.2692  0.0139  0.4272
   8023SM  H15S10620  -0.208   0.079   5.446  0.8987 -0.9499  4.5770
   8023SM  H15T10621  -0.179  -0.090   5.383 -0.9963  1.1945 -1.4967
   8023SM  C16S10622  -0.041   0.065   5.305 -0.0208 -0.3461 -0.7114
   8023SM  H16S10623   0.046  -0.002   5.284  0.8897  0.9712 -1.2690
   8023SM  H16T10624  -0.005   0.157   5.355 -2.1036  0.5947 -0.8301
   8023SM  C17S10625  -0.108   0.094   5.177  0.7732 -0.3735  0.6887
   8023SM  H17S10626  -0.168   0.187   5.173  0.9936 -0.0371  3.5123
   8023SM  H17T10627  -0.174   0.014   5.137 -0.2980  1.2044 -0.8429
   8023SM  C18S10628  -0.002   0.120   5.076 -0.1536 -0.1784 -0.2281
   8023SM  H18S10629   0.071   0.037   5.066  1.6358  1.0646  1.7538
   8023SM  H18T10630   0.046   0.218   5.098 -1.6486  0.4956  0.2263
   8023SM  H18U10631  -0.049   0.124   4.975  0.2757 -1.0648 -0.4659
   8023SM   C1F10632   0.495   0.262   6.314  0.2491 -0.1857 -0.3031
   8023SM    OF10633   0.604   0.210   6.303  0.3826  0.1090  0.4140
   8023SM   C2F10634   0.449   0.379   6.239  0.2898 -0.4147  0.4056
   8023SM   H2F10635   0.522   0.461   6.223 -1.3287  1.0339  0.1669
   8023SM   H2G10636   0.369   0.438   6.289  0.9296  2.9000 -2.1299
   8023SM   C3F10637   0.400   0.327   6.094 -0.3021  0.4162 -0.4220
   8023SM   H3F10638   0.327   0.245   6.113  3.0062 -3.0939 -1.4875
   8023SM   H3G10639   0.488   0.274   6.050  0.0945 -0.6491  1.5193
   8023SM   C4F10640   0.366   0.432   5.999  0.0540  0.4608  0.6598
   8023SM   H4F10641   0.301   0.511   6.044 -1.1685  0.5115 -1.0997
   8023SM   H4G10642   0.295   0.392   5.924 -0.4281  1.0512  0.7957
   8023SM   C5F10643   0.488   0.501   5.933 -0.1249  0.0790 -0.4044
   8023SM   H5F10644   0.547   0.433   5.867 -1.0233 -0.0537 -1.0830
   8023SM   H5G10645   0.565   0.513   6.012  0.2450  1.5737 -0.9667
   8023SM   C6F10646   0.442   0.639   5.873 -0.2531 -0.6925  0.9201
   8023SM   H6F10647   0.355   0.688   5.922 -1.1399  1.5200 -2.5397
   8023SM   H6G10648   0.401   0.623   5.771  0.1951 -2.4456  0.9825
   8023SM   C7F10649   0.549   0.749   5.860 -0.3117  0.5484  0.3404
   8023SM   H7F10650   0.594   0.777   5.957  0.1081  1.4691 -0.1006
   8023SM   H7G10651   0.487   0.832   5.820 -1.8409 -0.3200  0.8247
   8023SM   C8F10652   0.666   0.715   5.774  0.0294 -0.2837  0.8395
   8023SM   H8F10653   0.734   0.643   5.824  1.7139  0.4824 -0.2656
   8023SM   H8G10654   0.731   0.805   5.769  0.8512 -0.6897  3.0104
   8023SM   C9F10655   0.640   0.669   5.633 -0.4220  0.0119 -0.1985
   8023SM   H9F10656   0.571   0.584   5.616  0.1979 -0.3730 -0.8572
   8023SM   H9G10657   0.731   0.627   5.584  1.4281  1.4804  1.7872
   8023SM  C10F10658   0.598   0.792   5.540  0.0185 -0.1137 -0.9211
   8023SM  H10F10659   0.665   0.875   5.570  0.3984 -1.1479  1.2415
   8023SM  H10G10660   0.495   0.830   5.557  0.7550  1.0931  1.1450
   8023SM  C11F10661   0.603   0.760   5.389  0.0313  0.6448 -0.2412
   8023SM  H11F10662   0.532   0.826   5.336 -0.3367 -0.0429 -0.6121
   8023SM  H11G10663   0.579   0.653   5.373 -1.1756  0.7158  0.9034
   8023SM  C12F10664   0.742   0.778   5.330 -0.2609 -0.3109 -0.0865
   8023SM  H12F10665   0.816   0.726   5.394  2.6695  2.6780 -0.7376
   8023SM  H12G10666   0.756   0.888   5.336 -3.8588  0.2134  1.0813
   8023SM  C13F10667   0.760   0.717   5.188 -0.0679  0.1117 -0.1760
   8023SM  H13F10668   0.755   0.606   5.197  1.1651  0.0611  0.0296
   8023SM  H13G10669   0.866   0.729   5.158 -0.0189 -0.9504 -0.4866
   8023SM  C14F10670   0.667   0.749   5.068 -0.3556  0.4453 -0.6333
   8023SM  H14F10671   0.560   0.727   5.089 -0.1111 -0.2084 -0.0292
   8023SM  H14G10672   0.699   0.689   4.979 -1.7008 -1.9953  0.4276
   8023SM  C15F10673   0.679   0.893   5.023 -0.6653  0.5799 -0.3290
   8023SM  H15F10674   0.786   0.919   5.016 -0.9696  1.4577 -2.2337
   8023SM  H15G10675   0.647   0.973   5.094 -2.1243  0.1646 -0.4831
   8023SM  C16F10676   0.615   0.932   4.893  0.3197 -0.2648  0.6211
   8023SM  H16F10677   0.651   0.874   4.805 -1.2990 -1.0440  0.4395
   8023SM  H16G10678   0.639   1.037   4.866  0.8465 -0.1437  1.5182
   8023SM  C17F10679   0.463   0.904   4.902 -0.1389 -0.9317  0.1562
   8023SM  H17F10680   0.422   0.962   4.988  0.2961 -1.3137  0.6285
   8023SM  H17G10681   0.435   0.797   4.920 -0.6881 -1.0474 -1.2764
   8023SM  C18F10682   0.396   0.943   4.770  0.4883  0.1249 -0.8218
   8023SM  H18F10683   0.415   0.872   4.687 -2.4483 -2.8597  0.7937
   8023SM  H18G10684   0.426   1.044   4.736 -1.4899  0.6400 -1.1601
   8023SM  C19F10685   0.242   0.935   4.778 -0.0237  0.2680 -0.2198
   8023SM  H19F10686   0.200   0.985   4.868  0.3571  0.8495 -0.3545
   8023SM  H19G10687   0.215   0.828   4.787 -0.8629  0.5349  0.6380
   8023SM  C20F10688   0.171   0.995   4.656  1.0911 -0.2171  0.1220
   8023SM  H20F10689   0.216   0.967   4.559  1.4209  1.7676 -0.3194
   8023SM  H20G10690   0.186   1.104   4.647 -1.9394  0.0991 -3.3500
   8023SM  C21F10691   0.021   0.959   4.650  0.0756  0.0709  0.5999
   8023SM  H21F10692  -0.042   0.976   4.740 -2.6219 -0.9912 -0.9573
   8023SM  H21G10693   0.007   0.853   4.618  2.2780 -0.1726  0.2544
   8023SM  C22F10694  -0.058   1.026   4.534  0.3666  0.4706 -0.0324
   8023SM  H22F10695  -0.161   0.984   4.544  0.5946  0.5483  3.9271
   8023SM  H22G10696  -0.014   0.992   4.438  0.6318  0.4314  0.1015
   8023SM  C23F10697  -0.059   1.185   4.535  0.1930  0.2012 -0.4227
   8023SM  H23F10698  -0.113   1.222   4.445  0.7736  1.9886 -0.0767
   8023SM  H23G10699   0.045   1.225   4.534  0.2153  0.1565  0.1033
   8023SM  H23H10700  -0.107   1.225   4.627  0.7958  1.7161 -0.7272
   8123SM     N10701   4.994   4.592   2.601  0.4500  0.4225  0.3905
   8123SM   C1510702   4.884   4.678   2.543  0.1521  0.5423  0.1375
   8123SM  H15A10703   4.793   4.675   2.601  0.1380  0.2460  0.0988
   8123SM  H15B10704   4.856   4.642   2.446  0.8477 -0.7563  0.3980
   8123SM  H15C10705   4.921   4.779   2.531  1.0807 -0.0043 -1.9939
   8123SM   C1410706   5.114   4.615   2.517  0.2537  0.0069  0.2522
   8123SM  H14A10707   5.151   4.716   2.522  1.3619 -0.4497  2.7760
   8123SM  H14B10708   5.083   4.583   2.419 -0.4486  0.4817  0.3132
   8123SM  H14C10709   5.191   4.549   2.555 -0.2226  0.2099  1.6131
   8123SM   C1310710   5.024   4.634   2.739 -0.1250  0.2300  0.6886
   8123SM  H13A10711   5.089   4.557   2.779  1.7209  1.1809 -0.3807
   8123SM  H13B10712   4.932   4.630   2.797 -0.3453 -2.4822  0.2822
   8123SM  H13C10713   5.074   4.728   2.750 -2.6481  1.8689 -0.7415
   8123SM   C1210714   4.949   4.445   2.600 -0.2257 -0.3381 -0.4880
   8123SM  H12A10715   4.900   4.408   2.511  0.4275 -2.5900  0.0184
   8123SM  H12B10716   4.874   4.422   2.675  2.1095  0.3809  2.2532
   8123SM   C1110717   5.060   4.342   2.631  0.2043 -0.1820 -0.6633
   8123SM  H11A10718   5.139   4.352   2.553  1.7122 -0.3914  0.7879
   8123SM  H11B10719   5.011   4.243   2.618 -0.2830 -0.5498  3.1026
   8123SM     P10720   5.216   4.242   2.814 -0.0512 -0.1190  0.2682
   8123SM   O1310721   5.169   4.115   2.755 -0.0763  0.3527  0.8179
   8123SM   O1410722   5.359   4.281   2.787 -0.3641 -0.3247 -0.0541
   8123SM   O1110723   5.187   4.242   2.965  0.4114  0.3187  0.1346
   8123SM   O1210724   5.121   4.356   2.760 -0.4852 -0.0370 -0.6431
   8123SM   C1S10725   5.206   4.356   3.047  0.5379 -0.1199  0.1311
   8123SM   H1S10726   5.125   4.431   3.028  0.1297 -0.8377 -1.0312
   8123SM   H1T10727   5.305   4.401   3.025  0.8909 -0.9609 -0.0118
   8123SM    NF10728   5.256   4.456   3.261 -0.1064  0.6309  0.3970
   8123SM   HNF10729   5.353   4.478   3.255 -0.1484  0.9469  0.8819
   8123SM   C2S10730   5.219   4.333   3.196 -0.2343  0.7634  0.2839
   8123SM   H2S10731   5.121   4.301   3.239  0.3746 -0.0333  1.1235
   8123SM   C3S10732   5.320   4.214   3.222 -0.3265  0.1742  0.1009
   8123SM   H3S10733   5.423   4.250   3.199 -0.7555  1.9196  0.7065
   8123SM    O310734   5.309   4.102   3.135 -0.2762  0.3753  0.5252
   8123SM   HO310735   5.232   4.119   3.081 -0.9066 -1.8246  0.6577
   8123SM   C4S10736   5.310   4.172   3.366  0.1474  0.3582  0.0295
   8123SM   H4S10737   5.221   4.113   3.392  0.9133 -0.3148  1.2426
   8123SM   C5S10738   5.404   4.183   3.460  0.3984 -0.4596 -0.4412
   8123SM   H5S10739   5.497   4.232   3.427 -0.9695  4.1036  1.6606
   8123SM   C6S10740   5.411   4.129   3.600  0.3032 -0.1678 -0.2026
   8123SM   H6S10741   5.517   4.123   3.632  0.6602 -2.9126 -1.6195
   8123SM   H6T10742   5.377   4.024   3.590  1.2498 -0.3543 -1.6439
   8123SM   C7S10743   5.334   4.201   3.702  0.6933 -0.2258 -0.1270
   8123SM   H7S10744   5.229   4.214   3.668  0.5490 -0.2311  0.3098
   8123SM   H7T10745   5.382   4.301   3.714  0.4699 -0.2573  1.1918
   8123SM   C8S10746   5.325   4.130   3.838  0.1668  0.2665  0.2243
   8123SM   H8S10747   5.416   4.077   3.871 -0.9620 -0.2236  2.8479
   8123SM   H8T10748   5.256   4.044   3.821  0.9915 -0.1283 -1.2279
   8123SM   C9S10749   5.276   4.219   3.950  0.2656 -0.1690  0.0599
   8123SM   H9S10750   5.183   4.275   3.925  1.1942  0.8891 -1.1745
   8123SM   H9T10751   5.342   4.308   3.959  0.2763 -0.1781  0.0732
   8123SM  C10S10752   5.265   4.149   4.086  0.1144 -0.0436  0.2849
   8123SM  H10S10753   5.361   4.096   4.101 -0.0240 -0.0900  1.0915
   8123SM  H10T10754   5.185   4.073   4.098  1.0977 -0.9268  1.5040
   8123SM  C11S10755   5.249   4.257   4.189  0.5295 -0.1022  0.1618
   8123SM  H11S10756   5.146   4.297   4.174 -0.5790 -2.6648  0.4614
   8123SM  H11T10757   5.321   4.341   4.181 -1.4058  1.7070  0.8657
   8123SM  C12S10758   5.267   4.201   4.332 -0.1482 -0.8830  0.2841
   8123SM  H12S10759   5.376   4.184   4.348  0.1297  0.1438 -0.4223
   8123SM  H12T10760   5.208   4.107   4.340 -0.9537 -0.2862  1.8369
   8123SM  C13S10761   5.221   4.303   4.433  0.4588 -0.5655  0.2875
   8123SM  H13S10762   5.115   4.330   4.412  0.3594 -0.5711  0.7744
   8123SM  H13T10763   5.283   4.395   4.425 -1.7690  0.8963 -2.0397
   8123SM  C14S10764   5.224   4.255   4.579 -1.0873  0.0601 -0.3430
   8123SM  H14S10765   5.194   4.334   4.651  1.2185 -0.0407  0.8396
   8123SM  H14T10766   5.331   4.239   4.603 -0.7752  0.0057 -1.6898
   8123SM  C15S10767   5.140   4.135   4.609 -0.1775 -1.0050 -0.0767
   8123SM  H15S10768   5.187   4.037   4.585  2.2983 -0.0276  0.4788
   8123SM  H15T10769   5.041   4.136   4.558 -1.6867 -0.5016  2.6537
   8123SM  C16S10770   5.085   4.121   4.751  0.4037 -0.6667  0.9355
   8123SM  H16S10771   5.026   4.211   4.777  3.2609  1.2085  1.4602
   8123SM  H16T10772   5.175   4.125   4.817  1.9744  0.0864 -1.1390
   8123SM  C17S10773   5.008   3.986   4.791  0.5688 -0.8166 -0.5454
   8123SM  H17S10774   4.973   3.991   4.896 -2.0431 -1.4643 -1.3037
   8123SM  H17T10775   5.085   3.907   4.779  0.0259 -1.2762 -1.0981
   8123SM  C18S10776   4.893   3.943   4.696 -0.6128  0.2014  0.3741
   8123SM  H18S10777   4.820   3.871   4.739  1.7304 -3.5756 -1.4318
   8123SM  H18T10778   4.948   3.895   4.613  0.5718 -0.7335  1.6561
   8123SM  H18U10779   4.853   4.034   4.647  0.0071  0.3386  0.1136
   8123SM   C1F10780   5.174   4.554   3.300  0.3720 -0.5005  0.4603
   8123SM    OF10781   5.059   4.565   3.258 -0.1550  0.3339  0.2766
   8123SM   C2F10782   5.230   4.652   3.406 -0.3704 -0.1410  0.5401
   8123SM   H2F10783   5.340   4.649   3.387 -0.7570 -3.2894 -2.1715
   8123SM   H2G10784   5.216   4.602   3.504 -0.2110 -0.1576  0.5551
   8123SM   C3F10785   5.180   4.796   3.400  0.1478  0.3767  0.7017
   8123SM   H3F10786   5.070   4.814   3.395  0.5352  3.2283  0.7085
   8123SM   H3G10787   5.228   4.838   3.309  0.8127 -1.4057  0.1859
   8123SM   C4F10788   5.229   4.879   3.519  0.1265 -0.3683  0.0684
   8123SM   H4F10789   5.218   4.988   3.500 -0.4017 -0.1395  1.5867
   8123SM   H4G10790   5.339   4.867   3.524  0.2642  1.1532  1.5485
   8123SM   C5F10791   5.156   4.866   3.648  0.0548  0.0704 -0.5322
   8123SM   H5F10792   5.154   4.759   3.681  2.0864  0.6099  1.6678
   8123SM   H5G10793   5.048   4.892   3.646 -0.1997 -0.8517  0.0448
   8123SM   C6F10794   5.221   4.937   3.775 -0.0582 -0.6692 -0.1627
   8123SM   H6F10795   5.207   5.047   3.776  0.4990 -0.5931  1.1152
   8123SM   H6G10796   5.331   4.922   3.778  0.0040 -0.1441  0.1779
   8123SM   C7F10797   5.168   4.881   3.907  0.0573 -0.1419  0.5263
   8123SM   H7F10798   5.202   4.776   3.917  0.4423 -0.0711 -0.0247
   8123SM   H7G10799   5.057   4.889   3.915  0.1255 -0.1385  1.7754
   8123SM   C8F10800   5.231   4.956   4.026  0.0204 -0.6503 -0.3486
   8123SM   H8F10801   5.206   5.064   4.013  0.0781 -0.4223  1.2807
   8123SM   H8G10802   5.341   4.948   4.025  0.1992  1.3563  0.0654
   8123SM   C9F10803   5.168   4.909   4.160 -0.6373 -0.4844 -0.2331
   8123SM   H9F10804   5.154   4.799   4.170  0.4096 -0.7611 -1.4526
   8123SM   H9G10805   5.066   4.952   4.166 -0.1123  0.6950  0.5325
   8123SM  C10F10806   5.252   4.957   4.284  0.1728 -0.6438 -0.0960
   8123SM  H10F10807   5.253   5.068   4.290  1.7632 -0.5054 -1.9431
   8123SM  H10G10808   5.355   4.922   4.263  0.4815  0.4258 -0.4449
   8123SM  C11F10809   5.197   4.912   4.421  0.6850 -0.5426  0.0661
   8123SM  H11F10810   5.205   4.801   4.422 -0.1738 -0.6039  0.9152
   8123SM  H11G10811   5.089   4.938   4.422  0.9313  0.5047  1.8228
   8123SM  C12F10812   5.267   4.970   4.548  0.0690 -0.1418  0.7249
   8123SM  H12F10813   5.256   5.081   4.546  0.5802 -0.0929 -0.3463
   8123SM  H12G10814   5.372   4.934   4.551  0.6633  1.5793  2.2501
   8123SM  C13F10815   5.198   4.926   4.673 -0.1586  0.1618  0.5256
   8123SM  H13F10816   5.199   4.816   4.665 -1.6273  0.1668  0.0038
   8123SM  H13G10817   5.098   4.973   4.675  0.1969  0.9416  0.4501
   8123SM  C14F10818   5.282   4.968   4.794  0.4487  0.0669  0.3638
   8123SM  H14F10819   5.332   5.060   4.757 -1.7282  0.4901 -1.7993
   8123SM  H14G10820   5.362   4.893   4.814  1.5310  1.2065  0.4262
   8123SM  C15F10821   5.210   4.980   4.928 -0.2593 -0.4739  0.1821
   8123SM  H15F10822   5.145   4.891   4.936 -0.4022 -0.3696  0.1905
   8123SM  H15G10823   5.146   5.071   4.925 -0.4489 -0.6355 -1.7808
   8123SM  C16F10824   5.304   5.000   5.053  0.0358  0.4015  0.8581
   8123SM  H16F10825   5.348   5.102   5.052  0.1599  0.3542 -0.4486
   8123SM  H16G10826   5.385   4.923   5.057 -0.7815 -0.4619  1.2075
   8123SM  C17F10827   5.215   4.990   5.182  0.4042  0.3962 -0.7146
   8123SM  H17F10828   5.171   4.887   5.182  0.3891  0.2894  2.4991
   8123SM  H17G10829   5.133   5.064   5.171  0.1801  0.5159  1.3162
   8123SM  C18F10830   5.297   5.013   5.306 -0.0847  0.3840  0.7229
   8123SM  H18F10831   5.360   5.102   5.289  0.1206  0.1212  0.0851
   8123SM  H18G10832   5.369   4.928   5.319  1.8308  2.0760  1.8073
   8123SM  C19F10833   5.223   5.046   5.435  0.4629  0.0304  0.3225
   8123SM  H19F10834   5.277   5.029   5.531  0.8648 -0.3265  0.0356
   8123SM  H19G10835   5.151   4.961   5.442  0.0903  0.4382  1.7104
   8123SM  C20F10836   5.136   5.172   5.440 -0.4305 -0.1888  0.1433
   8123SM  H20F10837   5.080   5.171   5.344 -0.6282  3.9347  0.0456
   8123SM  H20G10838   5.191   5.268   5.430 -0.4607 -0.3291 -2.0392
   8123SM  C21F10839   5.031   5.180   5.558  0.4745 -0.1708  0.6780
   8123SM  H21F10840   4.984   5.079   5.564  0.1503 -0.2294 -1.8993
   8123SM  H21G10841   4.957   5.249   5.513  0.4605 -0.6932 -0.1119
   8123SM  C22F10842   5.084   5.241   5.691 -0.8056 -0.0806 -0.0379
   8123SM  H22F10843   5.179   5.187   5.713 -0.0830  0.8113 -0.8411
   8123SM  H22G10844   5.019   5.230   5.780 -1.2470 -0.2451 -0.3775
   8123SM  C23F10845   5.139   5.384   5.693 -0.2685 -0.5097  0.0910
   8123SM  H23F10846   5.214   5.391   5.611  0.0914  0.7509  0.5128
   8123SM  H23G10847   5.190   5.430   5.780  0.1887 -0.9670  0.0712
   8123SM  H23H10848   5.051   5.443   5.662  0.0746  0.0008  0.0732
   8223SM     N10849   5.330   5.537   2.841 -0.3639  0.4414  0.3485
   8223SM   C1510850   5.294   5.532   2.695 -0.1080  0.3488  0.0856
   8223SM  H15A10851   5.189   5.509   2.681 -0.0988  0.7535 -0.7030
   8223SM  H15B10852   5.353   5.454   2.648 -0.2435  0.8992 -1.0228
   8223SM  H15C10853   5.299   5.630   2.651 -1.6107  0.5203  0.2404
   8223SM   C1410854   5.459   5.614   2.849 -0.4779  0.4536  0.2077
   8223SM  H14A10855   5.503   5.629   2.947  2.0192 -0.7319 -0.6332
   8223SM  H14B10856   5.441   5.716   2.819  0.7131  0.4121 -0.7509
   8223SM  H14C10857   5.537   5.584   2.780  2.8808  0.1503  3.7458
   8223SM   C1310858   5.220   5.610   2.911  0.6320  0.1037  0.3287
   8223SM  H13A10859   5.259   5.653   3.002  1.8069 -1.0519  0.4058
   8223SM  H13B10860   5.138   5.541   2.928 -0.0704  0.5354 -1.0961
   8223SM  H13C10861   5.174   5.685   2.848 -0.2224  0.3556  1.2290
   8223SM   C1210862   5.339   5.396   2.900 -0.0356 -0.1724  0.0874
   8223SM  H12A10863   5.254   5.335   2.875  0.3520  0.1967 -2.4563
   8223SM  H12B10864   5.352   5.409   3.006  1.7431  0.7931 -0.2080
   8223SM   C1110865   5.470   5.324   2.858 -0.4535  0.4374  0.1596
   8223SM  H11A10866   5.549   5.360   2.927  0.1120 -0.3849 -0.0583
   8223SM  H11B10867   5.515   5.332   2.757  0.0120 -0.2248  0.3122
   8223SM     P10868   5.450   5.128   3.034  0.1614  0.3102 -0.0374
   8223SM   O1310869   5.318   5.063   3.043  0.4975  0.5952  0.1715
   8223SM   O1410870   5.570   5.044   3.058  0.4487 -0.6633 -0.3723
   8223SM   O1110871   5.457   5.262   3.128  0.7241 -0.8739 -0.4183
   8223SM   O1210872   5.458   5.185   2.889 -0.2558  0.3893 -0.3889
   8223SM   C1S10873   5.365   5.281   3.236 -0.7368 -0.3214  0.1818
   8223SM   H1S10874   5.260   5.274   3.201 -0.7976  1.9098 -0.2486
   8223SM   H1T10875   5.367   5.389   3.262  0.8771 -0.2319 -0.1934
   8223SM    NF10876   5.306   5.262   3.462 -0.0998 -0.1648 -0.0427
   8223SM   HNF10877   5.343   5.323   3.531  0.8966  1.3789 -1.8526
   8223SM   C2S10878   5.395   5.207   3.369 -0.1183  0.5286  0.8690
   8223SM   H2S10879   5.382   5.098   3.355 -3.5610  0.7392  1.5998
   8223SM   C3S10880   5.545   5.226   3.412 -0.0925  0.9844  0.2796
   8223SM   H3S10881   5.555   5.331   3.448  2.0416 -0.0527  3.0200
   8223SM    O310882   5.649   5.214   3.313 -0.0508  0.3515 -0.6217
   8223SM   HO310883   5.602   5.188   3.234 -1.2677  2.0978 -0.5184
   8223SM   C4S10884   5.583   5.141   3.531  0.1238 -0.0075  0.6083
   8223SM   H4S10885   5.552   5.200   3.619 -0.6535  0.4362  0.0524
   8223SM   C5S10886   5.651   5.019   3.537 -0.4209 -0.7572  0.0476
   8223SM   H5S10887   5.691   4.970   3.447 -0.5155 -1.4931  0.3990
   8223SM   C6S10888   5.679   4.958   3.671 -0.0616 -0.0075 -0.2909
   8223SM   H6S10889   5.789   4.960   3.683 -0.1723  1.1538  0.6514
   8223SM   H6T10890   5.643   4.853   3.681 -0.8021  0.0860 -1.6457
   8223SM   C7S10891   5.632   5.032   3.794  0.7449 -0.1341 -0.2044
   8223SM   H7S10892   5.522   5.042   3.786  0.6655 -1.6012 -1.3346
   8223SM   H7T10893   5.674   5.135   3.797  0.7941  0.0928 -3.9489
   8223SM   C8S10894   5.671   4.958   3.917  0.9937  0.4653 -0.1935
   8223SM   H8S10895   5.782   4.949   3.914  1.1686  2.2922 -0.6715
   8223SM   H8T10896   5.626   4.857   3.923 -1.0818  1.4010  1.1152
   8223SM   C9S10897   5.640   5.031   4.043 -0.0613 -0.4658 -0.2411
   8223SM   H9S10898   5.529   5.039   4.039  0.0877  4.0753 -0.2344
   8223SM   H9T10899   5.675   5.135   4.028  3.2923 -1.4840 -0.2511
   8223SM  C10S10900   5.703   4.970   4.166 -0.3381 -0.4654  0.4628
   8223SM  H10S10901   5.811   4.952   4.148  0.2486  2.8673  0.0613
   8223SM  H10T10902   5.660   4.868   4.176 -0.8323 -0.1202  2.3731
   8223SM  C11S10903   5.695   5.060   4.294 -0.6591  0.2542  0.1260
   8223SM  H11S10904   5.587   5.071   4.316 -0.4684  2.1917  0.2735
   8223SM  H11T10905   5.738   5.160   4.273  1.4337 -0.5433  0.3008
   8223SM  C12S10906   5.766   5.004   4.412  0.1756  0.1934  0.3551
   8223SM  H12S10907   5.870   5.044   4.412 -1.0801  3.8421  1.1518
   8223SM  H12T10908   5.769   4.894   4.406 -0.7207  0.1739  0.0474
   8223SM  C13S10909   5.704   5.055   4.546  0.1572  0.1770 -0.9859
   8223SM  H13S10910   5.596   5.030   4.534  0.3833 -0.6772 -1.3377
   8223SM  H13T10911   5.732   5.162   4.549  2.5267 -0.4123 -0.3417
   8223SM  C14S10912   5.761   4.979   4.673  0.3586 -0.0719  0.3190
   8223SM  H14S10913   5.769   4.868   4.669  0.0003 -0.0670 -2.1702
   8223SM  H14T10914   5.697   4.995   4.763  1.8205  0.0940  1.3571
   8223SM  C15S10915   5.900   5.021   4.711  0.4720 -0.3241  0.0642
   8223SM  H15S10916   5.906   5.129   4.737 -2.4672  0.2546 -1.2415
   8223SM  H15T10917   5.966   5.001   4.623 -1.1181  1.4204 -1.6259
   8223SM  C16S10918   5.949   4.950   4.838 -0.3422 -0.8876 -0.1224
   8223SM  H16S10919   5.947   4.840   4.821  2.1018 -0.9401 -0.4411
   8223SM  H16T10920   5.875   4.969   4.919 -1.2500  1.2270 -1.3723
   8223SM  C17S10921   6.094   4.987   4.875 -0.4069 -0.0283 -0.6699
   8223SM  H17S10922   6.102   5.091   4.915 -1.1116 -0.4022  0.5210
   8223SM  H17T10923   6.166   4.974   4.792 -0.2839  1.3259 -0.8033
   8223SM  C18S10924   6.132   4.885   4.985  0.1855 -0.9240  0.1461
   8223SM  H18S10925   6.068   4.893   5.075  1.0114 -1.7519  0.8291
   8223SM  H18T10926   6.241   4.892   5.006  0.3300  0.0695 -0.8474
   8223SM  H18U10927   6.113   4.784   4.943 -2.1329 -1.3132  1.8990
   8223SM   C1F10928   5.174   5.246   3.461  0.2258  0.3260 -0.8158
   8223SM    OF10929   5.116   5.193   3.365  0.3807  0.4342 -0.3985
   8223SM   C2F10930   5.102   5.289   3.586 -0.4742  0.1083 -0.0528
   8223SM   H2F10931   5.122   5.398   3.601 -0.1146 -0.1995  1.9708
   8223SM   H2G10932   5.155   5.235   3.666  1.7636  1.6626 -0.3855
   8223SM   C3F10933   4.956   5.256   3.584  0.4533 -0.4227  0.0453
   8223SM   H3F10934   4.943   5.150   3.552 -1.7575 -0.7134  1.6652
   8223SM   H3G10935   4.911   5.308   3.497  0.6118 -0.9929 -0.3858
   8223SM   C4F10936   4.873   5.276   3.714  0.3450 -0.1724 -0.3245
   8223SM   H4F10937   4.773   5.234   3.691  1.0687  0.0669 -4.6525
   8223SM   H4G10938   4.869   5.384   3.740  2.0142 -0.3443  0.7817
   8223SM   C5F10939   4.928   5.213   3.843  0.6739  0.3390  0.7820
   8223SM   H5F10940   5.033   5.238   3.869 -0.1356  2.5505  2.1646
   8223SM   H5G10941   4.923   5.103   3.827  0.2832  0.5094 -0.3630
   8223SM   C6F10942   4.841   5.247   3.963 -0.6143  0.0850  0.0802
   8223SM   H6F10943   4.744   5.193   3.958 -1.5013  1.4133  1.7538
   8223SM   H6G10944   4.827   5.357   3.968 -2.2772 -0.0802 -0.1626
   8223SM   C7F10945   4.910   5.211   4.094 -0.2326  0.4594 -0.2807
   8223SM   H7F10946   5.008   5.260   4.113  1.0438 -1.8075 -0.7206
   8223SM   H7G10947   4.922   5.101   4.091 -0.1061  0.4924 -2.3870
   8223SM   C8F10948   4.820   5.239   4.226  0.0879  0.3243 -0.5123
   8223SM   H8F10949   4.821   5.348   4.249 -0.4043  0.3570 -0.6306
   8223SM   H8G10950   4.860   5.180   4.311 -1.3102 -0.6101 -0.4743
   8223SM   C9F10951   4.672   5.197   4.218  0.6057 -0.4434 -0.5870
   8223SM   H9F10952   4.680   5.086   4.218  2.4279 -0.3709  0.6542
   8223SM   H9G10953   4.627   5.240   4.126 -0.7985  1.2174  0.8106
   8223SM  C10F10954   4.604   5.233   4.351  0.5369  0.2389  0.3694
   8223SM  H10F10955   4.665   5.193   4.435  0.2908  0.4443  0.6517
   8223SM  H10G10956   4.505   5.182   4.355  0.3197  0.4741 -1.4752
   8223SM  C11F10957   4.587   5.388   4.368  0.0314 -0.1937  0.4644
   8223SM  H11F10958   4.522   5.423   4.285  1.6057  1.9218  0.0405
   8223SM  H11G10959   4.684   5.438   4.351 -0.9718  1.4368 -0.8047
   8223SM  C12F10960   4.511   5.422   4.496  0.0709 -0.0369  0.4114
   8223SM  H12F10961   4.571   5.400   4.587  0.2242  0.6792  0.4922
   8223SM  H12G10962   4.416   5.363   4.491 -0.4581  0.6500  1.8203
   8223SM  C13F10963   4.470   5.574   4.485 -0.3936  1.0303 -0.3746
   8223SM  H13F10964   4.432   5.590   4.381  1.6226 -0.1083 -1.3481
   8223SM  H13G10965   4.556   5.641   4.504 -0.7484  1.2996  0.2867
   8223SM  C14F10966   4.365   5.617   4.587 -0.7161  0.3338  0.2081
   8223SM  H14F10967   4.415   5.612   4.686 -0.7098 -0.8562  0.1687
   8223SM  H14G10968   4.273   5.555   4.593  0.4603 -1.3751  1.9988
   8223SM  C15F10969   4.329   5.763   4.563 -0.0280 -0.5215 -0.9580
   8223SM  H15F10970   4.297   5.785   4.458 -0.1649  0.9284 -0.6339
   8223SM  H15G10971   4.411   5.834   4.586 -0.0791 -0.7657  0.0223
   8223SM  C16F10972   4.206   5.804   4.645 -0.1078 -0.2391  0.3982
   8223SM  H16F10973   4.127   5.726   4.645  0.0679 -0.4395  1.3657
   8223SM  H16G10974   4.165   5.892   4.591  1.6974 -0.2853 -1.1278
   8223SM  C17F10975   4.253   5.864   4.781 -0.2750  0.4408 -0.3106
   8223SM  H17F10976   4.342   5.930   4.788 -0.5840  0.6983  1.6867
   8223SM  H17G10977   4.280   5.784   4.853  1.1407  0.6066 -0.6362
   8223SM  C18F10978   4.140   5.936   4.852  0.1707  0.2750  0.1832
   8223SM  H18F10979   4.047   5.876   4.852 -1.9084  3.2425 -1.3206
   8223SM  H18G10980   4.104   6.023   4.794  0.2003 -0.8707 -1.6249
   8223SM  C19F10981   4.186   5.969   4.990 -0.4778 -0.1663  0.0428
   8223SM  H19F10982   4.249   6.058   5.007 -1.8628  0.5180  1.9857
   8223SM  H19G10983   4.242   5.888   5.043 -2.2433 -0.9027  0.8789
   8223SM  C20F10984   4.071   5.976   5.093  0.1335  0.2167 -0.0862
   8223SM  H20F10985   4.108   5.977   5.197  1.2785  1.2875 -0.4840
   8223SM  H20G10986   4.009   5.883   5.085  0.0977  0.2659 -0.4135
   8223SM  C21F10987   3.974   6.092   5.067  0.0519 -0.5062 -0.3908
   8223SM  H21F10988   3.929   6.085   4.965 -0.0255 -1.4046 -0.3029
   8223SM  H21G10989   4.036   6.184   5.074 -0.0181 -0.4718 -0.2162
   8223SM  C22F10990   3.854   6.097   5.162  0.1778 -0.4734  0.3487
   8223SM  H22F10991   3.885   6.100   5.269 -1.3756 -0.2094  0.8249
   8223SM  H22G10992   3.791   6.006   5.157  0.4322 -0.6393  0.1681
   8223SM  C23F10993   3.771   6.220   5.128 -0.6073  0.1503  0.7789
   8223SM  H23F10994   3.697   6.238   5.209 -1.1052 -1.2259  0.6519
   8223SM  H23G10995   3.716   6.201   5.033  1.8525 -1.8304 -0.3638
   8223SM  H23H10996   3.835   6.311   5.120  1.5058 -1.2713  0.8893
   8323SM     N10997   5.727   4.144   2.866  0.1384  0.1364  0.6189
   8323SM   C1510998   5.792   4.247   2.780  0.4569  0.2243 -0.3959
   8323SM  H15A10999   5.771   4.350   2.804  0.9429  0.5022 -1.1196
   8323SM  H15B11000   5.769   4.229   2.676 -0.4111  0.2445 -0.2210
   8323SM  H15C11001   5.899   4.236   2.787  0.4401  0.4511  0.2902
   8323SM   C1411002   5.590   4.103   2.814  0.4491 -0.2987 -0.2483
   8323SM  H14A11003   5.560   4.009   2.859  0.9677 -1.0486 -1.4156
   8323SM  H14B11004   5.590   4.087   2.707  0.1386 -0.0622 -0.2838
   8323SM  H14C11005   5.518   4.179   2.840  0.4912 -0.0231 -0.9269
   8323SM   C1311006   5.808   4.018   2.876 -0.6107 -0.3954  0.1386
   8323SM  H13A11007   5.911   4.030   2.905 -0.1821 -0.5220 -1.2349
   8323SM  H13B11008   5.808   3.964   2.782  0.0697  0.1361 -0.1753
   8323SM  H13C11009   5.766   3.953   2.952 -2.4791 -0.8718 -1.2292
   8323SM   C1211010   5.723   4.200   3.011 -0.6162 -0.6869 -0.0579
   8323SM  H12A11011   5.825   4.230   3.027 -1.0603  0.2803  1.0863
   8323SM  H12B11012   5.692   4.119   3.077  0.8837 -0.4151  1.0353
   8323SM   C1111013   5.634   4.326   3.039  0.0912  0.6996  0.0710
   8323SM  H11A11014   5.632   4.341   3.149  1.1708  0.7805  0.0989
   8323SM  H11B11015   5.531   4.306   3.002  1.1189 -2.3501 -1.5283
   8323SM     P11016   5.800   4.515   3.046 -0.0271 -0.0900 -0.1320
   8323SM   O1311017   5.919   4.433   3.070 -0.0474 -0.7781  0.0237
   8323SM   O1411018   5.830   4.640   2.974 -0.6482 -0.1161 -0.0427
   8323SM   O1111019   5.736   4.565   3.192  0.1842  0.0267 -0.2844
   8323SM   O1211020   5.700   4.435   2.968  0.6158  0.3584 -0.1177
   8323SM   C1S11021   5.824   4.550   3.299 -0.4184 -0.3564 -0.3051
   8323SM   H1S11022   5.912   4.615   3.279  2.5462 -4.1403 -0.5981
   8323SM   H1T11023   5.859   4.446   3.310 -1.1642 -0.4706  1.3264
   8323SM    NF11024   5.871   4.613   3.530  0.3646  0.0666  0.1016
   8323SM   HNF11025   5.891   4.540   3.596  0.3007 -1.3552 -1.3922
   8323SM   C2S11026   5.766   4.598   3.434  0.0413 -0.0582  0.4752
   8323SM   H2S11027   5.716   4.694   3.409 -2.0100 -1.4383 -1.0318
   8323SM   C3S11028   5.652   4.499   3.473  0.0203 -0.8865 -0.1105
   8323SM   H3S11029   5.696   4.396   3.471  1.2235 -0.3830 -0.8427
   8323SM    O311030   5.543   4.488   3.383 -0.0919 -0.2875  0.0129
   8323SM   HO311031   5.559   4.549   3.311 -2.0465 -0.3220 -0.5082
   8323SM   C4S11032   5.605   4.522   3.614 -0.1116 -0.6583 -0.3980
   8323SM   H4S11033   5.627   4.446   3.690  1.1531 -0.0882 -0.1776
   8323SM   C5S11034   5.519   4.616   3.646  0.0555  0.5899 -0.0685
   8323SM   H5S11035   5.478   4.683   3.569  2.5384  1.2837 -0.8640
   8323SM   C6S11036   5.463   4.632   3.786 -0.4924 -0.2317 -0.6254
   8323SM   H6S11037   5.358   4.598   3.797 -0.3312 -0.1924  1.5946
   8323SM   H6T11038   5.449   4.742   3.799  2.5663  0.2516 -0.6562
   8323SM   C7S11039   5.550   4.591   3.909  0.5291  0.3639 -0.2158
   8323SM   H7S11040   5.651   4.638   3.902  0.8790 -0.0417  1.6378
   8323SM   H7T11041   5.567   4.482   3.916  0.2666  0.3934  1.0568
   8323SM   C8S11042   5.483   4.632   4.044 -0.4329 -0.3539 -0.0947
   8323SM   H8S11043   5.387   4.577   4.046  0.9736 -3.0297 -0.7358
   8323SM   H8T11044   5.458   4.740   4.044  0.9401 -0.0023 -0.8605
   8323SM   C9S11045   5.561   4.587   4.172 -0.3093 -0.3605  0.5251
   8323SM   H9S11046   5.665   4.622   4.185  0.2083 -0.4893 -2.5505
   8323SM   H9T11047   5.592   4.481   4.161  0.4939  0.0282 -1.4572
   8323SM  C10S11048   5.482   4.610   4.305 -0.1242 -0.3242 -0.0140
   8323SM  H10S11049   5.387   4.554   4.291  0.5278 -1.3784 -0.3591
   8323SM  H10T11050   5.461   4.717   4.325  0.8767 -0.2983  0.9869
   8323SM  C11S11051   5.568   4.554   4.414 -0.3679  0.5193  0.5512
   8323SM  H11S11052   5.676   4.579   4.410  0.0746 -1.3403 -2.3055
   8323SM  H11T11053   5.571   4.443   4.413  2.3431  0.5284 -0.4229
   8323SM  C12S11054   5.517   4.600   4.552 -0.5228  0.4067 -0.1013
   8323SM  H12S11055   5.415   4.556   4.547  0.4356 -2.2283  1.1115
   8323SM  H12T11056   5.526   4.710   4.565  2.0527  0.0487  2.4817
   8323SM  C13S11057   5.592   4.536   4.670  0.0960  0.4840 -0.2907
   8323SM  H13S11058   5.702   4.549   4.674 -0.0256  1.2342  1.8059
   8323SM  H13T11059   5.571   4.427   4.658  0.6125  0.4668 -1.1696
   8323SM  C14S11060   5.522   4.579   4.801  0.0910  0.4848 -0.1240
   8323SM  H14S11061   5.412   4.570   4.789  0.2491  0.5850 -1.7673
   8323SM  H14T11062   5.530   4.689   4.818 -0.0881  0.6060 -0.7999
   8323SM  C15S11063   5.570   4.503   4.923  0.2467 -0.2465  0.8178
   8323SM  H15S11064   5.677   4.526   4.944  0.1948  1.2367 -0.3273
   8323SM  H15T11065   5.554   4.397   4.894 -1.6748  0.1707  0.2190
   8323SM  C16S11066   5.483   4.540   5.039  0.0670 -0.5825  0.1495
   8323SM  H16S11067   5.380   4.513   5.009 -0.1609  2.7388 -2.5925
   8323SM  H16T11068   5.493   4.649   5.058  1.9670 -0.4532 -1.2936
   8323SM  C17S11069   5.511   4.462   5.173 -0.5154  0.7477  0.1465
   8323SM  H17S11070   5.454   4.511   5.255 -0.7620 -1.7276  1.5577
   8323SM  H17T11071   5.621   4.465   5.185 -0.1679 -0.2598 -2.2120
   8323SM  C18S11072   5.478   4.313   5.198  0.1414 -0.1107  0.3025
   8323SM  H18S11073   5.372   4.306   5.230  0.5984 -0.1648  1.8974
   8323SM  H18T11074   5.541   4.263   5.275 -0.9707 -2.6210 -0.3424
   8323SM  H18U11075   5.495   4.260   5.102 -0.2450 -1.2792  0.8655
   8323SM   C1F11076   5.958   4.717   3.529 -0.3926  0.3674  0.3376
   8323SM    OF11077   5.934   4.809   3.451 -0.6859  0.3528  0.0897
   8323SM   C2F11078   6.066   4.706   3.631  0.3717 -0.2603 -0.1961
   8323SM   H2F11079   6.155   4.677   3.572  0.4660  1.5227 -1.0036
   8323SM   H2G11080   6.045   4.623   3.702 -1.3935 -1.7882 -2.3703
   8323SM   C3F11081   6.087   4.842   3.694 -1.0796 -0.1003  0.3914
   8323SM   H3F11082   5.991   4.896   3.706 -1.2530 -0.2007 -0.4502
   8323SM   H3G11083   6.130   4.909   3.616 -0.6936 -2.2656 -1.3596
   8323SM   C4F11084   6.174   4.841   3.821 -0.2969  0.0263  0.4405
   8323SM   H4F11085   6.235   4.932   3.840  0.0665 -0.3514  1.0862
   8323SM   H4G11086   6.241   4.753   3.819  1.3291  1.2433  0.0266
   8323SM   C5F11087   6.086   4.823   3.942  0.2324 -0.3828 -0.0463
   8323SM   H5F11088   6.042   4.722   3.930 -0.4133  0.1033 -2.1964
   8323SM   H5G11089   6.001   4.894   3.945  0.5474  0.0040 -0.1117
   8323SM   C6F11090   6.168   4.817   4.075  0.0557  0.2302 -0.1802
   8323SM   H6F11091   6.225   4.912   4.077 -0.9083  0.9831 -3.4393
   8323SM   H6G11092   6.228   4.724   4.064 -1.4243 -0.6642 -1.0001
   8323SM   C7F11093   6.082   4.807   4.199  0.1245  0.2079  0.0713
   8323SM   H7F11094   5.998   4.877   4.181 -1.1659 -0.9387  1.4056
   8323SM   H7G11095   6.139   4.852   4.284 -1.5503 -0.0215  1.3562
   8323SM   C8F11096   6.027   4.669   4.225 -0.2826  0.0778 -0.1011
   8323SM   H8F11097   6.106   4.599   4.189  0.4833  1.2064 -0.6732
   8323SM   H8G11098   5.934   4.653   4.166 -2.1742  0.0319  2.6951
   8323SM   C9F11099   5.993   4.625   4.370 -0.2044 -0.2181  0.2281
   8323SM   H9F11100   5.960   4.519   4.370  0.5324 -0.4561  0.6154
   8323SM   H9G11101   5.915   4.691   4.413  0.0540  1.0375 -1.1343
   8323SM  C10F11102   6.111   4.653   4.458  0.0292  0.0203 -0.3570
   8323SM  H10F11103   6.124   4.762   4.471  0.1264 -0.0800  0.4796
   8323SM  H10G11104   6.206   4.614   4.416 -0.0589  0.0997 -0.6299
   8323SM  C11F11105   6.108   4.590   4.601 -0.3290  0.0410  0.4737
   8323SM  H11F11106   6.005   4.603   4.641 -1.5391  0.1270 -2.4205
   8323SM  H11G11107   6.177   4.651   4.662  0.3374  0.8842 -1.0735
   8323SM  C12F11108   6.159   4.442   4.603 -0.3181  0.1805 -0.2582
   8323SM  H12F11109   6.253   4.434   4.545  0.0976  0.5032  0.3648
   8323SM  H12G11110   6.085   4.384   4.543  1.6293 -0.9562 -1.6589
   8323SM  C13F11111   6.174   4.383   4.745  0.0617  0.5898 -0.1915
   8323SM  H13F11112   6.257   4.443   4.786 -0.7795  0.5085  1.7140
   8323SM  H13G11113   6.203   4.276   4.739 -0.5493  0.4459 -0.7279
   8323SM  C14F11114   6.050   4.400   4.842  0.2442  0.4284 -0.2159
   8323SM  H14F11115   5.965   4.335   4.814  1.5584 -1.0678 -0.8944
   8323SM  H14G11116   6.011   4.504   4.837 -0.2741  0.2917  0.7437
   8323SM  C15F11117   6.093   4.362   4.982 -0.3126  0.3262 -0.3783
   8323SM  H15F11118   6.160   4.438   5.028  2.6176 -1.8717 -0.7298
   8323SM  H15G11119   6.141   4.265   4.960  1.2137  0.9052  0.2686
   8323SM  C16F11120   5.972   4.346   5.081  0.3699  0.0834 -0.2435
   8323SM  H16F11121   5.879   4.335   5.022  0.0578 -1.6956  0.5351
   8323SM  H16G11122   5.954   4.444   5.131  0.8230  0.9577 -1.7442
   8323SM  C17F11123   5.972   4.234   5.190 -0.3767  0.5564 -0.5820
   8323SM  H17F11124   5.946   4.134   5.147  0.0897 -0.2395  0.9048
   8323SM  H17G11125   5.894   4.247   5.268 -0.5883  0.3237 -0.7499
   8323SM  C18F11126   6.107   4.219   5.265 -0.1866  0.0041 -0.1107
   8323SM  H18F11127   6.159   4.317   5.273  1.9257 -0.8964 -1.6261
   8323SM  H18G11128   6.178   4.158   5.205 -1.1574 -1.6773  0.3806
   8323SM  C19F11129   6.094   4.138   5.396  1.0770  0.1343  0.5443
   8323SM  H19F11130   6.014   4.180   5.461  1.3716  1.6308 -0.0036
   8323SM  H19G11131   6.192   4.152   5.447  2.2892  1.2443 -1.9052
   8323SM  C20F11132   6.073   3.989   5.385 -0.7051 -0.4230  0.2508
   8323SM  H20F11133   6.154   3.945   5.323  0.0527  1.3468 -0.0675
   8323SM  H20G11134   5.980   3.963   5.331 -0.8593 -1.9116  1.1586
   8323SM  C21F11135   6.059   3.918   5.520  0.3651 -0.2903  0.3033
   8323SM  H21F11136   6.044   3.810   5.498  1.2894 -0.1217 -1.3504
   8323SM  H21G11137   5.973   3.959   5.575 -1.3012 -0.4049 -2.0684
   8323SM  C22F11138   6.183   3.917   5.610 -0.1203 -0.5151 -0.4966
   8323SM  H22F11139   6.210   4.019   5.646  0.8444 -1.2192  0.8355
   8323SM  H22G11140   6.275   3.876   5.564  1.2528  1.8755 -0.0172
   8323SM  C23F11141   6.151   3.828   5.728  0.1814  0.3205 -0.6839
   8323SM  H23F11142   6.055   3.865   5.770 -1.1859 -0.2237 -3.1549
   8323SM  H23G11143   6.227   3.826   5.809 -1.7013  0.5714  1.1912
   8323SM  H23H11144   6.135   3.728   5.683  0.4271  1.0107 -2.3538
   8423SM     N11145   4.822   3.497   2.103  0.2387  0.3720 -0.4647
   8423SM   C1511146   4.942   3.467   2.020  0.9331  0.0456  0.1275
   8423SM  H15A11147   5.002   3.388   2.063 -1.9267 -2.8811 -0.8400
   8423SM  H15B11148   4.994   3.562   2.013  0.6789  0.0594 -2.4930
   8423SM  H15C11149   4.914   3.439   1.919  0.7823 -1.6151  0.6015
   8423SM   C1411150   4.777   3.633   2.076 -0.3572  0.3312 -0.3287
   8423SM  H14A11151   4.842   3.711   2.111  0.3202  0.0945 -1.0218
   8423SM  H14B11152   4.688   3.655   2.133 -0.4802  0.3719 -0.5357
   8423SM  H14C11153   4.759   3.640   1.970  0.1722 -1.4920 -0.5768
   8423SM   C1311154   4.715   3.404   2.056  0.6482  0.0973  0.4424
   8423SM  H13A11155   4.694   3.420   1.952  0.4567 -1.6146  0.1830
   8423SM  H13B11156   4.622   3.417   2.109 -0.1930 -4.0977  0.3572
   8423SM  H13C11157   4.740   3.299   2.051  2.0307  0.4648 -2.1148
   8423SM   C1211158   4.844   3.475   2.257 -0.8190  0.1848  0.6192
   8423SM  H12A11159   4.751   3.497   2.308  1.0680  0.1406  4.3744
   8423SM  H12B11160   4.919   3.549   2.281 -0.2591 -0.1352 -0.1091
   8423SM   C1111161   4.895   3.344   2.301 -0.1274  0.4408 -0.0896
   8423SM  H11A11162   4.832   3.263   2.259  1.9091 -0.4273 -1.5929
   8423SM  H11B11163   4.890   3.328   2.411  0.5472 -0.3205 -0.1678
   8423SM     P11164   5.156   3.350   2.343 -0.1609 -0.4101 -0.1902
   8423SM   O1311165   5.271   3.282   2.270  0.2508  0.1085  0.2710
   8423SM   O1411166   5.168   3.493   2.363 -0.0486  0.0843 -0.3246
   8423SM   O1111167   5.128   3.274   2.473  0.6670  0.2095 -0.3974
   8423SM   O1211168   5.024   3.320   2.255 -0.0277 -0.1625  0.2708
   8423SM   C1S11169   5.225   3.195   2.549  0.2166  0.2013 -0.5441
   8423SM   H1S11170   5.329   3.231   2.535 -0.0298  0.7641 -0.9473
   8423SM   H1T11171   5.213   3.090   2.515 -0.3423  0.0286  0.1428
   8423SM    NF11172   5.258   3.078   2.768 -1.1910 -0.0613 -0.5217
   8423SM   HNF11173   5.205   2.999   2.799 -0.9867  0.1956  0.5118
   8423SM   C2S11174   5.189   3.190   2.704  0.4442 -0.5052 -0.3678
   8423SM   H2S11175   5.223   3.284   2.751 -1.1053  0.2353 -0.6443
   8423SM   C3S11176   5.032   3.192   2.738 -0.0117  0.2155  0.2906
   8423SM   H3S11177   4.979   3.105   2.693  1.5608  0.0027 -1.2770
   8423SM    O311178   4.955   3.301   2.692  0.1787 -0.4131 -0.3529
   8423SM   HO311179   5.019   3.362   2.656  1.9399 -0.8660  1.7925
   8423SM   C4S11180   5.008   3.180   2.893 -1.0042 -0.8489  0.3756
   8423SM   H4S11181   4.987   3.075   2.918 -0.6348 -1.0821 -0.2863
   8423SM   C5S11182   5.004   3.280   2.984  0.2822  0.1287 -0.4870
   8423SM   H5S11183   5.012   3.383   2.947 -1.0260 -0.1508 -1.6446
   8423SM   C6S11184   4.956   3.265   3.118  0.3988 -1.0515  0.1463
   8423SM   H6S11185   5.036   3.281   3.193  0.2309  0.9966 -0.0583
   8423SM   H6T11186   4.927   3.160   3.141  3.7976 -2.3871 -1.0320
   8423SM   C7S11187   4.831   3.345   3.156 -0.1448  0.3429 -0.1916
   8423SM   H7S11188   4.747   3.307   3.094  0.3145  1.3080 -1.4587
   8423SM   H7T11189   4.840   3.450   3.121  1.0070  0.0121 -0.9477
   8423SM   C8S11190   4.791   3.327   3.301 -0.2882  0.0087 -0.7308
   8423SM   H8S11191   4.851   3.250   3.353 -1.6915  0.7414  2.1671
   8423SM   H8T11192   4.686   3.293   3.307 -0.4737  0.8572  1.9414
   8423SM   C9S11193   4.813   3.453   3.386 -0.0971 -0.0499 -0.1835
   8423SM   H9S11194   4.763   3.535   3.330 -1.6271 -1.1453 -0.5120
   8423SM   H9T11195   4.920   3.476   3.402 -0.2218  0.8027 -0.5471
   8423SM  C10S11196   4.730   3.441   3.513 -0.6155 -0.5724 -0.5884
   8423SM  H10S11197   4.753   3.343   3.560  3.1831  0.6175  0.3798
   8423SM  H10T11198   4.624   3.429   3.482 -0.9272 -0.7757  0.5101
   8423SM  C11S11199   4.728   3.557   3.616  0.2445 -0.0559 -0.1603
   8423SM  H11S11200   4.693   3.648   3.562 -0.1523  0.4293  0.8832
   8423SM  H11T11201   4.826   3.577   3.665  0.5360 -1.8207  0.0326
   8423SM  C12S11202   4.627   3.551   3.740 -0.3266  0.3209  0.3567
   8423SM  H12S11203   4.529   3.554   3.688  0.2544 -3.0008 -1.2821
   8423SM  H12T11204   4.639   3.644   3.799  0.1489 -0.7457  1.9979
   8423SM  C13S11205   4.631   3.432   3.832 -0.3216 -0.1776 -0.1592
   8423SM  H13S11206   4.730   3.440   3.882  0.7628  1.4920 -2.3954
   8423SM  H13T11207   4.636   3.338   3.773 -4.2805 -0.1271 -0.8672
   8423SM  C14S11208   4.511   3.416   3.930 -0.3432 -0.5341  0.0710
   8423SM  H14S11209   4.416   3.418   3.873  0.1971 -0.2771 -0.8387
   8423SM  H14T11210   4.513   3.506   3.995 -1.6541  0.2606 -0.9372
   8423SM  C15S11211   4.539   3.284   4.000  0.0869  0.3448  0.2723
   8423SM  H15S11212   4.642   3.280   4.043 -0.1879 -1.0265  0.8634
   8423SM  H15T11213   4.542   3.197   3.930 -0.2665 -0.2906  1.0373
   8423SM  C16S11214   4.435   3.245   4.105  0.4979  0.1404  0.8348
   8423SM  H16S11215   4.437   3.134   4.108  1.5820  0.1440  0.8266
   8423SM  H16T11216   4.335   3.275   4.069  0.5703 -1.8360 -1.2054
   8423SM  C17S11217   4.455   3.307   4.235 -0.3008  0.0276  0.0357
   8423SM  H17S11218   4.397   3.401   4.247  2.2278  1.5268  1.5552
   8423SM  H17T11219   4.556   3.352   4.248 -0.1351  0.7277 -2.9915
   8423SM  C18S11220   4.408   3.220   4.349 -0.4728 -0.1893 -0.5018
   8423SM  H18S11221   4.490   3.167   4.399 -0.9788  0.5546  1.1934
   8423SM  H18T11222   4.322   3.153   4.326 -1.8677  1.6255 -0.8917
   8423SM  H18U11223   4.381   3.290   4.431  1.7026 -0.6226  0.6396
   8423SM   C1F11224   5.391   3.070   2.783  0.2336  0.2358 -0.2363
   8423SM    OF11225   5.468   3.153   2.742  0.0277 -0.0155 -0.1630
   8423SM   C2F11226   5.434   2.944   2.857 -0.2112  0.3426  0.3892
   8423SM   H2F11227   5.544   2.934   2.858 -0.3120 -1.2874 -0.4078
   8423SM   H2G11228   5.393   2.858   2.798  0.1594  0.4766 -0.0707
   8423SM   C3F11229   5.402   2.943   3.011 -0.5743  0.4824 -0.0874
   8423SM   H3F11230   5.467   2.864   3.054  0.9880  1.4961 -0.5072
   8423SM   H3G11231   5.294   2.927   3.030 -0.4688  0.4797  0.5110
   8423SM   C4F11232   5.458   3.076   3.074 -0.2287 -0.3788  0.1793
   8423SM   H4F11233   5.414   3.167   3.027 -2.2780 -1.2777  0.2734
   8423SM   H4G11234   5.564   3.074   3.044 -0.4489  0.5939 -0.7332
   8423SM   C5F11235   5.443   3.073   3.230 -0.3684  0.1605 -0.0966
   8423SM   H5F11236   5.486   2.977   3.265 -1.3463  0.0560  0.8912
   8423SM   H5G11237   5.334   3.084   3.252 -0.1448  2.5199  0.0646
   8423SM   C6F11238   5.508   3.199   3.287 -0.1471 -0.2101  0.3315
   8423SM   H6F11239   5.461   3.290   3.244  0.1728 -0.6670 -1.0418
   8423SM   H6G11240   5.616   3.197   3.260  0.2928 -1.3305  2.0504
   8423SM   C7F11241   5.492   3.197   3.436  0.2430  0.3219  0.3781
   8423SM   H7F11242   5.522   3.106   3.492 -0.0009 -0.1299 -0.2095
   8423SM   H7G11243   5.383   3.200   3.457 -0.0337 -0.4220 -0.8364
   8423SM   C8F11244   5.554   3.327   3.495 -0.0108  0.4576  0.2488
   8423SM   H8F11245   5.516   3.417   3.441 -2.0571  0.2362  1.2451
   8423SM   H8G11246   5.662   3.312   3.470 -0.2886 -1.5124  0.1162
   8423SM   C9F11247   5.516   3.333   3.642  0.5579 -0.6962  0.2870
   8423SM   H9F11248   5.413   3.299   3.664  0.7056 -2.2575 -1.1764
   8423SM   H9G11249   5.533   3.441   3.663  1.2064 -0.0396 -2.9700
   8423SM  C10F11250   5.604   3.245   3.732  0.5723 -0.5444  0.1374
   8423SM  H10F11251   5.706   3.272   3.697  0.4395  2.9299  2.0183
   8423SM  H10G11252   5.584   3.136   3.723  3.1392 -1.0642 -0.0702
   8423SM  C11F11253   5.609   3.287   3.874  0.5676 -0.3854  0.1380
   8423SM  H11F11254   5.654   3.388   3.876 -0.5036  0.0976  0.9218
   8423SM  H11G11255   5.678   3.220   3.930 -0.6430 -0.2305  1.8992
   8423SM  C12F11256   5.469   3.288   3.942 -0.1979  0.9397  0.4231
   8423SM  H12F11257   5.408   3.208   3.894 -0.0669  0.7910  0.5045
   8423SM  H12G11258   5.410   3.379   3.918  0.0831  1.2717  0.9784
   8423SM  C13F11259   5.491   3.265   4.093  0.5966 -0.4610  0.3407
   8423SM  H13F11260   5.507   3.367   4.134  0.2010 -0.3108  0.1324
   8423SM  H13G11261   5.578   3.206   4.129  1.5609  2.0050  2.3228
   8423SM  C14F11262   5.364   3.220   4.165  0.1835  0.2426 -0.4914
   8423SM  H14F11263   5.348   3.116   4.128 -2.7900  0.3516  0.2382
   8423SM  H14G11264   5.270   3.272   4.136 -1.0327  0.0795  2.7197
   8423SM  C15F11265   5.374   3.220   4.318 -0.4093 -0.1958  0.1676
   8423SM  H15F11266   5.384   3.322   4.359  1.3977  0.1749 -1.0855
   8423SM  H15G11267   5.462   3.163   4.355 -1.6092 -1.6591  0.9037
   8423SM  C16F11268   5.256   3.161   4.390 -0.7953 -0.2485  0.1206
   8423SM  H16F11269   5.225   3.062   4.349 -0.1126  0.4396 -2.2455
   8423SM  H16G11270   5.175   3.237   4.382  1.5961  2.7395  2.1838
   8423SM  C17F11271   5.274   3.148   4.543  0.2295  0.7226 -0.4498
   8423SM  H17F11272   5.296   3.247   4.587 -1.4756  1.2974 -0.8454
   8423SM  H17G11273   5.369   3.093   4.565 -0.0550  1.1277  2.0412
   8423SM  C18F11274   5.155   3.083   4.606  0.6549 -0.0616  0.4937
   8423SM  H18F11275   5.145   2.982   4.560  1.0840 -0.0489  0.3737
   8423SM  H18G11276   5.058   3.133   4.582  0.5558 -0.6630 -0.4396
   8423SM  C19F11277   5.176   3.080   4.765  0.4651  0.5716 -0.5634
   8423SM  H19F11278   5.171   3.179   4.814  1.3357  0.0543  0.6205
   8423SM  H19G11279   5.284   3.059   4.779  0.3539  0.9887  1.2341
   8423SM  C20F11280   5.082   2.992   4.843  0.1717 -0.1809  0.7960
   8423SM  H20F11281   5.059   2.892   4.799 -0.7724  0.7092 -0.8476
   8423SM  H20G11282   4.983   3.042   4.837 -0.0216 -0.5696  0.7121
   8423SM  C21F11283   5.108   2.977   4.994  0.7006 -0.2447  0.3946
   8423SM  H21F11284   5.202   2.919   5.002 -0.9872 -3.6699 -1.9639
   8423SM  H21G11285   5.018   2.930   5.040  0.5200  0.1203  0.4173
   8423SM  C22F11286   5.124   3.107   5.074  0.4865  0.5041  0.3676
   8423SM  H22F11287   5.040   3.171   5.039  0.1871 -1.6694 -3.3845
   8423SM  H22G11288   5.219   3.158   5.050  1.3681 -0.4268  1.7375
   8423SM  C23F11289   5.116   3.087   5.221  0.4432 -0.4818 -0.8927
   8423SM  H23F11290   5.018   3.049   5.255  0.3977  0.4681  0.0745
   8423SM  H23G11291   5.146   3.182   5.271 -1.2227 -0.4407  0.0973
   8423SM  H23H11292   5.188   3.014   5.263 -2.0757 -1.8503  1.3082
   8523SM     N11293   6.683   4.309   2.766  0.2606 -0.4041  0.3247
   8523SM   C1511294   6.641   4.339   2.904 -0.3540  0.2181  0.2816
   8523SM  H15A11295   6.555   4.404   2.894 -1.4805 -1.1464  0.7754
   8523SM  H15B11296   6.721   4.387   2.958 -1.5259 -0.4931  2.8148
   8523SM  H15C11297   6.606   4.252   2.958  0.1417 -0.2982 -0.2142
   8523SM   C1411298   6.570   4.245   2.680  0.2674  0.3224  0.7457
   8523SM  H14A11299   6.593   4.213   2.580 -0.6761 -3.9110  1.6769
   8523SM  H14B11300   6.484   4.310   2.670  0.4757  0.4358 -0.3834
   8523SM  H14C11301   6.533   4.152   2.722 -1.8928  0.1895 -1.2672
   8523SM   C1311302   6.725   4.441   2.704 -0.0306  0.5682  0.9572
   8523SM  H13A11303   6.768   4.503   2.782 -2.4305  0.9434  2.0767
   8523SM  H13B11304   6.649   4.504   2.660 -1.6515 -1.0380  1.3333
   8523SM  H13C11305   6.799   4.419   2.629  0.9064 -0.2598  2.0835
   8523SM   C1211306   6.804   4.210   2.774 -0.2970  0.4481 -0.0354
   8523SM  H12A11307   6.835   4.190   2.673 -0.0186  0.5097  0.0361
   8523SM  H12B11308   6.759   4.120   2.813 -1.6003  0.8770 -0.4852
   8523SM   C1111309   6.937   4.243   2.850 -0.1926 -0.1611  0.5295
   8523SM  H11A11310   6.895   4.261   2.951 -3.2650 -0.6677 -0.5365
   8523SM  H11B11311   6.984   4.331   2.800  2.4482 -0.4951  2.2055
   8523SM     P11312   6.999   4.009   2.925 -0.1782  0.0685 -0.1341
   8523SM   O1311313   6.872   3.949   2.879 -0.7246  0.7387  0.0080
   8523SM   O1411314   7.120   3.925   2.909  0.3073 -0.3467 -0.5385
   8523SM   O1111315   6.989   4.050   3.077 -0.2672 -0.2706  0.0361
   8523SM   O1211316   7.028   4.136   2.839 -0.1210  0.2849 -0.3879
   8523SM   C1S11317   7.102   4.105   3.148 -0.0550 -0.0483  0.0881
   8523SM   H1S11318   7.158   4.176   3.084  0.3953 -1.5194 -1.2130
   8523SM   H1T11319   7.166   4.018   3.173 -1.8708 -1.6329 -0.5216
   8523SM    NF11320   7.165   4.251   3.337 -0.0855 -0.3050  0.4834
   8523SM   HNF11321   7.232   4.202   3.393  2.2131  0.0774 -1.7343
   8523SM   C2S11322   7.056   4.170   3.285  0.8171  0.1076  1.8141
   8523SM   H2S11323   6.969   4.236   3.266  0.3403 -0.8187  0.6088
   8523SM   C3S11324   6.992   4.058   3.371  0.4938  0.3442 -0.5616
   8523SM   H3S11325   7.075   4.009   3.426  0.0936  0.9319  0.6108
   8523SM    O311326   6.916   3.953   3.305 -0.3839 -0.2126  0.6007
   8523SM   HO311327   6.932   3.975   3.213 -1.8489  1.6700  0.7328
   8523SM   C4S11328   6.918   4.109   3.496 -0.6461  0.7254 -0.0455
   8523SM   H4S11329   6.978   4.127   3.587 -1.2231  1.3374  0.2163
   8523SM   C5S11330   6.785   4.125   3.508  0.2963  0.5120 -0.4456
   8523SM   H5S11331   6.712   4.098   3.429 -0.6044  0.1322  0.4992
   8523SM   C6S11332   6.729   4.167   3.637 -0.0394 -0.6520  0.1637
   8523SM   H6S11333   6.624   4.130   3.639 -0.6531  0.8689 -1.3686
   8523SM   H6T11334   6.716   4.278   3.635 -3.7724 -0.9745 -0.8465
   8523SM   C7S11335   6.796   4.136   3.769  0.4199 -0.4141 -0.3193
   8523SM   H7S11336   6.903   4.169   3.770  1.0809 -2.3100  2.2574
   8523SM   H7T11337   6.808   4.026   3.779 -1.0585 -0.4960  0.9620
   8523SM   C8S11338   6.720   4.204   3.888 -0.4926  0.1526 -0.2836
   8523SM   H8S11339   6.611   4.179   3.883 -0.9904  1.8575  1.1309
   8523SM   H8T11340   6.730   4.314   3.875  0.9503  0.2489  1.2979
   8523SM   C9S11341   6.800   4.165   4.010  0.5802  0.0145 -0.3286
   8523SM   H9S11342   6.903   4.206   4.007  1.0945 -1.2226 -0.3355
   8523SM   H9T11343   6.806   4.054   4.017 -0.0630  0.0847  2.4140
   8523SM  C10S11344   6.732   4.205   4.146  0.3425 -0.3106  0.6333
   8523SM  H10S11345   6.624   4.179   4.154  0.0014  0.2425 -1.4649
   8523SM  H10T11346   6.730   4.316   4.136  0.8233 -0.3191  0.4102
   8523SM  C11S11347   6.808   4.168   4.272 -0.1714  0.0247 -0.2202
   8523SM  H11S11348   6.917   4.153   4.258  0.1254  3.1709 -2.3950
   8523SM  H11T11349   6.759   4.075   4.308 -0.6251  0.4362  0.2335
   8523SM  C12S11350   6.792   4.279   4.372 -0.2022 -0.1724  0.1917
   8523SM  H12S11351   6.684   4.297   4.392 -0.2385 -0.9448  0.7466
   8523SM  H12T11352   6.834   4.375   4.335 -2.1911 -0.2754 -2.6016
   8523SM  C13S11353   6.871   4.247   4.506  0.0520 -0.2285  0.3793
   8523SM  H13S11354   6.952   4.323   4.515 -1.0328  0.9555  0.3888
   8523SM  H13T11355   6.913   4.144   4.505  0.0153 -0.3864  3.9479
   8523SM  C14S11356   6.779   4.272   4.629 -0.3977  0.6370 -0.3376
   8523SM  H14S11357   6.703   4.191   4.639 -0.6811  0.9257 -0.1382
   8523SM  H14T11358   6.729   4.365   4.594 -0.3328 -0.1067 -2.5803
   8523SM  C15S11359   6.861   4.292   4.758  0.5290  0.2759 -0.9530
   8523SM  H15S11360   6.935   4.212   4.779  0.2162 -0.6738 -3.1849
   8523SM  H15T11361   6.792   4.280   4.843 -0.0261  1.2716 -1.2450
   8523SM  C16S11362   6.922   4.434   4.782  0.1121  0.3927 -0.1773
   8523SM  H16S11363   6.832   4.494   4.805 -0.0726 -0.5046  1.6433
   8523SM  H16T11364   6.974   4.458   4.686  1.9616  0.4731  0.8069
   8523SM  C17S11365   7.018   4.451   4.895 -0.4293  0.4654  0.7930
   8523SM  H17S11366   7.057   4.554   4.901 -1.7278  1.1111 -0.8543
   8523SM  H17T11367   7.106   4.390   4.866  0.4267  1.1967  1.8154
   8523SM  C18S11368   6.957   4.404   5.030  0.2230  0.3628  0.2510
   8523SM  H18S11369   7.035   4.420   5.108  2.5222 -1.4463 -1.5536
   8523SM  H18T11370   6.925   4.298   5.020 -1.3205  0.8455 -0.2321
   8523SM  H18U11371   6.863   4.460   5.051  0.3097  1.3583 -1.7867
   8523SM   C1F11372   7.191   4.370   3.283 -0.0619  0.3388  0.1055
   8523SM    OF11373   7.120   4.423   3.200  0.4728 -0.1139  0.4844
   8523SM   C2F11374   7.303   4.444   3.339 -0.6006 -0.3392  0.3374
   8523SM   H2F11375   7.280   4.552   3.340  2.0574  0.2979  2.2643
   8523SM   H2G11376   7.398   4.417   3.289 -0.3080  0.5349  0.4156
   8523SM   C3F11377   7.330   4.402   3.485 -0.1720  0.4739 -0.5507
   8523SM   H3F11378   7.372   4.299   3.493 -0.2742  0.4135 -0.7733
   8523SM   H3G11379   7.237   4.406   3.547 -0.2481  1.2894 -0.7101
   8523SM   C4F11380   7.440   4.495   3.541 -0.7101  0.3604 -0.5888
   8523SM   H4F11381   7.405   4.596   3.574 -0.1595  0.2219  0.4761
   8523SM   H4G11382   7.510   4.517   3.458  1.7049 -0.1890  1.1730
   8523SM   C5F11383   7.528   4.426   3.653 -0.3770 -0.1058 -0.3782
   8523SM   H5F11384   7.601   4.494   3.702 -1.6932  0.7535  0.4590
   8523SM   H5G11385   7.581   4.338   3.609 -0.5200 -0.0575 -0.6532
   8523SM   C6F11386   7.444   4.370   3.776  0.2635 -0.3774  0.2300
   8523SM   H6F11387   7.409   4.270   3.743  0.3395 -0.8416  1.5127
   8523SM   H6G11388   7.359   4.441   3.786  2.1885  2.0100  0.5163
   8523SM   C7F11389   7.517   4.355   3.908  0.8149 -0.0822 -0.6520
   8523SM   H7F11390   7.569   4.450   3.936 -1.3053  0.2484  2.7667
   8523SM   H7G11391   7.579   4.265   3.886 -2.3265 -3.2241  2.0798
   8523SM   C8F11392   7.428   4.304   4.021 -0.3026 -0.0794 -0.1917
   8523SM   H8F11393   7.336   4.363   4.038 -0.4491 -0.1461 -0.7275
   8523SM   H8G11394   7.494   4.308   4.110  0.3846 -0.2709 -0.6879
   8523SM   C9F11395   7.397   4.156   4.010 -0.2715  0.2341 -0.9333
   8523SM   H9F11396   7.486   4.103   3.970  1.1048  1.5439  0.2662
   8523SM   H9G11397   7.313   4.138   3.940 -1.0976 -0.5117  0.2037
   8523SM  C10F11398   7.371   4.095   4.151 -0.0900 -0.3056 -0.4439
   8523SM  H10F11399   7.466   4.088   4.210 -1.3222 -0.0897  1.6780
   8523SM  H10G11400   7.348   3.987   4.146  2.6224 -1.0887  1.3695
   8523SM  C11F11401   7.249   4.163   4.220 -0.1670 -0.0830  0.7592
   8523SM  H11F11402   7.159   4.153   4.156  0.0827  1.3255  0.1596
   8523SM  H11G11403   7.260   4.274   4.222 -0.5381 -0.0357  0.2607
   8523SM  C12F11404   7.215   4.101   4.356 -0.1087 -0.0877  0.0512
   8523SM  H12F11405   7.198   3.995   4.330  1.3092  0.0703 -1.7555
   8523SM  H12G11406   7.122   4.149   4.394 -0.0159 -0.4298  0.7260
   8523SM  C13F11407   7.335   4.105   4.455 -0.3725  0.1726 -0.1787
   8523SM  H13F11408   7.366   4.208   4.485  0.6314 -0.8802  2.7843
   8523SM  H13G11409   7.425   4.065   4.404  0.5141  0.9006  0.7567
   8523SM  C14F11410   7.313   4.027   4.593 -0.2971 -0.1672  0.0091
   8523SM  H14F11411   7.407   4.034   4.652 -0.2203  2.6060 -0.2954
   8523SM  H14G11412   7.293   3.919   4.576  1.5604 -0.6080  0.4240
   8523SM  C15F11413   7.200   4.088   4.667  0.0913  0.1147 -0.4494
   8523SM  H15F11414   7.102   4.089   4.615 -1.5983  1.8521  2.5361
   8523SM  H15G11415   7.219   4.197   4.678  0.8664  0.2678 -2.7337
   8523SM  C16F11416   7.169   4.015   4.803 -0.6130 -0.4948 -0.3613
   8523SM  H16F11417   7.141   3.908   4.787 -0.6174 -0.3396 -1.4794
   8523SM  H16G11418   7.073   4.043   4.852 -0.5866  0.4039 -0.8124
   8523SM  C17F11419   7.287   4.013   4.900  0.6024 -0.2128  0.5603
   8523SM  H17F11420   7.305   4.111   4.949  1.8593 -1.4518  2.7311
   8523SM  H17G11421   7.380   3.986   4.844  0.2955  2.4223 -1.3895
   8523SM  C18F11422   7.269   3.924   5.029 -0.2916 -0.1728 -0.1802
   8523SM  H18F11423   7.354   3.934   5.100 -0.5325 -0.2523  0.1249
   8523SM  H18G11424   7.272   3.818   4.995 -1.9594  0.8764 -4.0528
   8523SM  C19F11425   7.149   3.951   5.122 -0.7525  0.5346 -0.2711
   8523SM  H19F11426   7.061   3.936   5.056 -0.3645 -0.6834 -0.5315
   8523SM  H19G11427   7.149   4.056   5.160 -3.7559  0.5538 -0.0339
   8523SM  C20F11428   7.147   3.840   5.221  0.0144 -0.0188 -0.3987
   8523SM  H20F11429   7.219   3.855   5.304  0.0142  1.3033 -0.6137
   8523SM  H20G11430   7.165   3.735   5.191  1.1051 -0.6100  2.0847
   8523SM  C21F11431   7.013   3.837   5.294  0.6999 -0.1440 -0.0727
   8523SM  H21F11432   6.938   3.831   5.212 -1.0415 -1.1599  1.5423
   8523SM  H21G11433   6.989   3.931   5.348 -0.1502 -0.6820  0.5111
   8523SM  C22F11434   6.995   3.713   5.380  0.2483 -0.5115 -0.2487
   8523SM  H22F11435   7.073   3.718   5.459 -0.1067  0.2639  0.0581
   8523SM  H22G11436   7.009   3.623   5.317 -0.0397  0.6802 -2.0642
   8523SM  C23F11437   6.852   3.719   5.445  0.0600 -0.3087  0.5335
   8523SM  H23F11438   6.841   3.803   5.517  1.5960 -0.6011  1.1486
   8523SM  H23G11439   6.836   3.635   5.516 -0.7149  0.6696  1.5542
   8523SM  H23H11440   6.771   3.714   5.369  0.7781 -1.3324 -0.2002
   8623SM     N11441   4.716   3.004   2.505  0.9505  0.2901  0.5533
   8623SM   C1511442   4.646   2.887   2.459  0.1488  0.5361  0.2707
   8623SM  H15A11443   4.571   2.855   2.530  1.2922 -2.6569  0.1954
   8623SM  H15B11444   4.715   2.805   2.446 -1.0360 -0.7656  1.8230
   8623SM  H15C11445   4.603   2.904   2.361  1.6271  0.5228 -0.4043
   8623SM   C1411446   4.628   3.115   2.462  0.4578 -0.0019  0.2199
   8623SM  H14A11447   4.682   3.206   2.485 -1.3336  1.0348  0.5464
   8623SM  H14B11448   4.530   3.113   2.509  1.5361 -0.3085  2.6330
   8623SM  H14C11449   4.602   3.103   2.358 -0.6155  1.6861  0.2593
   8623SM   C1311450   4.724   2.995   2.655  0.0494 -0.3962 -0.5424
   8623SM  H13A11451   4.775   3.087   2.681 -1.7694  1.0975 -1.9817
   8623SM  H13B11452   4.752   2.901   2.699 -0.5495 -0.5244 -0.4328
   8623SM  H13C11453   4.635   3.001   2.715  1.2898 -0.3073  1.3742
   8623SM   C1211454   4.856   3.010   2.443  0.2616 -0.0505 -0.0556
   8623SM  H12A11455   4.904   3.102   2.472 -1.1707  0.4099  0.9160
   8623SM  H12B11456   4.842   3.000   2.336 -0.3131 -0.2701  0.0376
   8623SM   C1111457   4.966   2.905   2.489  0.3037 -0.8055 -0.4118
   8623SM  H11A11458   4.996   2.932   2.592 -1.4759  1.0252 -0.2948
   8623SM  H11B11459   5.060   2.919   2.432  1.0883  0.2313  1.0809
   8623SM     P11460   5.000   2.646   2.503 -0.1655  0.3368  0.0595
   8623SM   O1311461   4.937   2.526   2.458  0.2853  0.1420 -0.0474
   8623SM   O1411462   5.130   2.672   2.440 -0.1122  0.0865  0.4919
   8623SM   O1111463   5.013   2.640   2.657 -0.2406 -0.3100  0.1903
   8623SM   O1211464   4.908   2.778   2.473 -0.3288  0.1873 -0.2320
   8623SM   C1S11465   4.912   2.604   2.752 -0.1193 -0.5429  0.4052
   8623SM   H1S11466   4.888   2.496   2.748  0.1390 -0.6431  1.3967
   8623SM   H1T11467   4.824   2.670   2.735  0.3887  0.0740  0.1372
   8623SM    NF11468   4.849   2.582   2.987 -0.6144 -0.1179 -0.8672
   8623SM   HNF11469   4.778   2.638   3.030  0.2166  1.9321 -2.0222
   8623SM   C2S11470   4.949   2.643   2.903 -0.4234  0.0220  0.4322
   8623SM   H2S11471   5.045   2.592   2.925  0.0326 -0.1496 -1.7643
   8623SM   C3S11472   4.970   2.794   2.936 -0.1743 -0.3363  0.9202
   8623SM   H3S11473   4.880   2.837   2.887  0.6865 -1.6481 -2.0506
   8623SM    O311474   5.081   2.851   2.867  0.3796  0.0424  0.0633
   8623SM   HO311475   5.081   2.791   2.792 -0.9853  0.2876 -0.1638
   8623SM   C4S11476   4.981   2.821   3.083  0.1594 -0.0944 -0.3686
   8623SM   H4S11477   5.077   2.799   3.133 -0.4804  0.6282  1.2721
   8623SM   C5S11478   4.876   2.863   3.164 -0.2307  0.0886  0.2706
   8623SM   H5S11479   4.775   2.868   3.120 -1.0334 -2.3064  1.6229
   8623SM   C6S11480   4.880   2.900   3.311  0.4125 -0.0935 -0.0894
   8623SM   H6S11481   4.841   2.813   3.368  0.6946 -0.9259 -1.1237
   8623SM   H6T11482   4.809   2.985   3.316  3.1595  2.3793 -0.4836
   8623SM   C7S11483   5.010   2.960   3.360 -0.2376  0.0696 -0.1905
   8623SM   H7S11484   5.044   3.055   3.313 -0.0841  0.1125  0.0052
   8623SM   H7T11485   5.084   2.878   3.350 -0.2703  0.1994 -1.7169
   8623SM   C8S11486   4.993   3.002   3.502  0.7494 -0.1515 -0.1608
   8623SM   H8S11487   4.954   2.923   3.570  0.5944  0.7079  0.7650
   8623SM   H8T11488   4.925   3.090   3.506 -2.3401 -2.2045 -2.3675
   8623SM   C9S11489   5.120   3.059   3.570  0.5462 -0.3128  0.0678
   8623SM   H9S11490   5.177   3.121   3.498  0.7278  0.5064  0.8909
   8623SM   H9T11491   5.184   2.973   3.599  0.3973 -0.8497 -1.1431
   8623SM  C10S11492   5.101   3.157   3.689  0.1739 -0.2716 -0.2186
   8623SM  H10S11493   5.053   3.254   3.662  0.4534 -0.0788 -0.0285
   8623SM  H10T11494   5.204   3.178   3.726 -0.3634 -0.6997  1.6242
   8623SM  C11S11495   5.020   3.099   3.802  0.5343 -0.0907 -0.4518
   8623SM  H11S11496   5.060   3.003   3.839  0.6254  0.4281  0.8710
   8623SM  H11T11497   4.916   3.082   3.765 -0.3869  0.3608  1.7341
   8623SM  C12S11498   5.027   3.206   3.918  0.4716 -0.0256 -0.5199
   8623SM  H12S11499   4.989   3.307   3.890  3.5429  1.4005 -0.0161
   8623SM  H12T11500   5.129   3.231   3.954 -0.9544  5.0172  0.8166
   8623SM  C13S11501   4.932   3.162   4.034  0.1623 -0.0298  1.0760
   8623SM  H13S11502   4.956   3.054   4.038  0.4797 -0.3416 -3.5169
   8623SM  H13T11503   4.829   3.173   3.993  1.2705 -1.1344 -2.3373
   8623SM  C14S11504   4.941   3.234   4.167 -0.0692 -0.9542 -0.0850
   8623SM  H14S11505   5.025   3.188   4.224  1.4462  0.2692 -1.2481
   8623SM  H14T11506   4.854   3.209   4.231 -0.6878  3.1564  0.9760
   8623SM  C15S11507   4.956   3.385   4.161  0.3999  0.1144 -0.4834
   8623SM  H15S11508   4.866   3.430   4.113  0.8992  0.9948 -0.6142
   8623SM  H15T11509   5.051   3.404   4.107  1.7739  1.6529  2.2176
   8623SM  C16S11510   4.979   3.455   4.301  0.0344  0.6897  0.2414
   8623SM  H16S11511   5.018   3.554   4.271  1.3484 -0.0351 -0.5401
   8623SM  H16T11512   5.062   3.411   4.361  0.4262  2.2826  0.9286
   8623SM  C17S11513   4.850   3.462   4.385 -0.9502  0.0248 -0.2352
   8623SM  H17S11514   4.818   3.361   4.419 -0.5630 -0.3695 -1.0218
   8623SM  H17T11515   4.781   3.505   4.309 -0.8654  0.5457 -0.0201
   8623SM  C18S11516   4.863   3.560   4.506 -0.3943  0.2095  0.5816
   8623SM  H18S11517   4.917   3.650   4.470 -1.0992 -0.0706 -1.3431
   8623SM  H18T11518   4.930   3.509   4.578  0.3116  1.5151  0.8726
   8623SM  H18U11519   4.771   3.573   4.567 -0.1486 -0.6356  1.1596
   8623SM   C1F11520   4.836   2.451   3.007 -0.0552 -0.0394  0.0658
   8623SM    OF11521   4.922   2.369   2.969  0.7469 -0.4173 -0.0282
   8623SM   C2F11522   4.710   2.400   3.078 -0.2408 -0.3619  0.0433
   8623SM   H2F11523   4.680   2.301   3.038 -0.2197 -0.8466  1.1701
   8623SM   H2G11524   4.626   2.472   3.074 -0.9215 -1.1104  0.5324
   8623SM   C3F11525   4.747   2.372   3.228 -0.2179  0.2040 -0.0713
   8623SM   H3F11526   4.818   2.286   3.220  0.5807  0.9841 -1.7238
   8623SM   H3G11527   4.661   2.329   3.284 -0.0336  0.6175  0.5440
   8623SM   C4F11528   4.796   2.496   3.306  0.1140 -0.6223 -0.1683
   8623SM   H4F11529   4.720   2.575   3.287  0.4189 -0.2246  0.2201
   8623SM   H4G11530   4.886   2.542   3.260 -0.5339  1.0403  0.1386
   8623SM   C5F11531   4.837   2.466   3.454  0.5940 -0.6649  0.1033
   8623SM   H5F11532   4.910   2.382   3.451  0.6758 -0.6132  0.5812
   8623SM   H5G11533   4.745   2.433   3.507  0.0070 -3.4046 -2.3472
   8623SM   C6F11534   4.898   2.586   3.530 -0.2001 -0.7760  0.0453
   8623SM   H6F11535   4.827   2.671   3.536  1.1416  0.3034  1.5030
   8623SM   H6G11536   4.989   2.617   3.473  1.0364 -1.2997  1.6530
   8623SM   C7F11537   4.939   2.543   3.674 -0.4916  0.3520  0.9289
   8623SM   H7F11538   5.024   2.472   3.669  0.0293  1.0494 -0.6952
   8623SM   H7G11539   4.846   2.498   3.716 -0.1402  0.2271  1.5879
   8623SM   C8F11540   4.988   2.655   3.759 -0.3950  0.3790  0.0206
   8623SM   H8F11541   4.916   2.739   3.753 -0.7797  0.1224  0.7573
   8623SM   H8G11542   5.083   2.689   3.714 -0.7559  1.9014  0.3624
   8623SM   C9F11543   4.999   2.612   3.904  0.3930 -0.3686  0.5015
   8623SM   H9F11544   5.093   2.555   3.919  1.3792  1.1328  0.3231
   8623SM   H9G11545   4.899   2.571   3.930  1.1849 -1.5100  1.8678
   8623SM  C10F11546   5.009   2.728   4.005 -0.1125 -0.2241  0.4725
   8623SM  H10F11547   4.942   2.812   3.977 -1.7441 -1.4208  0.6384
   8623SM  H10G11548   5.113   2.760   3.979 -0.1813  0.2613  0.7934
   8623SM  C11F11549   4.989   2.685   4.149 -0.6584  0.6515  0.3170
   8623SM  H11F11550   5.058   2.602   4.173 -0.5936  1.4991  3.6080
   8623SM  H11G11551   4.883   2.651   4.156  0.2559 -2.3795  0.5186
   8623SM  C12F11552   5.008   2.803   4.245  0.2241 -0.0988  0.3956
   8623SM  H12F11553   4.937   2.885   4.225  1.8599  1.2497 -0.0922
   8623SM  H12G11554   5.109   2.844   4.223  0.6056 -1.3575 -0.3098
   8623SM  C13F11555   5.012   2.764   4.395  0.2848 -0.4046 -0.2716
   8623SM  H13F11556   4.923   2.699   4.404  0.0179 -0.0322 -0.1894
   8623SM  H13G11557   5.017   2.851   4.464 -0.2011 -1.6252  1.3501
   8623SM  C14F11558   5.137   2.685   4.430  0.0658  0.8109 -0.6016
   8623SM  H14F11559   5.230   2.736   4.394  1.4730 -0.4848  1.0537
   8623SM  H14G11560   5.122   2.585   4.385 -3.2686  1.5814 -1.4760
   8623SM  C15F11561   5.140   2.676   4.584  0.0879 -0.3306  1.0711
   8623SM  H15F11562   5.039   2.647   4.619 -0.6457  0.5056 -0.2332
   8623SM  H15G11563   5.163   2.772   4.635  4.8916 -0.3100 -0.6070
   8623SM  C16F11564   5.248   2.573   4.632  0.3978 -0.0820  0.0652
   8623SM  H16F11565   5.346   2.585   4.581  0.2623  0.8640 -0.0016
   8623SM  H16G11566   5.201   2.476   4.603 -1.7452  1.1121 -0.7273
   8623SM  C17F11567   5.267   2.582   4.788 -0.1476 -0.3156  0.3383
   8623SM  H17F11568   5.331   2.671   4.809  1.0990 -1.1246  0.0469
   8623SM  H17G11569   5.330   2.497   4.821 -1.5488 -0.9246  1.5440
   8623SM  C18F11570   5.140   2.595   4.880  0.5920 -0.3872  0.1223
   8623SM  H18F11571   5.075   2.662   4.821  0.8956 -2.5089 -2.8214
   8623SM  H18G11572   5.149   2.623   4.988  0.8013 -0.7266  0.1951
   8623SM  C19F11573   5.076   2.463   4.898  1.2243  0.4671  0.5109
   8623SM  H19F11574   5.158   2.390   4.917 -0.4359 -1.3082  1.1923
   8623SM  H19G11575   5.018   2.430   4.809 -2.9873  0.1483  3.1140
   8623SM  C20F11576   4.968   2.454   5.010 -1.0829  0.1691  0.6190
   8623SM  H20F11577   4.887   2.530   5.003 -1.4104  0.0816  2.7031
   8623SM  H20G11578   5.013   2.477   5.109  0.9630  0.8068 -0.4002
   8623SM  C21F11579   4.898   2.317   5.021  0.6817  0.2845  0.4863
   8623SM  H21F11580   4.967   2.231   5.037 -3.1165 -3.1683 -0.0325
   8623SM  H21G11581   4.843   2.303   4.925 -0.5465 -0.5799  1.2883
   8623SM  C22F11582   4.785   2.314   5.124  0.0164  0.3240 -0.1476
   8623SM  H22F11583   4.720   2.228   5.096 -0.0492 -0.1312  1.3068
   8623SM  H22G11584   4.727   2.407   5.112  0.6309  0.5230 -1.8593
   8623SM  C23F11585   4.827   2.288   5.264 -0.1195  0.1176 -0.1443
   8623SM  H23F11586   4.910   2.214   5.266 -0.8992 -0.7533  1.4918
   8623SM  H23G11587   4.734   2.266   5.319 -0.6432  2.5352  0.0720
   8623SM  H23H11588   4.868   2.381   5.310  2.4498 -1.3234  0.7201
   8723SM     N11589   5.650   1.590   2.349  0.3440  0.1385 -0.0417
   8723SM   C1511590   5.792   1.632   2.312  0.0323  0.1245  0.5006
   8723SM  H15A11591   5.867   1.578   2.366  0.7460  1.1947  0.6170
   8723SM  H15B11592   5.806   1.738   2.327 -1.2372  0.3603  0.1746
   8723SM  H15C11593   5.813   1.601   2.211 -0.4528 -1.3640  0.8333
   8723SM   C1411594   5.558   1.678   2.272  0.1903  0.4459 -0.0136
   8723SM  H14A11595   5.587   1.701   2.170 -1.2836  1.3935 -0.2557
   8723SM  H14B11596   5.538   1.776   2.313 -4.0082 -0.6639  1.0273
   8723SM  H14C11597   5.459   1.636   2.280  0.6882 -0.3623  3.1048
   8723SM   C1311598   5.628   1.446   2.316 -0.0382  0.1186  0.2210
   8723SM  H13A11599   5.625   1.434   2.209  1.9674 -1.8173  0.3182
   8723SM  H13B11600   5.538   1.405   2.360  0.8036 -1.5795  0.4076
   8723SM  H13C11601   5.704   1.381   2.357  0.3563 -0.5248 -1.4550
   8723SM   C1211602   5.624   1.609   2.497  0.3882  0.4169 -0.5220
   8723SM  H12A11603   5.692   1.549   2.556 -0.3423  1.2413  1.2326
   8723SM  H12B11604   5.523   1.573   2.511  0.0396  1.5426  0.0397
   8723SM   C1111605   5.618   1.759   2.557 -0.0333  0.5452  0.8496
   8723SM  H11A11606   5.717   1.809   2.544 -0.9527  2.5696  1.1932
   8723SM  H11B11607   5.621   1.764   2.668  1.2710 -0.8774  0.9248
   8723SM     P11608   5.360   1.835   2.552  0.2176 -0.2210 -0.0770
   8723SM   O1311609   5.299   1.958   2.503  0.2332  0.0777  0.2904
   8723SM   O1411610   5.300   1.705   2.518  0.5708 -0.3455  0.2188
   8723SM   O1111611   5.368   1.844   2.710  0.2959 -0.7794 -0.3619
   8723SM   O1211612   5.510   1.833   2.503  0.2810 -0.1361 -0.6635
   8723SM   C1S11613   5.429   1.965   2.767  0.0806 -0.1840 -0.2139
   8723SM   H1S11614   5.379   2.054   2.722  1.0016 -0.4162 -1.7793
   8723SM   H1T11615   5.539   1.968   2.750  0.3943 -2.7956  0.9274
   8723SM    NF11616   5.440   2.092   2.978  0.3297 -0.1019 -0.3479
   8723SM   HNF11617   5.516   2.102   3.042  1.1801 -1.8767 -1.0054
   8723SM   C2S11618   5.416   1.961   2.918  0.2670  0.1038 -0.4078
   8723SM   H2S11619   5.313   1.928   2.944  0.6763 -0.5836  0.3834
   8723SM   C3S11620   5.511   1.849   2.976 -0.1226 -0.5508 -0.8905
   8723SM   H3S11621   5.611   1.864   2.929 -0.3397  3.4407 -0.4355
   8723SM    O311622   5.460   1.717   2.938  0.5028  0.6546 -0.2245
   8723SM   HO311623   5.420   1.730   2.851 -1.5596  1.4231  0.7919
   8723SM   C4S11624   5.521   1.857   3.124  0.2946  0.0363 -0.3872
   8723SM   H4S11625   5.611   1.912   3.155 -1.6097  3.1422  0.0800
   8723SM   C5S11626   5.434   1.817   3.220  0.0029  0.5524 -0.1732
   8723SM   H5S11627   5.342   1.771   3.182  0.0981  1.0959 -1.0739
   8723SM   C6S11628   5.438   1.839   3.369 -0.3407  0.1273  0.7334
   8723SM   H6S11629   5.449   1.738   3.415  0.1264  0.1903  0.7633
   8723SM   H6T11630   5.350   1.887   3.415  0.5463 -1.3170  4.2950
   8723SM   C7S11631   5.551   1.932   3.427 -0.0852 -0.4089  0.7997
   8723SM   H7S11632   5.551   2.035   3.385 -1.4882  0.1052  1.9855
   8723SM   H7T11633   5.642   1.881   3.389 -1.0132 -0.5087 -1.4378
   8723SM   C8S11634   5.546   1.927   3.585 -0.8875 -0.8002  0.2008
   8723SM   H8S11635   5.565   1.824   3.621 -1.4626 -0.9191  0.1756
   8723SM   H8T11636   5.440   1.949   3.611 -0.9756  1.4863 -1.7782
   8723SM   C9S11637   5.630   2.038   3.654 -0.3380  0.6278  0.2839
   8723SM   H9S11638   5.600   2.137   3.615 -1.7082 -0.1875 -0.8372
   8723SM   H9T11639   5.737   2.017   3.630 -0.5248  0.5395 -0.5071
   8723SM  C10S11640   5.604   2.049   3.807 -0.0644  0.0649  0.0822
   8723SM  H10S11641   5.493   2.048   3.810 -0.0376  0.0535  1.5893
   8723SM  H10T11642   5.645   2.141   3.855 -0.1035 -0.1242  0.4805
   8723SM  C11S11643   5.656   1.928   3.888  0.4836  0.2642 -0.1577
   8723SM  H11S11644   5.764   1.908   3.870  0.6600 -0.4682  1.5208
   8723SM  H11T11645   5.598   1.835   3.871 -0.3804  0.8474 -0.4778
   8723SM  C12S11646   5.643   1.960   4.039 -0.3027  0.4181 -1.1762
   8723SM  H12S11647   5.552   2.018   4.064 -0.9434 -1.0841  0.1692
   8723SM  H12T11648   5.728   2.025   4.068 -0.7867 -0.3389  2.4187
   8723SM  C13S11649   5.644   1.839   4.132 -0.5977  0.2645 -0.1634
   8723SM  H13S11650   5.741   1.785   4.119 -1.5629 -2.0268  1.4408
   8723SM  H13T11651   5.568   1.758   4.124 -0.7341  0.3762  0.0055
   8723SM  C14S11652   5.647   1.875   4.278  0.1768  0.0970 -0.0503
   8723SM  H14S11653   5.570   1.954   4.292 -0.2143 -0.0411 -1.3068
   8723SM  H14T11654   5.739   1.927   4.313 -0.0074  0.4032 -0.0220
   8723SM  C15S11655   5.626   1.752   4.370 -0.3650  0.0712 -0.1084
   8723SM  H15S11656   5.713   1.686   4.354  0.0077  0.3312  0.7792
   8723SM  H15T11657   5.553   1.675   4.338  1.0906 -1.2389 -0.3396
   8723SM  C16S11658   5.608   1.795   4.520  0.4971  0.5349 -0.1648
   8723SM  H16S11659   5.513   1.851   4.517 -1.4647 -2.5449  0.2486
   8723SM  H16T11660   5.680   1.870   4.559  0.5999  0.6817 -0.6315
   8723SM  C17S11661   5.589   1.668   4.603 -0.5548  0.7294 -0.8854
   8723SM  H17S11662   5.514   1.604   4.552  0.5305 -3.3633  2.2033
   8723SM  H17T11663   5.539   1.691   4.700 -0.9972 -0.8658 -0.7061
   8723SM  C18S11664   5.730   1.606   4.629  0.4506 -0.1999  0.5215
   8723SM  H18S11665   5.784   1.608   4.532  1.9168  0.6352  1.3272
   8723SM  H18T11666   5.728   1.503   4.671 -0.7824 -0.5131 -0.2709
   8723SM  H18U11667   5.788   1.668   4.701  0.6161 -0.2264  0.4116
   8723SM   C1F11668   5.354   2.189   2.961 -0.6177 -0.1962  0.3820
   8723SM    OF11669   5.247   2.170   2.906 -0.0993 -0.6526 -0.0362
   8723SM   C2F11670   5.405   2.329   2.994 -0.1511  0.0154 -0.0255
   8723SM   H2F11671   5.489   2.357   2.927 -0.5316 -0.2702 -0.6407
   8723SM   H2G11672   5.433   2.319   3.101 -0.0773 -0.0831 -0.0542
   8723SM   C3F11673   5.283   2.425   2.985 -0.7300 -0.3903  0.3021
   8723SM   H3F11674   5.193   2.382   3.035 -0.0897 -2.7359 -0.4726
   8723SM   H3G11675   5.259   2.450   2.879 -0.4146 -0.5817  0.1860
   8723SM   C4F11676   5.319   2.559   3.052 -0.4159 -0.6398 -0.4180
   8723SM   H4F11677   5.250   2.645   3.035  0.5182 -0.1040 -1.6516
   8723SM   H4G11678   5.421   2.590   3.021 -0.9997  0.9779 -0.8263
   8723SM   C5F11679   5.297   2.545   3.203 -0.3132  0.0270  0.7111
   8723SM   H5F11680   5.371   2.471   3.241  1.4679  1.1097 -0.4548
   8723SM   H5G11681   5.190   2.528   3.228 -0.1237 -1.6205  0.4855
   8723SM   C6F11682   5.331   2.668   3.279  0.2615  0.0050 -0.5915
   8723SM   H6F11683   5.270   2.759   3.261  0.1896 -0.1822 -1.3031
   8723SM   H6G11684   5.433   2.702   3.252  0.0633  0.2291 -1.0585
   8723SM   C7F11685   5.344   2.637   3.431 -0.6953 -0.7608 -0.1322
   8723SM   H7F11686   5.422   2.559   3.431 -0.6672 -0.8264 -2.4610
   8723SM   H7G11687   5.247   2.592   3.462 -1.0230 -0.0475 -0.0910
   8723SM   C8F11688   5.388   2.760   3.517 -0.0690  0.1294  0.3559
   8723SM   H8F11689   5.315   2.842   3.500 -0.8863 -0.2776  1.7508
   8723SM   H8G11690   5.481   2.787   3.461  0.2352  0.0959  0.8395
   8723SM   C9F11691   5.395   2.725   3.666  0.2786 -0.2323  0.2804
   8723SM   H9F11692   5.462   2.638   3.684 -1.4828 -2.1313 -1.7089
   8723SM   H9G11693   5.289   2.705   3.696  0.4905 -0.7328  0.7151
   8723SM  C10F11694   5.449   2.842   3.753  0.4450  0.7337 -0.0629
   8723SM  H10F11695   5.374   2.923   3.740  0.1891  0.8017  1.6995
   8723SM  H10G11696   5.546   2.878   3.711  0.7379 -1.1144 -1.0674
   8723SM  C11F11697   5.474   2.799   3.904  0.2459 -0.2336  0.7212
   8723SM  H11F11698   5.555   2.723   3.909 -0.7861 -1.3181  1.4318
   8723SM  H11G11699   5.385   2.737   3.930  0.8012 -1.4866 -0.2488
   8723SM  C12F11700   5.520   2.919   3.988  0.2365 -0.2573 -0.5064
   8723SM  H12F11701   5.436   2.990   4.002 -0.5565 -1.0996 -0.8420
   8723SM  H12G11702   5.595   2.976   3.928  0.9978 -3.1949 -2.6022
   8723SM  C13F11703   5.582   2.876   4.118  0.1486  0.6789  0.3117
   8723SM  H13F11704   5.582   2.963   4.187 -0.6369  2.0512 -1.3502
   8723SM  H13G11705   5.685   2.837   4.104 -0.2377  0.1437 -1.2143
   8723SM  C14F11706   5.505   2.759   4.190  0.5930  0.6742 -0.3866
   8723SM  H14F11707   5.509   2.665   4.130  0.0544 -0.7553  1.7172
   8723SM  H14G11708   5.397   2.783   4.195  0.7466  1.1043  1.0756
   8723SM  C15F11709   5.547   2.723   4.331 -0.3643  0.2770 -0.1164
   8723SM  H15F11710   5.644   2.670   4.327 -1.7845 -2.5171  0.3219
   8723SM  H15G11711   5.467   2.656   4.368 -1.6312  2.0466  0.5331
   8723SM  C16F11712   5.567   2.841   4.427 -0.0070  0.2311  0.4351
   8723SM  H16F11713   5.468   2.890   4.438 -0.2078  0.5082 -2.1022
   8723SM  H16G11714   5.640   2.915   4.387 -0.8138 -0.1922 -1.9482
   8723SM  C17F11715   5.600   2.799   4.573 -0.4838  1.0295  0.4732
   8723SM  H17F11716   5.707   2.772   4.579 -1.0140 -1.5307 -0.3323
   8723SM  H17G11717   5.533   2.714   4.598  1.4188 -0.2116  1.5363
   8723SM  C18F11718   5.575   2.908   4.677 -0.1760 -0.2867  0.7645
   8723SM  H18F11719   5.477   2.958   4.665  0.2536  0.6066  0.9383
   8723SM  H18G11720   5.659   2.981   4.669  2.0034 -2.7019  0.1433
   8723SM  C19F11721   5.593   2.863   4.825  0.2008  0.2920 -0.2355
   8723SM  H19F11722   5.690   2.812   4.844 -0.1702 -0.7023 -0.9479
   8723SM  H19G11723   5.514   2.787   4.838  1.2042 -0.4329  1.9580
   8723SM  C20F11724   5.583   2.975   4.929  0.5413 -0.0542  0.1872
   8723SM  H20F11725   5.479   3.011   4.920  0.8110  0.7571  0.1853
   8723SM  H20G11726   5.642   3.064   4.897 -1.0651  1.0947  0.3537
   8723SM  C21F11727   5.623   2.930   5.071  0.1896  0.3134  0.1682
   8723SM  H21F11728   5.732   2.923   5.091 -0.1132 -0.8066  1.5766
   8723SM  H21G11729   5.570   2.835   5.092  1.2072 -0.4393 -0.5758
   8723SM  C22F11730   5.581   3.044   5.176 -0.4972 -0.0516 -0.0469
   8723SM  H22F11731   5.574   2.996   5.275  1.3632  0.7001  0.4803
   8723SM  H22G11732   5.485   3.077   5.130 -0.0972  1.2315  0.0008
   8723SM  C23F11733   5.661   3.175   5.158 -0.0608 -0.2972  0.0094
   8723SM  H23F11734   5.609   3.269   5.186  0.7035  0.7224 -1.7694
   8723SM  H23G11735   5.693   3.194   5.053 -4.1169 -0.7103 -1.4918
   8723SM  H23H11736   5.751   3.161   5.222  0.4744  2.0132 -0.1304
   8823SM     N11737   3.027   2.888   2.742  0.3167  0.2091  1.1174
   8823SM   C1511738   2.900   2.969   2.730 -0.0478  0.1482  0.1922
   8823SM  H15A11739   2.849   2.956   2.636  0.3566 -0.7983  0.0970
   8823SM  H15B11740   2.917   3.075   2.741 -2.2237  0.5650 -0.1198
   8823SM  H15C11741   2.829   2.944   2.807  0.5055 -1.0341  0.3353
   8823SM   C1411742   2.983   2.744   2.722 -0.1482  0.2717 -0.9770
   8823SM  H14A11743   2.910   2.722   2.799 -2.3040  1.5431 -2.5339
   8823SM  H14B11744   3.072   2.683   2.734 -0.1121  0.0720 -2.1961
   8823SM  H14C11745   2.940   2.727   2.625 -1.3356  2.5271 -0.9279
   8823SM   C1311746   3.117   2.922   2.634  0.1702  0.4113 -0.1980
   8823SM  H13A11747   3.198   2.851   2.644  0.0103  0.1989 -0.3826
   8823SM  H13B11748   3.159   3.020   2.644 -0.5995  0.7446 -0.1486
   8823SM  H13C11749   3.064   2.915   2.540  0.4231  0.8217 -0.3714
   8823SM   C1211750   3.089   2.914   2.884 -0.0505  0.0601 -0.3932
   8823SM  H12A11751   3.138   3.009   2.878  0.6772 -0.3616 -1.2039
   8823SM  H12B11752   3.168   2.841   2.895  1.5007  1.2230 -3.0757
   8823SM   C1111753   2.987   2.913   3.006 -0.7080  0.3130 -0.1195
   8823SM  H11A11754   2.900   2.980   2.992 -0.8082  0.5905  1.6409
   8823SM  H11B11755   3.041   2.945   3.098  0.8799 -1.0747 -0.5061
   8823SM     P11756   2.825   2.755   3.137  0.2223  0.1876  0.3350
   8823SM   O1311757   2.696   2.812   3.091 -0.1654 -0.1175  0.3369
   8823SM   O1411758   2.819   2.612   3.169  0.3072  0.2955 -0.5606
   8823SM   O1111759   2.875   2.840   3.253  0.7425  0.5151 -0.2265
   8823SM   O1211760   2.933   2.783   3.029  0.1268  0.1273  0.1060
   8823SM   C1S11761   2.898   2.768   3.375  0.0841  0.3347 -0.6759
   8823SM   H1S11762   2.997   2.719   3.364 -0.1901  0.0379 -2.0128
   8823SM   H1T11763   2.817   2.694   3.390 -1.2357  1.7973 -0.3995
   8823SM    NF11764   2.958   2.776   3.618 -0.5134  0.5694  0.3207
   8823SM   HNF11765   2.897   2.753   3.693 -0.3012  1.6099  0.8353
   8823SM   C2S11766   2.907   2.856   3.505  0.4980  0.1407 -0.5253
   8823SM   H2S11767   2.986   2.929   3.479  0.6664 -0.7107 -2.6224
   8823SM   C3S11768   2.776   2.930   3.531 -0.0786  0.0005 -0.6032
   8823SM   H3S11769   2.692   2.862   3.556 -1.1395  2.2298  2.5519
   8823SM    O311770   2.733   3.001   3.408  0.0767  0.1621  0.2888
   8823SM   HO311771   2.795   2.964   3.345 -1.5484 -0.0108 -1.2761
   8823SM   C4S11772   2.786   3.035   3.635 -0.3630  0.3171  0.4199
   8823SM   H4S11773   2.866   3.110   3.622 -1.0960  0.9060 -0.8535
   8823SM   C5S11774   2.736   3.026   3.763 -0.0781 -0.3439 -0.2542
   8823SM   H5S11775   2.685   2.934   3.795 -0.5506  0.3682  1.0796
   8823SM   C6S11776   2.767   3.124   3.873  0.7746 -0.7908 -0.2546
   8823SM   H6S11777   2.784   3.225   3.830  1.8565  0.0401  1.9856
   8823SM   H6T11778   2.858   3.096   3.929 -0.1687  0.1710  1.8774
   8823SM   C7S11779   2.650   3.123   3.966  0.7750 -0.4792 -0.2180
   8823SM   H7S11780   2.645   3.024   4.016  1.0034  0.1985  1.1997
   8823SM   H7T11781   2.551   3.146   3.919 -0.2093  1.3569  2.4923
   8823SM   C8S11782   2.665   3.232   4.071 -0.0533 -0.0473  0.1494
   8823SM   H8S11783   2.640   3.327   4.020 -0.1328  0.1747  0.5932
   8823SM   H8T11784   2.774   3.231   4.091  0.1733  1.3275 -0.8618
   8823SM   C9S11785   2.580   3.210   4.197 -0.2930 -0.5562  0.7241
   8823SM   H9S11786   2.581   3.100   4.213  0.8823 -0.6936 -0.1834
   8823SM   H9T11787   2.477   3.242   4.170  0.5019 -0.7566 -2.9955
   8823SM  C10S11788   2.636   3.260   4.328  0.1320 -0.8790 -0.7927
   8823SM  H10S11789   2.670   3.363   4.307  0.7812 -1.4574 -2.8720
   8823SM  H10T11790   2.720   3.195   4.362  1.2555  0.6755 -0.5193
   8823SM  C11S11791   2.524   3.262   4.435  0.1467 -0.1537 -0.0535
   8823SM  H11S11792   2.522   3.164   4.487 -1.5736  0.6868  1.5666
   8823SM  H11T11793   2.428   3.271   4.380  0.7848  2.2399 -0.9104
   8823SM  C12S11794   2.522   3.383   4.538 -0.3049  0.3443 -0.3765
   8823SM  H12S11795   2.428   3.386   4.596  0.6834  0.0666  1.2937
   8823SM  H12T11796   2.527   3.476   4.477  0.1370  0.6135  0.0598
   8823SM  C13S11797   2.656   3.390   4.623  0.2665  0.5293 -0.2105
   8823SM  H13S11798   2.747   3.407   4.560  0.3137 -0.4597 -0.4163
   8823SM  H13T11799   2.672   3.290   4.667  1.3507 -0.1846 -2.1066
   8823SM  C14S11800   2.643   3.505   4.730  0.3046 -0.4123  0.4150
   8823SM  H14S11801   2.670   3.598   4.676 -0.0095 -0.6526 -0.1663
   8823SM  H14T11802   2.726   3.491   4.803  1.4285  1.0098 -0.5463
   8823SM  C15S11803   2.515   3.521   4.808  0.0252 -0.5061  0.2349
   8823SM  H15S11804   2.491   3.416   4.835  1.5924 -0.9536 -0.0252
   8823SM  H15T11805   2.443   3.582   4.750  0.7874  0.1955  0.0066
   8823SM  C16S11806   2.530   3.602   4.937 -0.2109 -0.0211  0.4880
   8823SM  H16S11807   2.611   3.673   4.912 -1.6402  0.6502 -2.6699
   8823SM  H16T11808   2.569   3.538   5.019  0.4458 -0.4272 -0.1351
   8823SM  C17S11809   2.405   3.687   4.973  0.0870  0.2619 -0.0723
   8823SM  H17S11810   2.328   3.607   4.978  1.7372 -1.3372  0.5859
   8823SM  H17T11811   2.372   3.756   4.892 -0.9008 -1.1285 -0.9068
   8823SM  C18S11812   2.407   3.754   5.109 -0.6988 -0.0490 -0.1314
   8823SM  H18S11813   2.308   3.797   5.136 -0.5616  1.3599 -1.7005
   8823SM  H18T11814   2.491   3.826   5.123 -0.5838 -0.3382  0.7029
   8823SM  H18U11815   2.425   3.683   5.192 -0.2498 -0.4538 -0.5741
   8823SM   C1F11816   3.079   2.717   3.620  0.5883 -0.3862  0.1548
   8823SM    OF11817   3.157   2.734   3.526 -0.2792  0.2328 -0.4735
   8823SM   C2F11818   3.116   2.625   3.735  0.0970 -0.4376 -0.5208
   8823SM   H2F11819   3.201   2.564   3.700 -0.4340 -2.5586  1.6447
   8823SM   H2G11820   3.028   2.559   3.748  0.0053 -0.4625 -1.2232
   8823SM   C3F11821   3.157   2.703   3.866 -0.5080  0.1686  0.0339
   8823SM   H3F11822   3.081   2.781   3.890 -1.6946  0.0333 -2.9172
   8823SM   H3G11823   3.246   2.766   3.846  0.3547 -0.6747  1.0725
   8823SM   C4F11824   3.195   2.609   3.977 -0.0883 -0.6084  0.7416
   8823SM   H4F11825   3.284   2.552   3.944  1.0225  1.4464 -0.0363
   8823SM   H4G11826   3.118   2.529   3.984  0.3601 -1.5746 -3.0990
   8823SM   C5F11827   3.211   2.686   4.110  0.2358  0.1643 -0.3591
   8823SM   H5F11828   3.118   2.747   4.118  0.5125  1.3243 -4.0270
   8823SM   H5G11829   3.290   2.763   4.099 -1.5370  1.8901 -1.9065
   8823SM   C6F11830   3.250   2.597   4.224 -0.0908 -0.1225 -0.1131
   8823SM   H6F11831   3.360   2.584   4.218 -0.0514  0.8613 -3.5501
   8823SM   H6G11832   3.193   2.502   4.215  2.5987 -1.8108 -0.3009
   8823SM   C7F11833   3.225   2.642   4.369  0.0130  0.2426 -0.2781
   8823SM   H7F11834   3.119   2.669   4.386  0.4374  1.8217  0.0633
   8823SM   H7G11835   3.291   2.730   4.388  0.4396  0.2495 -1.7082
   8823SM   C8F11836   3.269   2.539   4.479 -0.2135 -0.4844 -0.3093
   8823SM   H8F11837   3.370   2.502   4.452  0.3603  0.8891 -0.1708
   8823SM   H8G11838   3.211   2.445   4.469 -2.9746  1.1780 -1.1400
   8823SM   C9F11839   3.262   2.591   4.619  0.2633 -0.6803 -0.1913
   8823SM   H9F11840   3.160   2.594   4.662  0.1627 -2.7963 -0.1873
   8823SM   H9G11841   3.299   2.696   4.616  0.0331 -0.6074 -0.5976
   8823SM  C10F11842   3.349   2.506   4.716 -0.1550 -0.2025  0.0372
   8823SM  H10F11843   3.439   2.483   4.655 -0.8184 -1.3256 -0.5572
   8823SM  H10G11844   3.298   2.408   4.731 -1.7332  0.3617 -1.3934
   8823SM  C11F11845   3.363   2.562   4.863 -0.5723 -0.0955 -0.4513
   8823SM  H11F11846   3.260   2.585   4.899 -0.2665 -0.2726  0.5844
   8823SM  H11G11847   3.427   2.652   4.857  0.2906 -0.6250  0.4596
   8823SM  C12F11848   3.439   2.456   4.961 -0.0130 -0.7682  0.2071
   8823SM  H12F11849   3.376   2.374   5.001  0.9076 -0.8400  1.5801
   8823SM  H12G11850   3.463   2.515   5.052  0.8079  0.2345 -0.6323
   8823SM  C13F11851   3.570   2.391   4.900 -0.1043  0.1599  0.1587
   8823SM  H13F11852   3.645   2.464   4.863  0.4932 -0.7337 -0.4269
   8823SM  H13G11853   3.541   2.342   4.805 -1.0373  0.0116  0.5088
   8823SM  C14F11854   3.636   2.291   4.994 -0.5919 -0.2648  1.0472
   8823SM  H14F11855   3.561   2.241   5.059 -0.2231 -2.8655 -0.4129
   8823SM  H14G11856   3.708   2.347   5.058  0.8552 -0.4539 -0.3471
   8823SM  C15F11857   3.720   2.189   4.911 -0.3693  0.7432 -1.3214
   8823SM  H15F11858   3.797   2.254   4.866 -0.6439  2.9209  1.1357
   8823SM  H15G11859   3.651   2.139   4.839  1.8489 -0.0617 -3.0110
   8823SM  C16F11860   3.792   2.093   5.012 -0.4535  0.8157 -0.0189
   8823SM  H16F11861   3.723   2.036   5.077 -1.2626  1.8794  0.0905
   8823SM  H16G11862   3.855   2.163   5.071  1.6206 -0.4080 -0.6566
   8823SM  C17F11863   3.885   1.995   4.946  0.5029  0.3025  0.0938
   8823SM  H17F11864   3.965   2.056   4.898  0.6751 -0.1697 -0.2296
   8823SM  H17G11865   3.846   1.937   4.860 -2.5725  0.4953  1.2391
   8823SM  C18F11866   3.947   1.899   5.050  0.0376 -0.9460  0.1360
   8823SM  H18F11867   3.871   1.834   5.100 -0.1930 -1.4898 -0.8962
   8823SM  H18G11868   3.986   1.959   5.135 -2.2539  0.2424  0.4526
   8823SM  C19F11869   4.059   1.824   4.986 -0.0605  0.2314  0.2767
   8823SM  H19F11870   4.129   1.901   4.946 -2.0004  2.0446  0.1895
   8823SM  H19G11871   4.010   1.768   4.903 -0.3686  0.7081  0.1328
   8823SM  C20F11872   4.147   1.738   5.080  0.0005  0.1046 -0.0278
   8823SM  H20F11873   4.204   1.660   5.025  0.4253  0.4558 -0.0885
   8823SM  H20G11874   4.081   1.690   5.156 -0.9100  2.5281  0.7966
   8823SM  C21F11875   4.243   1.825   5.156 -0.0227  0.1475 -1.1309
   8823SM  H21F11876   4.178   1.883   5.226 -0.1149 -0.4210 -0.7444
   8823SM  H21G11877   4.303   1.874   5.077  1.9039 -0.5824 -0.1869
   8823SM  C22F11878   4.336   1.742   5.243  0.2971 -0.0778 -0.0955
   8823SM  H22F11879   4.266   1.678   5.302 -0.5419  0.9247  0.0262
   8823SM  H22G11880   4.388   1.808   5.316 -1.0265  0.0834  0.7402
   8823SM  C23F11881   4.441   1.652   5.178  0.3560 -0.9136  0.2547
   8823SM  H23F11882   4.505   1.713   5.111  0.9463  1.1934  2.6078
   8823SM  H23G11883   4.398   1.561   5.131 -0.4396 -0.2015 -0.4185
   8823SM  H23H11884   4.511   1.610   5.253 -0.2064 -1.1945  0.6322
   8923SM     N11885   7.649   2.755   3.117  0.9558 -0.1661 -0.4030
   8923SM   C1511886   7.657   2.899   3.081  0.2483 -0.5335  0.4864
   8923SM  H15A11887   7.657   2.947   3.178  0.6283 -0.1689  0.3118
   8923SM  H15B11888   7.574   2.923   3.017  0.6284 -1.2700 -0.2954
   8923SM  H15C11889   7.746   2.923   3.024  0.1153  0.8137  0.8041
   8923SM   C1411890   7.640   2.688   2.986 -0.1198  0.2395 -0.4037
   8923SM  H14A11891   7.737   2.695   2.938 -0.7760 -1.7046 -2.1973
   8923SM  H14B11892   7.575   2.731   2.911  0.7714  1.9001 -0.2705
   8923SM  H14C11893   7.621   2.582   2.995  0.4282  0.1961  0.2882
   8923SM   C1311894   7.777   2.707   3.183  0.5789 -0.7158 -0.2287
   8923SM  H13A11895   7.772   2.601   3.207 -0.6884 -0.2343  1.8697
   8923SM  H13B11896   7.789   2.757   3.278 -2.1897  0.8343 -0.6155
   8923SM  H13C11897   7.859   2.725   3.115 -0.6861 -1.4810 -2.0382
   8923SM   C1211898   7.520   2.736   3.190 -0.4558  0.4362 -0.2767
   8923SM  H12A11899   7.447   2.794   3.137 -1.4668 -0.5042  0.0683
   8923SM  H12B11900   7.530   2.790   3.283 -1.0031  1.4069 -0.7673
   8923SM   C1111901   7.476   2.596   3.221  0.3293 -0.3776  0.0748
   8923SM  H11A11902   7.419   2.598   3.316  0.0842  2.4498 -0.0679
   8923SM  H11B11903   7.568   2.538   3.247  0.6238 -0.0533 -0.2397
   8923SM     P11904   7.264   2.558   3.071  0.0840 -0.2638  0.2051
   8923SM   O1311905   7.247   2.689   3.000  0.3357 -0.2286  0.5088
   8923SM   O1411906   7.205   2.447   2.990 -0.1418  0.3045  0.3181
   8923SM   O1111907   7.190   2.571   3.212 -0.5195 -0.3953  0.2731
   8923SM   O1211908   7.411   2.527   3.114 -0.5933  0.0091 -0.4412
   8923SM   C1S11909   7.126   2.463   3.269 -0.1038  0.0759  0.3886
   8923SM   H1S11910   7.192   2.374   3.273  2.9139  2.1141 -0.4653
   8923SM   H1T11911   7.031   2.436   3.218 -0.5234  0.9456  0.6883
   8923SM    NF11912   7.042   2.380   3.486 -0.5831 -0.0372 -0.1006
   8923SM   HNF11913   6.946   2.365   3.508 -0.4629 -0.4832  0.1470
   8923SM   C2S11914   7.080   2.495   3.417 -0.6511  0.5824 -0.0207
   8923SM   H2S11915   7.172   2.527   3.470 -0.9916  0.1684  0.8309
   8923SM   C3S11916   6.975   2.611   3.416 -0.3060 -0.2745  0.6637
   8923SM   H3S11917   6.885   2.573   3.363  0.4143  1.0023 -1.6121
   8923SM    O311918   7.009   2.724   3.326 -0.1282  0.1882 -0.2807
   8923SM   HO311919   7.080   2.700   3.266 -1.4260 -1.0912 -1.3643
   8923SM   C4S11920   6.950   2.648   3.555 -0.3755 -0.1215 -0.2712
   8923SM   H4S11921   6.869   2.587   3.599  0.2822 -2.4762 -2.1183
   8923SM   C5S11922   6.999   2.754   3.616 -0.1228  0.0074  0.9661
   8923SM   H5S11923   7.051   2.826   3.550 -1.6211  1.6133  1.4550
   8923SM   C6S11924   6.957   2.803   3.756  0.3683 -0.3044  0.8580
   8923SM   H6S11925   6.891   2.892   3.743  0.2154  0.1317  3.7969
   8923SM   H6T11926   7.045   2.839   3.814 -2.4266  3.3805  3.3175
   8923SM   C7S11927   6.880   2.699   3.842  0.0257  0.0043 -0.0472
   8923SM   H7S11928   6.945   2.609   3.835  0.2110 -0.1351  2.5489
   8923SM   H7T11929   6.779   2.681   3.798 -0.7545  0.9331  1.3222
   8923SM   C8S11930   6.844   2.756   3.976  0.9189 -0.3711  0.0049
   8923SM   H8S11931   6.756   2.823   3.976 -1.2629 -3.0548  0.4339
   8923SM   H8T11932   6.933   2.811   4.013  1.1954 -0.1490 -0.9827
   8923SM   C9S11933   6.810   2.646   4.079 -1.1327  0.1012 -0.4728
   8923SM   H9S11934   6.885   2.567   4.060 -0.4176  0.6267  0.0963
   8923SM   H9T11935   6.708   2.609   4.058 -1.1581 -0.3555  0.4425
   8923SM  C10S11936   6.805   2.691   4.226  0.6694  0.2760  0.8527
   8923SM  H10S11937   6.733   2.774   4.244 -0.2815 -0.4188  0.3277
   8923SM  H10T11938   6.898   2.738   4.266  0.2037  3.5306 -1.4606
   8923SM  C11S11939   6.759   2.575   4.308 -0.4819  0.2892  0.1509
   8923SM  H11S11940   6.833   2.492   4.296  0.4842  1.2321 -0.6594
   8923SM  H11T11941   6.660   2.538   4.275 -1.0027  0.8392  1.0370
   8923SM  C12S11942   6.751   2.611   4.458  0.0154 -0.3508  0.4134
   8923SM  H12S11943   6.711   2.521   4.509 -1.5452 -0.9782 -1.7871
   8923SM  H12T11944   6.674   2.691   4.467 -1.0178 -1.0572 -1.6477
   8923SM  C13S11945   6.875   2.661   4.538 -0.0598  0.4295  0.1646
   8923SM  H13S11946   6.916   2.760   4.508  4.7394 -0.8984  1.5023
   8923SM  H13T11947   6.948   2.586   4.503 -1.6879 -0.9270 -0.4766
   8923SM  C14S11948   6.872   2.636   4.687 -0.0879 -0.4620 -0.8434
   8923SM  H14S11949   6.836   2.533   4.704  0.7345 -0.5817  0.2493
   8923SM  H14T11950   6.797   2.697   4.742  0.5742  1.2100 -1.7123
   8923SM  C15S11951   7.010   2.649   4.747  0.6447  0.3525  0.2156
   8923SM  H15S11952   7.063   2.733   4.697  0.8650  0.5632  0.7921
   8923SM  H15T11953   7.069   2.557   4.728 -0.2196  0.1258 -1.4950
   8923SM  C16S11954   7.014   2.702   4.885  0.2082  0.1357 -0.4259
   8923SM  H16S11955   6.957   2.627   4.944  0.0232  0.0460 -0.7169
   8923SM  H16T11956   6.965   2.802   4.892 -0.2747  0.0823 -2.5242
   8923SM  C17S11957   7.154   2.721   4.948  0.7322  0.6252  0.1593
   8923SM  H17S11958   7.189   2.618   4.968  1.1838  0.7798  0.1948
   8923SM  H17T11959   7.127   2.768   5.045  1.4236 -0.3466  0.8384
   8923SM  C18S11960   7.252   2.809   4.869 -0.0671 -0.4568  0.1028
   8923SM  H18S11961   7.225   2.916   4.862  0.0049 -0.4595 -0.2524
   8923SM  H18T11962   7.262   2.760   4.769 -1.3589 -0.5969  0.0219
   8923SM  H18U11963   7.353   2.809   4.914  0.2596 -2.2195 -0.5353
   8923SM   C1F11964   7.120   2.276   3.527 -0.8311  0.1008  0.0688
   8923SM    OF11965   7.233   2.264   3.495 -0.1117 -0.0611 -0.3086
   8923SM   C2F11966   7.050   2.169   3.611 -0.0660 -0.1346  0.3993
   8923SM   H2F11967   6.985   2.091   3.566  0.7824 -1.4816  1.4300
   8923SM   H2G11968   6.998   2.218   3.697 -1.2453  0.8172 -0.8135
   8923SM   C3F11969   7.163   2.080   3.680 -0.2868  0.2482 -0.3845
   8923SM   H3F11970   7.230   2.126   3.756  1.6492 -1.9025 -0.6493
   8923SM   H3G11971   7.225   2.030   3.602 -0.5237 -0.0994 -0.3526
   8923SM   C4F11972   7.100   1.967   3.760 -0.4147 -0.0955  0.0003
   8923SM   H4F11973   7.178   1.907   3.810 -0.0065 -0.6434 -1.2386
   8923SM   H4G11974   7.053   1.892   3.692  0.1009 -1.2353  0.8787
   8923SM   C5F11975   7.009   2.005   3.875 -0.6473 -0.1917 -0.4504
   8923SM   H5F11976   6.905   2.007   3.836  0.2465  0.2359 -2.9968
   8923SM   H5G11977   7.026   2.105   3.920 -1.2456  0.1950 -1.0644
   8923SM   C6F11978   7.016   1.899   3.989 -0.0029  0.3079 -0.2915
   8923SM   H6F11979   7.123   1.884   4.017 -0.9402 -0.9838  3.0226
   8923SM   H6G11980   6.985   1.796   3.960 -2.5924  0.5400  1.2978
   8923SM   C7F11981   6.941   1.938   4.120 -0.2589  0.0536 -0.2588
   8923SM   H7F11982   6.835   1.916   4.095  0.0327 -0.4625 -1.0750
   8923SM   H7G11983   6.949   2.047   4.141 -2.2517  0.1612  0.0656
   8923SM   C8F11984   7.001   1.869   4.243 -0.2444  0.4301 -0.0933
   8923SM   H8F11985   6.977   1.918   4.340 -0.7698 -1.6333  0.8730
   8923SM   H8G11986   7.112   1.876   4.253 -0.2824  0.3102  0.4356
   8923SM   C9F11987   6.939   1.730   4.267 -0.2916  0.1483 -0.3002
   8923SM   H9F11988   6.961   1.656   4.188 -0.5391  0.3178 -0.5291
   8923SM   H9G11989   6.834   1.765   4.259  0.0642  1.2922 -0.2590
   8923SM  C10F11990   6.982   1.671   4.398  0.4402  0.5413 -0.1645
   8923SM  H10F11991   6.963   1.750   4.475  0.4726 -1.4028  1.9313
   8923SM  H10G11992   7.092   1.654   4.395  0.2296 -1.4922  1.6053
   8923SM  C11F11993   6.916   1.532   4.422 -0.3498 -0.0853 -0.5664
   8923SM  H11F11994   6.980   1.461   4.480 -2.1856 -0.2518  1.3889
   8923SM  H11G11995   6.885   1.495   4.322 -1.5127 -1.7640  0.3555
   8923SM  C12F11996   6.785   1.544   4.502 -0.9950  0.5665  0.5989
   8923SM  H12F11997   6.722   1.632   4.481 -1.8478 -0.0638  0.4558
   8923SM  H12G11998   6.815   1.556   4.609 -2.2133  1.5963  0.8394
   8923SM  C13F11999   6.699   1.420   4.488  0.8606 -0.4596  0.3135
   8923SM  H13F12000   6.765   1.331   4.478  2.3247  0.8552 -3.2982
   8923SM  H13G12001   6.640   1.434   4.394  0.0807 -2.8921  0.3552
   8923SM  C14F12002   6.591   1.416   4.598  0.5774  0.0215  0.9767
   8923SM  H14F12003   6.511   1.491   4.579  0.2311 -1.0298 -2.5082
   8923SM  H14G12004   6.631   1.440   4.699  1.3299  1.4012  0.3793
   8923SM  C15F12005   6.538   1.271   4.608 -0.0792  0.0567 -0.2369
   8923SM  H15F12006   6.619   1.197   4.627 -2.0394 -1.9000  1.0734
   8923SM  H15G12007   6.502   1.245   4.505  1.6786  1.3433 -1.2295
   8923SM  C16F12008   6.427   1.247   4.706  0.1111  0.4014  0.1737
   8923SM  H16F12009   6.361   1.160   4.688 -1.0381  0.4258  3.5915
   8923SM  H16G12010   6.357   1.334   4.710  2.1507  2.0715  2.9423
   8923SM  C17F12011   6.477   1.231   4.855  0.0622  0.7314  0.6191
   8923SM  H17F12012   6.515   1.330   4.889  1.6282  0.1698  0.5843
   8923SM  H17G12013   6.562   1.160   4.864 -0.2866  0.2537  0.2183
   8923SM  C18F12014   6.363   1.179   4.941 -0.8018 -0.4941 -0.0892
   8923SM  H18F12015   6.340   1.077   4.904 -0.5740 -0.2018 -1.0615
   8923SM  H18G12016   6.273   1.239   4.916 -1.6695 -1.4035  0.7471
   8923SM  C19F12017   6.407   1.169   5.088 -0.2222 -0.2304 -0.1716
   8923SM  H19F12018   6.447   1.266   5.125  2.0850 -1.0793 -0.2893
   8923SM  H19G12019   6.489   1.093   5.087 -2.3016 -2.6200 -1.4988
   8923SM  C20F12020   6.303   1.115   5.187  0.2798  0.2090 -0.2096
   8923SM  H20F12021   6.353   1.083   5.281  0.5252 -1.4953 -0.8760
   8923SM  H20G12022   6.238   1.038   5.140 -1.0594  1.1470  0.0458
   8923SM  C21F12023   6.196   1.217   5.238 -0.6245  0.9183  0.0077
   8923SM  H21F12024   6.145   1.271   5.156 -0.6807 -2.2446 -2.2330
   8923SM  H21G12025   6.248   1.292   5.302 -0.2340  0.3897  0.3209
   8923SM  C22F12026   6.088   1.167   5.330  0.0291 -0.2351 -1.0932
   8923SM  H22F12027   6.060   1.066   5.293  2.8901 -0.8719 -1.7825
   8923SM  H22G12028   5.992   1.221   5.316  0.0387  0.5588  1.3949
   8923SM  C23F12029   6.121   1.162   5.482 -0.2588 -0.7887  0.4926
   8923SM  H23F12030   6.049   1.102   5.541 -0.3503 -0.1997  0.9904
   8923SM  H23G12031   6.125   1.263   5.529 -0.2523 -0.1676 -0.7977
   8923SM  H23H12032   6.219   1.113   5.497  1.0991  1.3856 -0.5853
   9023SM     N12033   5.428   2.405   2.364 -0.6841  0.9451  0.5694
   9023SM   C1512034   5.309   2.444   2.449  0.3631  0.9992  0.2748
   9023SM  H15A12035   5.275   2.544   2.429 -2.7382 -0.5829 -3.6548
   9023SM  H15B12036   5.335   2.432   2.553  2.3206 -0.7062 -0.3319
   9023SM  H15C12037   5.228   2.377   2.426  0.7520  0.7409 -0.3547
   9023SM   C1412038   5.384   2.412   2.223 -0.2567  0.4353 -0.6784
   9023SM  H14A12039   5.285   2.371   2.203  0.1666 -0.3495 -1.2394
   9023SM  H14B12040   5.452   2.367   2.153  1.3030 -0.2022  1.1687
   9023SM  H14C12041   5.386   2.515   2.191  3.7380  0.1406 -1.8334
   9023SM   C1312042   5.526   2.515   2.389 -0.2822  0.4145  1.0154
   9023SM  H13A12043   5.608   2.501   2.321 -0.2235  1.6752  0.8163
   9023SM  H13B12044   5.560   2.509   2.492 -0.3460  1.3866  1.0988
   9023SM  H13C12045   5.482   2.612   2.372 -1.6399 -0.2960  0.3003
   9023SM   C1212046   5.489   2.273   2.404 -0.1633 -0.3074 -0.5134
   9023SM  H12A12047   5.582   2.248   2.356 -0.3396 -1.7153 -0.1858
   9023SM  H12B12048   5.419   2.198   2.370 -0.1752 -0.2206 -0.6770
   9023SM   C1112049   5.501   2.256   2.564 -0.0855  0.1824  0.2162
   9023SM  H11A12050   5.524   2.148   2.580 -1.8254 -0.3883 -0.7816
   9023SM  H11B12051   5.402   2.274   2.613 -0.1560  1.9990 -0.5482
   9023SM     P12052   5.746   2.317   2.624  0.0394  0.3821 -0.1604
   9023SM   O1312053   5.787   2.275   2.490  0.2740  0.4148 -0.3150
   9023SM   O1412054   5.826   2.430   2.677 -0.7289  0.6011  0.5754
   9023SM   O1112055   5.761   2.197   2.720 -0.0574  0.3622  0.3343
   9023SM   O1212056   5.590   2.353   2.625  0.0210  0.3775 -0.3544
   9023SM   C1S12057   5.779   2.217   2.863  0.0698  0.3410 -0.3541
   9023SM   H1S12058   5.681   2.245   2.907 -0.6278 -0.7244 -1.1735
   9023SM   H1T12059   5.862   2.287   2.888  1.4509 -1.3535 -0.0166
   9023SM    NF12060   5.866   2.130   3.083 -0.3320  0.3445  0.3049
   9023SM   HNF12061   5.963   2.137   3.102 -0.2258  1.2591 -0.5013
   9023SM   C2S12062   5.820   2.089   2.941  0.3009  0.0780  0.0411
   9023SM   H2S12063   5.733   2.022   2.960  0.4597 -0.8817 -2.2665
   9023SM   C3S12064   5.921   2.002   2.861  0.6101 -0.3854 -1.2790
   9023SM   H3S12065   6.007   2.071   2.853 -1.4524  2.9991  2.2468
   9023SM    O312066   5.877   1.968   2.731 -0.5262 -0.1138 -0.3024
   9023SM   HO312067   5.809   2.027   2.697  1.3909  1.5944 -1.4482
   9023SM   C4S12068   5.974   1.893   2.944  0.0023  0.7127  0.1835
   9023SM   H4S12069   6.062   1.906   3.010  0.0739 -0.1732  0.2770
   9023SM   C5S12070   5.921   1.769   2.951 -0.7370 -0.2010  0.4282
   9023SM   H5S12071   5.845   1.732   2.881 -0.7805  0.8682 -0.1009
   9023SM   C6S12072   5.974   1.662   3.042  0.0128  0.0624 -0.0730
   9023SM   H6S12073   5.888   1.618   3.097 -0.6854  1.8516  0.3283
   9023SM   H6T12074   6.038   1.707   3.122 -1.4984  1.1371  0.5772
   9023SM   C7S12075   6.047   1.544   2.973 -0.0741  0.4082 -0.3409
   9023SM   H7S12076   6.118   1.591   2.901 -2.4441  2.5972 -1.4278
   9023SM   H7T12077   5.977   1.478   2.917  0.8676 -0.0941 -0.9350
   9023SM   C8S12078   6.141   1.467   3.071  0.9509  0.2837  0.7201
   9023SM   H8S12079   6.075   1.416   3.144  1.1520 -0.5406  0.3317
   9023SM   H8T12080   6.203   1.541   3.126 -1.4884  2.7144  0.4146
   9023SM   C9S12081   6.223   1.359   2.991 -0.0407 -0.0235  0.5003
   9023SM   H9S12082   6.279   1.412   2.911 -1.1359 -0.4942 -0.6285
   9023SM   H9T12083   6.147   1.289   2.950  0.7721 -1.8953  2.0788
   9023SM  C10S12084   6.317   1.274   3.074  0.5255 -0.0391 -0.4840
   9023SM  H10S12085   6.326   1.171   3.034  1.0258 -0.0318 -0.4030
   9023SM  H10T12086   6.288   1.279   3.181 -2.2435  0.0685 -1.1809
   9023SM  C11S12087   6.460   1.333   3.078 -0.4181 -0.0811  0.7029
   9023SM  H11S12088   6.459   1.437   3.116  1.0977  0.9857 -1.8806
   9023SM  H11T12089   6.487   1.342   2.970 -0.4525 -0.1812  0.6854
   9023SM  C12S12090   6.571   1.252   3.153 -0.4575 -0.1058  0.3585
   9023SM  H12S12091   6.572   1.145   3.123 -0.0855  0.0661 -0.2418
   9023SM  H12T12092   6.557   1.264   3.263  0.4512  2.3601  0.2708
   9023SM  C13S12093   6.711   1.317   3.119 -0.3479 -0.9073  0.7052
   9023SM  H13S12094   6.695   1.425   3.142 -0.7967 -1.0917  1.2851
   9023SM  H13T12095   6.720   1.301   3.009  0.9293 -0.9111  0.8010
   9023SM  C14S12096   6.825   1.265   3.207  0.4372 -0.3471  0.4784
   9023SM  H14S12097   6.813   1.155   3.209  0.9145 -0.4307 -0.7575
   9023SM  H14T12098   6.802   1.303   3.309 -0.0420  3.0581 -0.7491
   9023SM  C15S12099   6.962   1.302   3.170 -0.3229  0.7057 -0.3793
   9023SM  H15S12100   6.966   1.406   3.129 -0.0938 -0.2652 -2.9770
   9023SM  H15T12101   7.007   1.239   3.091  0.6721 -1.0050  1.4489
   9023SM  C16S12102   7.062   1.292   3.295 -0.3287 -0.4592 -0.3893
   9023SM  H16S12103   7.014   1.343   3.382 -0.2527 -1.1464  0.0656
   9023SM  H16T12104   7.159   1.341   3.272 -0.1534 -1.1346 -1.1129
   9023SM  C17S12105   7.088   1.150   3.343  0.3376 -0.6030  0.0108
   9023SM  H17S12106   7.120   1.085   3.258  1.5707  0.8006 -0.6282
   9023SM  H17T12107   6.990   1.110   3.379 -0.5944  0.8877 -0.7808
   9023SM  C18S12108   7.184   1.135   3.456 -1.0097  0.2603  0.3020
   9023SM  H18S12109   7.155   1.190   3.548  1.1549 -0.0090  1.2102
   9023SM  H18T12110   7.280   1.187   3.431 -1.7848  0.2961 -2.9862
   9023SM  H18U12111   7.206   1.029   3.481  0.1644  0.5124  0.3966
   9023SM   C1F12112   5.777   2.191   3.164 -0.5469  0.5471  0.6476
   9023SM    OF12113   5.661   2.161   3.146 -0.3372  0.0592  0.1181
   9023SM   C2F12114   5.828   2.283   3.274  0.4676  0.1729  0.1078
   9023SM   H2F12115   5.829   2.376   3.213  0.7169  0.4022  0.4644
   9023SM   H2G12116   5.931   2.263   3.309  0.2281  0.5790  1.0890
   9023SM   C3F12117   5.722   2.301   3.386  0.3619  0.0719 -0.2718
   9023SM   H3F12118   5.730   2.207   3.444  2.5751 -1.4294 -2.8354
   9023SM   H3G12119   5.616   2.321   3.356  0.1660  1.4428  1.1705
   9023SM   C4F12120   5.769   2.418   3.474  0.2136  0.2458 -0.8241
   9023SM   H4F12121   5.749   2.516   3.427  1.4733  0.2887 -1.3100
   9023SM   H4G12122   5.880   2.418   3.471  0.2420 -0.5164 -0.1067
   9023SM   C5F12123   5.727   2.405   3.622  0.1455 -0.5270  0.6119
   9023SM   H5F12124   5.764   2.309   3.662  0.6056  0.4149  2.5645
   9023SM   H5G12125   5.617   2.415   3.636  0.1049 -0.0468 -0.0051
   9023SM   C6F12126   5.792   2.508   3.715 -0.0428  0.0692  0.4821
   9023SM   H6F12127   5.757   2.610   3.688  0.5203  0.3933  0.9576
   9023SM   H6G12128   5.901   2.500   3.694 -0.1132 -1.5828  0.6129
   9023SM   C7F12129   5.767   2.482   3.862  0.6363 -0.9456  0.0488
   9023SM   H7F12130   5.791   2.375   3.872 -0.7784 -1.1989  1.1149
   9023SM   H7G12131   5.657   2.500   3.872  0.6714 -1.2992  1.1460
   9023SM   C8F12132   5.846   2.578   3.947 -0.5127 -0.1351 -1.0683
   9023SM   H8F12133   5.810   2.672   3.901 -0.7807 -0.4521 -1.5213
   9023SM   H8G12134   5.952   2.569   3.917 -0.2398 -0.3702 -0.0772
   9023SM   C9F12135   5.835   2.549   4.092 -0.5569 -0.0599 -0.1684
   9023SM   H9F12136   5.727   2.554   4.116 -0.6813  3.8569 -0.8364
   9023SM   H9G12137   5.867   2.638   4.151 -0.5004 -0.9188  1.1378
   9023SM  C10F12138   5.896   2.411   4.124  0.0507  0.2532 -0.0533
   9023SM  H10F12139   6.004   2.401   4.101 -0.1805 -0.0203 -1.0545
   9023SM  H10G12140   5.842   2.338   4.060  0.2345  0.7085 -0.7375
   9023SM  C11F12141   5.869   2.370   4.268  0.1585 -0.3227  0.1259
   9023SM  H11F12142   5.850   2.262   4.283 -2.7627  0.2018  0.8897
   9023SM  H11G12143   5.766   2.410   4.283  0.1391 -0.6152  0.8113
   9023SM  C12F12144   5.963   2.437   4.368  0.1179 -0.3898  0.0774
   9023SM  H12F12145   6.008   2.528   4.322  1.7088 -2.3521 -2.5679
   9023SM  H12G12146   6.042   2.368   4.405 -1.4324 -0.3389  3.8896
   9023SM  C13F12147   5.886   2.493   4.489  1.2082 -0.0379  0.1447
   9023SM  H13F12148   5.826   2.412   4.536  1.3905  0.9208  2.1441
   9023SM  H13G12149   5.808   2.570   4.468  0.5778 -0.3893  1.1334
   9023SM  C14F12150   5.982   2.547   4.598  0.0424 -0.3730  0.0883
   9023SM  H14F12151   6.031   2.638   4.557 -0.9357  1.0018  1.8154
   9023SM  H14G12152   6.063   2.477   4.624  0.0634 -0.3629  0.0497
   9023SM  C15F12153   5.919   2.580   4.734  0.6812  0.3266 -0.1693
   9023SM  H15F12154   5.872   2.486   4.770 -0.4898  0.6827 -0.7323
   9023SM  H15G12155   5.845   2.661   4.719  0.4638  0.3609  0.9728
   9023SM  C16F12156   6.024   2.617   4.837  0.3075  0.0447  0.2767
   9023SM  H16F12157   6.084   2.706   4.809 -1.4096  0.4258 -2.6402
   9023SM  H16G12158   6.092   2.531   4.855  1.5561  1.3520  2.2230
   9023SM  C17F12159   5.967   2.632   4.982 -0.6480  0.2074  0.1867
   9023SM  H17F12160   5.924   2.536   5.019  3.7971 -2.5160 -0.9769
   9023SM  H17G12161   5.889   2.710   4.995 -0.1501  0.9833 -1.3106
   9023SM  C18F12162   6.073   2.671   5.089 -0.4347 -0.2925  0.6410
   9023SM  H18F12163   6.107   2.777   5.082 -0.9158 -0.0882  1.2630
   9023SM  H18G12164   6.168   2.615   5.078 -0.1934  0.2360 -0.0373
   9023SM  C19F12165   6.032   2.629   5.224  0.5753 -0.6285 -0.1133
   9023SM  H19F12166   6.105   2.675   5.295  1.0381 -0.6036 -0.5992
   9023SM  H19G12167   6.032   2.519   5.238 -0.6110 -0.3907  2.1835
   9023SM  C20F12168   5.891   2.681   5.265  0.1235  0.1263 -0.1533
   9023SM  H20F12169   5.807   2.639   5.206 -0.6731 -0.8267  1.5907
   9023SM  H20G12170   5.879   2.792   5.262 -0.8062  0.0723  0.6771
   9023SM  C21F12171   5.861   2.636   5.410  0.4087 -0.1413  0.1415
   9023SM  H21F12172   5.948   2.589   5.460  0.0613  0.6988  1.5787
   9023SM  H21G12173   5.779   2.561   5.410  0.3354 -0.1362  2.6966
   9023SM  C22F12174   5.817   2.746   5.503  0.4702  0.4590  0.1452
   9023SM  H22F12175   5.715   2.778   5.474  0.9002  0.3334 -1.6276
   9023SM  H22G12176   5.879   2.838   5.504 -1.5907  1.8930  0.3988
   9023SM  C23F12177   5.805   2.696   5.648 -0.6083 -0.5005  0.3831
   9023SM  H23F12178   5.738   2.608   5.656  1.2914 -2.2402 -1.5428
   9023SM  H23G12179   5.779   2.790   5.702 -2.4458  0.1389 -1.4818
   9023SM  H23H12180   5.898   2.664   5.701 -0.6605  0.3921  1.0354
   9123SM     N12181   6.855   5.163   2.666  0.3488 -0.4962  0.4918
   9123SM   C1512182   6.727   5.239   2.687  0.0018  0.4288  0.3767
   9123SM  H15A12183   6.646   5.168   2.697 -1.1373  1.8451  1.7732
   9123SM  H15B12184   6.701   5.306   2.606  0.2967 -0.1566 -0.2131
   9123SM  H15C12185   6.725   5.303   2.774 -0.3637 -0.4630  1.0405
   9123SM   C1412186   6.830   5.066   2.554  0.2798 -0.0560 -0.5955
   9123SM  H14A12187   6.921   5.031   2.506 -1.2145 -0.8981 -2.9803
   9123SM  H14B12188   6.774   5.107   2.472 -0.1376  0.4685 -0.0572
   9123SM  H14C12189   6.772   4.982   2.589  0.1048 -0.1713 -1.1626
   9123SM   C1312190   6.967   5.264   2.632 -0.9528  0.1614  0.2548
   9123SM  H13A12191   6.995   5.317   2.722  0.8777 -1.4280  0.6746
   9123SM  H13B12192   6.943   5.335   2.553 -1.1790 -1.2371 -0.9764
   9123SM  H13C12193   7.053   5.212   2.593 -1.8145 -0.2475 -1.1775
   9123SM   C1212194   6.884   5.079   2.790  0.2996  0.3321  0.2510
   9123SM  H12A12195   6.970   5.017   2.768  0.4983  0.5573  0.3862
   9123SM  H12B12196   6.804   5.008   2.808  0.3893 -0.4469 -2.1072
   9123SM   C1112197   6.899   5.155   2.918 -0.6498  0.5152 -0.8073
   9123SM  H11A12198   6.896   5.077   2.997  0.4564  1.6023  0.3367
   9123SM  H11B12199   6.817   5.221   2.953 -1.0111 -0.6415  0.6235
   9123SM     P12200   7.155   5.172   2.954 -0.0224 -0.3948  0.1174
   9123SM   O1312201   7.157   5.024   2.940  0.7808 -0.3594  0.5777
   9123SM   O1412202   7.260   5.245   2.877  0.1970 -0.3720  0.1484
   9123SM   O1112203   7.163   5.198   3.110 -0.2684 -0.9556  0.2571
   9123SM   O1212204   7.011   5.237   2.922 -0.0963 -0.1330 -0.0493
   9123SM   C1S12205   7.078   5.137   3.204 -0.7408  1.0448  0.1225
   9123SM   H1S12206   7.049   5.032   3.179  0.6194  0.9807 -1.4261
   9123SM   H1T12207   6.985   5.194   3.218 -1.2706 -0.3326  3.0246
   9123SM    NF12208   7.079   5.043   3.438 -0.4892  0.4617  0.2763
   9123SM   HNF12209   7.011   5.082   3.499 -1.3406  0.0106 -0.3698
   9123SM   C2S12210   7.148   5.130   3.346 -0.5120  0.2936  0.3735
   9123SM   H2S12211   7.241   5.077   3.319 -1.3894 -1.1693  0.0859
   9123SM   C3S12212   7.168   5.271   3.393 -0.1160 -0.4384  0.8020
   9123SM   H3S12213   7.069   5.321   3.405  1.1370  2.5232 -0.3447
   9123SM    O312214   7.239   5.357   3.306  0.2678 -0.5589  0.8931
   9123SM   HO312215   7.225   5.319   3.219  0.4091 -0.2306  0.7253
   9123SM   C4S12216   7.232   5.281   3.542  0.1102 -0.1499  0.3186
   9123SM   H4S12217   7.321   5.218   3.556 -0.5418 -0.5005  3.4133
   9123SM   C5S12218   7.187   5.352   3.646 -0.2080 -0.9987  0.1856
   9123SM   H5S12219   7.097   5.412   3.628 -1.5447 -2.4342  1.7827
   9123SM   C6S12220   7.256   5.373   3.780 -0.1844  0.0958  0.4779
   9123SM   H6S12221   7.191   5.334   3.862  0.5852 -0.2911  0.9079
   9123SM   H6T12222   7.283   5.480   3.795  1.1011 -0.0511 -0.5768
   9123SM   C7S12223   7.394   5.306   3.780  0.4829 -0.6708 -0.5400
   9123SM   H7S12224   7.464   5.341   3.700  1.3909  2.9942  1.6067
   9123SM   H7T12225   7.390   5.196   3.772  0.7039 -0.8907  1.7230
   9123SM   C8S12226   7.475   5.322   3.909 -0.3623 -0.8440 -0.4661
   9123SM   H8S12227   7.550   5.240   3.905  1.7280  1.0407 -2.9205
   9123SM   H8T12228   7.417   5.310   4.003 -1.4071 -1.8767 -1.2179
   9123SM   C9S12229   7.554   5.448   3.921 -0.3024 -0.0576 -0.1086
   9123SM   H9S12230   7.542   5.491   4.023 -2.0706  1.2002 -0.7856
   9123SM   H9T12231   7.538   5.532   3.849 -0.1595  1.3048  1.3948
   9123SM  C10S12232   7.702   5.433   3.900 -0.6114  0.0175  0.4767
   9123SM  H10S12233   7.729   5.417   3.794  0.2916  2.1924  0.3310
   9123SM  H10T12234   7.750   5.345   3.949 -0.4860 -0.4384 -0.4421
   9123SM  C11S12235   7.778   5.565   3.931  0.6449  1.3460  0.0057
   9123SM  H11S12236   7.755   5.593   4.036  1.2277  1.6535  0.0549
   9123SM  H11T12237   7.722   5.638   3.870 -1.9158 -0.4298  0.0766
   9123SM  C12S12238   7.931   5.549   3.891  0.7542  0.0925 -0.1417
   9123SM  H12S12239   7.970   5.653   3.901  0.5743  0.1839 -0.3989
   9123SM  H12T12240   7.943   5.506   3.789  2.7333 -1.3712  0.6437
   9123SM  C13S12241   8.017   5.467   3.987  0.1148 -0.0056 -0.0936
   9123SM  H13S12242   7.993   5.359   3.984 -0.1593  0.0650 -2.6544
   9123SM  H13T12243   7.999   5.499   4.092 -0.6338 -2.9722  0.7786
   9123SM  C14S12244   8.170   5.480   3.958  0.4672 -0.3539 -0.0044
   9123SM  H14S12245   8.227   5.415   4.028  0.2273 -0.9543 -0.3574
   9123SM  H14T12246   8.202   5.584   3.979  1.8384 -1.0089  1.3810
   9123SM  C15S12247   8.202   5.444   3.809 -0.6432 -0.0214  0.0921
   9123SM  H15S12248   8.175   5.529   3.743  1.3757  1.0149  0.5243
   9123SM  H15T12249   8.147   5.354   3.773 -2.2105  0.2281  1.7013
   9123SM  C16S12250   8.353   5.421   3.786 -0.0775  0.1673 -0.0238
   9123SM  H16S12251   8.386   5.357   3.871 -3.6124 -0.8480  0.7350
   9123SM  H16T12252   8.391   5.525   3.795 -1.5451  0.7086  0.0640
   9123SM  C17S12253   8.399   5.334   3.656  0.9200 -0.0220 -0.1505
   9123SM  H17S12254   8.377   5.386   3.560 -1.7523  0.8228  0.8338
   9123SM  H17T12255   8.353   5.235   3.637 -0.8811  1.0917 -2.0284
   9123SM  C18S12256   8.544   5.309   3.647 -0.3049 -0.6599 -0.2889
   9123SM  H18S12257   8.578   5.258   3.740  0.3561  1.2188  0.5556
   9123SM  H18T12258   8.595   5.408   3.655  0.4943 -1.0092 -1.0206
   9123SM  H18U12259   8.574   5.236   3.570  1.8373 -0.9439  0.7408
   9123SM   C1F12260   7.090   4.908   3.428 -0.0590  0.8999  0.6831
   9123SM    OF12261   7.156   4.858   3.343 -0.0653  0.1339 -0.4958
   9123SM   C2F12262   6.995   4.831   3.505  0.7593 -0.0454  0.7884
   9123SM   H2F12263   6.892   4.872   3.504  0.8991  0.3096 -0.5453
   9123SM   H2G12264   7.033   4.831   3.610  1.6703 -1.0966  0.4875
   9123SM   C3F12265   6.982   4.685   3.468  0.3689  0.5013  0.0418
   9123SM   H3F12266   7.087   4.649   3.471 -0.1389 -0.9929  0.8638
   9123SM   H3G12267   6.943   4.675   3.364  1.2724 -0.8232 -0.1937
   9123SM   C4F12268   6.893   4.603   3.564 -0.2209 -0.4156 -0.1678
   9123SM   H4F12269   6.864   4.501   3.528 -1.6619 -1.5706  3.7053
   9123SM   H4G12270   6.793   4.652   3.568  0.6265  1.4482 -1.0581
   9123SM   C5F12271   6.950   4.590   3.703 -1.0539  0.1156  0.0644
   9123SM   H5F12272   7.044   4.649   3.707 -0.4377 -0.8340 -0.1064
   9123SM   H5G12273   6.974   4.483   3.720  0.1143  0.1094 -1.3501
   9123SM   C6F12274   6.860   4.641   3.814  0.0109 -0.2658 -0.2927
   9123SM   H6F12275   6.757   4.610   3.788 -0.0196  0.3923 -0.9581
   9123SM   H6G12276   6.869   4.752   3.809  0.8128 -0.3479 -0.8200
   9123SM   C7F12277   6.891   4.575   3.952  0.0307 -0.7824  0.0860
   9123SM   H7F12278   6.943   4.479   3.932  0.0800 -0.4361 -1.6041
   9123SM   H7G12279   6.795   4.553   4.003  0.9098  0.7414  2.5572
   9123SM   C8F12280   6.979   4.665   4.044  0.5149  0.7875 -0.6967
   9123SM   H8F12281   6.929   4.764   4.055  0.4687  0.8180 -1.1519
   9123SM   H8G12282   7.082   4.674   4.004  1.1604 -1.4741  0.3301
   9123SM   C9F12283   6.986   4.615   4.195 -0.1880 -0.1803 -0.4649
   9123SM   H9F12284   7.024   4.511   4.205 -2.3955 -1.0142 -0.3848
   9123SM   H9G12285   6.884   4.618   4.238 -0.7302  0.9386 -1.7351
   9123SM  C10F12286   7.079   4.718   4.278  0.3350  0.4868  0.2568
   9123SM  H10F12287   7.033   4.818   4.264 -1.5437 -0.2953  0.5288
   9123SM  H10G12288   7.174   4.721   4.220  1.6440 -1.0893  2.1927
   9123SM  C11F12289   7.083   4.699   4.437  0.4506 -0.1736  0.5155
   9123SM  H11F12290   6.981   4.700   4.482  1.1026  0.2955  2.0706
   9123SM  H11G12291   7.132   4.786   4.484 -3.6780  2.5884  0.2057
   9123SM  C12F12292   7.148   4.567   4.474 -0.2071  0.3887  0.6257
   9123SM  H12F12293   7.076   4.486   4.450 -0.8576  1.2891 -0.5730
   9123SM  H12G12294   7.173   4.550   4.581 -0.9238 -2.0313  0.4805
   9123SM  C13F12295   7.281   4.531   4.397  0.2016 -0.1614  0.9560
   9123SM  H13F12296   7.271   4.531   4.286  0.3933  1.0258  0.9341
   9123SM  H13G12297   7.304   4.428   4.433 -1.0469  0.0371  2.4127
   9123SM  C14F12298   7.402   4.623   4.443 -0.7238 -0.5816  0.0006
   9123SM  H14F12299   7.381   4.636   4.552 -1.1668  1.3501 -0.2724
   9123SM  H14G12300   7.401   4.727   4.405  0.2772 -0.6049 -0.0994
   9123SM  C15F12301   7.542   4.558   4.439 -0.1008 -0.1695  0.4908
   9123SM  H15F12302   7.523   4.465   4.497  1.3737  0.0384  1.3490
   9123SM  H15G12303   7.619   4.614   4.496 -1.0278  0.9702  0.6566
   9123SM  C16F12304   7.592   4.520   4.302  0.5888  0.2109  0.6747
   9123SM  H16F12305   7.611   4.604   4.232 -0.2966  0.1936  0.4057
   9123SM  H16G12306   7.513   4.473   4.239  1.6385 -0.3605 -0.2609
   9123SM  C17F12307   7.708   4.423   4.305 -0.5574  0.5134 -0.7357
   9123SM  H17F12308   7.675   4.323   4.268  0.4645  0.3691 -1.2982
   9123SM  H17G12309   7.745   4.406   4.408  2.1055 -1.7526 -1.9416
   9123SM  C18F12310   7.834   4.468   4.231 -0.4039  0.1835  0.5712
   9123SM  H18F12311   7.931   4.423   4.261  0.1666  1.7450  1.1753
   9123SM  H18G12312   7.856   4.572   4.263 -0.3845  0.8154 -1.3684
   9123SM  C19F12313   7.805   4.476   4.075  0.0860  0.3842 -0.0122
   9123SM  H19F12314   7.713   4.533   4.051 -2.1430 -2.5967  0.8917
   9123SM  H19G12315   7.772   4.377   4.038  2.6247 -0.5203 -0.0824
   9123SM  C20F12316   7.919   4.537   3.996 -0.0310  0.7732 -0.8794
   9123SM  H20F12317   8.000   4.461   3.988  0.0539  0.9510 -1.8679
   9123SM  H20G12318   7.955   4.623   4.056  0.2974  1.6032 -2.2254
   9123SM  C21F12319   7.891   4.580   3.851 -0.0554 -0.4711 -0.0624
   9123SM  H21F12320   7.830   4.672   3.867 -0.1501 -0.6794  0.7884
   9123SM  H21G12321   7.831   4.503   3.798 -2.6020  1.1730  0.2687
   9123SM  C22F12322   8.018   4.616   3.776  0.1157  0.0064 -0.3207
   9123SM  H22F12323   8.073   4.519   3.778 -0.5487 -0.3615  0.9653
   9123SM  H22G12324   8.074   4.700   3.821  0.1182  0.2877 -0.8411
   9123SM  C23F12325   8.001   4.654   3.630  0.3426  0.3358  0.4653
   9123SM  H23F12326   7.951   4.575   3.570  0.2587 -0.5155  1.6278
   9123SM  H23G12327   8.093   4.683   3.574  0.6641 -1.7368 -0.1442
   9123SM  H23H12328   7.923   4.733   3.626 -0.3596 -0.3703  0.0837
   9223SM     N12329   5.167   1.451   2.782 -1.0927 -0.8005 -0.2281
   9223SM   C1512330   5.032   1.421   2.726 -0.4311  0.1156 -0.0822
   9223SM  H15A12331   5.024   1.459   2.625  0.5593  0.4169 -0.0658
   9223SM  H15B12332   4.948   1.458   2.783 -0.9516  1.0549 -1.4114
   9223SM  H15C12333   5.029   1.314   2.723  3.9226 -0.2454  1.0612
   9223SM   C1412334   5.186   1.357   2.900  0.6666 -0.7928  0.7014
   9223SM  H14A12335   5.191   1.255   2.865  1.0383  0.2262 -2.5384
   9223SM  H14B12336   5.100   1.374   2.963 -1.2478 -1.2088 -1.6149
   9223SM  H14C12337   5.277   1.367   2.957  0.9062  2.4923 -0.0845
   9223SM   C1312338   5.278   1.428   2.684 -0.7199  0.4699 -0.1100
   9223SM  H13A12339   5.376   1.423   2.730 -0.0108  0.9701 -1.4914
   9223SM  H13B12340   5.269   1.502   2.605 -0.6916 -2.3530 -2.9641
   9223SM  H13C12341   5.267   1.330   2.640  0.8257 -0.6699  1.8823
   9223SM   C1212342   5.172   1.598   2.836 -0.9939  0.3198 -0.1298
   9223SM  H12A12343   5.165   1.657   2.746  0.5780 -0.0871 -0.5523
   9223SM  H12B12344   5.272   1.623   2.868 -1.5195  0.2615  1.6763
   9223SM   C1112345   5.071   1.638   2.950 -0.1485 -0.2686 -0.6148
   9223SM  H11A12346   5.085   1.748   2.961  2.1109 -0.5638 -0.0671
   9223SM  H11B12347   5.099   1.597   3.050 -0.2291 -1.9106 -1.2377
   9223SM     P12348   4.834   1.578   3.026 -0.1472 -0.1852  0.3453
   9223SM   O1312349   4.704   1.551   2.958 -0.4142 -0.8661 -0.9393
   9223SM   O1412350   4.879   1.460   3.102 -0.7710  0.2588  0.4015
   9223SM   O1112351   4.833   1.701   3.120 -0.3108  0.1716 -0.1784
   9223SM   O1212352   4.937   1.609   2.912 -0.3843  0.0185 -0.1685
   9223SM   C1S12353   4.801   1.822   3.050 -0.3846 -0.0492 -0.5389
   9223SM   H1S12354   4.703   1.802   3.002 -1.8400 -0.7339  2.4678
   9223SM   H1T12355   4.872   1.844   2.968 -1.0303  0.2402 -1.0269
   9223SM    NF12356   4.889   1.985   3.217  0.7077  0.3101  0.2181
   9223SM   HNF12357   4.897   1.954   3.311 -0.7599 -1.3378 -0.1581
   9223SM   C2S12358   4.768   1.931   3.151 -0.6601 -0.9393 -0.3978
   9223SM   H2S12359   4.730   2.012   3.086 -1.6233 -3.7104 -3.5569
   9223SM   C3S12360   4.664   1.893   3.261  0.0667 -0.7898  0.2496
   9223SM   H3S12361   4.709   1.812   3.322 -0.5764 -0.8119  0.7025
   9223SM    O312362   4.546   1.855   3.199  0.3950 -0.1325  0.0357
   9223SM   HO312363   4.575   1.803   3.124  0.4338  0.1757 -0.1631
   9223SM   C4S12364   4.624   2.017   3.338  0.0212 -0.0804 -0.1448
   9223SM   H4S12365   4.631   2.108   3.277  1.4273  0.2098  0.4085
   9223SM   C5S12366   4.614   2.016   3.475 -0.1837  0.0370 -0.1837
   9223SM   H5S12367   4.649   1.924   3.525 -1.5502  0.2209  1.1746
   9223SM   C6S12368   4.589   2.131   3.560  0.3632  0.3368  0.5592
   9223SM   H6S12369   4.481   2.127   3.584 -0.2273 -1.5223 -1.9997
   9223SM   H6T12370   4.600   2.225   3.502 -0.9514 -1.1503 -2.3320
   9223SM   C7S12371   4.678   2.146   3.681  0.7333  0.5142 -0.2048
   9223SM   H7S12372   4.780   2.166   3.644 -0.2744 -0.0897 -3.7423
   9223SM   H7T12373   4.686   2.052   3.740 -2.6650 -0.1459 -0.5571
   9223SM   C8S12374   4.613   2.249   3.780  0.0949  0.2188  0.6928
   9223SM   H8S12375   4.517   2.213   3.824  0.3098 -1.5305 -0.1721
   9223SM   H8T12376   4.593   2.341   3.720 -0.8555 -0.4159 -0.0052
   9223SM   C9S12377   4.707   2.275   3.891 -0.3358  0.5510 -0.9674
   9223SM   H9S12378   4.804   2.318   3.858  0.7829 -1.2072 -0.1493
   9223SM   H9T12379   4.731   2.176   3.936  0.1340  0.6332 -1.0321
   9223SM  C10S12380   4.666   2.382   4.000 -0.3984  0.3864  0.2877
   9223SM  H10S12381   4.576   2.347   4.054  0.9124  1.9082  3.7955
   9223SM  H10T12382   4.642   2.482   3.959  0.4913  0.7248  0.5573
   9223SM  C11S12383   4.771   2.404   4.115  0.3637  0.6825 -0.1780
   9223SM  H11S12384   4.716   2.467   4.188 -3.8978 -0.7558 -1.8379
   9223SM  H11T12385   4.873   2.441   4.090  1.0099 -0.1639  1.1141
   9223SM  C12S12386   4.811   2.279   4.187 -0.3307  0.8127  0.0374
   9223SM  H12S12387   4.864   2.208   4.120 -1.6172  0.1964 -0.3494
   9223SM  H12T12388   4.728   2.226   4.237 -0.2095  0.7048  0.1260
   9223SM  C13S12389   4.920   2.311   4.292  0.3689  0.7453 -0.4111
   9223SM  H13S12390   4.881   2.390   4.360 -0.5515 -0.4076  0.4292
   9223SM  H13T12391   5.016   2.339   4.242  0.2005 -0.7966 -1.6825
   9223SM  C14S12392   4.948   2.194   4.389  1.0925  0.2975  1.0167
   9223SM  H14S12393   4.987   2.118   4.319 -0.7268  1.8829 -1.9161
   9223SM  H14T12394   4.855   2.166   4.444  0.5600 -2.9085 -1.2287
   9223SM  C15S12395   5.053   2.231   4.496 -0.3601  0.8561  0.8582
   9223SM  H15S12396   5.016   2.309   4.567 -0.2693  0.0229  1.8434
   9223SM  H15T12397   5.149   2.267   4.453 -1.4213  0.4368 -2.0472
   9223SM  C16S12398   5.096   2.106   4.577  0.3742 -0.1161 -0.2893
   9223SM  H16S12399   5.159   2.033   4.522  0.9368  0.4189 -0.3596
   9223SM  H16T12400   5.009   2.050   4.618 -0.3142  0.1875 -1.3118
   9223SM  C17S12401   5.191   2.139   4.695  0.1242  0.0048 -0.5595
   9223SM  H17S12402   5.139   2.205   4.768  0.3598 -0.7029  0.2695
   9223SM  H17T12403   5.277   2.194   4.652 -0.1229  1.4767  0.7332
   9223SM  C18S12404   5.245   2.017   4.774  0.2054 -0.0159  0.5812
   9223SM  H18S12405   5.310   1.948   4.716 -1.9059 -0.1111 -1.8579
   9223SM  H18T12406   5.160   1.947   4.790  1.1044 -1.0976  0.7375
   9223SM  H18U12407   5.292   2.053   4.868 -1.7102  0.0374  1.5694
   9223SM   C1F12408   4.986   2.043   3.154 -0.5337 -0.0556  0.0781
   9223SM    OF12409   4.978   2.090   3.043 -0.2906 -0.9178 -0.1406
   9223SM   C2F12410   5.116   2.049   3.228 -0.5517  0.1268 -0.5495
   9223SM   H2F12411   5.202   2.014   3.167 -0.0103  0.1533  0.1856
   9223SM   H2G12412   5.103   1.972   3.307 -0.0245  0.1993 -0.3898
   9223SM   C3F12413   5.143   2.189   3.292  0.1274 -0.1087 -0.0886
   9223SM   H3F12414   5.077   2.197   3.380  0.7232 -0.3620  0.3856
   9223SM   H3G12415   5.131   2.268   3.214 -1.4997 -0.2017  0.0304
   9223SM   C4F12416   5.290   2.187   3.342 -0.4429 -0.2117 -0.0197
   9223SM   H4F12417   5.363   2.195   3.259  1.7885  1.5543  2.0023
   9223SM   H4G12418   5.297   2.086   3.387  0.1611  0.4548  1.4483
   9223SM   C5F12419   5.318   2.285   3.460 -0.6925  0.5595 -1.0218
   9223SM   H5F12420   5.281   2.387   3.432 -0.5181  1.4249  1.5984
   9223SM   H5G12421   5.428   2.295   3.472 -0.8314  0.9958 -0.0668
   9223SM   C6F12422   5.263   2.249   3.603  0.6615 -0.5326  0.0460
   9223SM   H6F12423   5.295   2.145   3.628  0.8517 -0.1389  1.4998
   9223SM   H6G12424   5.153   2.244   3.588  0.4708 -3.6424  1.6568
   9223SM   C7F12425   5.319   2.346   3.719  0.6222 -0.0364 -0.6268
   9223SM   H7F12426   5.268   2.445   3.706 -0.0083 -0.5687 -2.5060
   9223SM   H7G12427   5.429   2.348   3.706  0.8894 -2.0057  0.8690
   9223SM   C8F12428   5.285   2.290   3.859 -0.2682  0.6400 -0.2452
   9223SM   H8F12429   5.347   2.199   3.876  1.5900  2.2994  2.7367
   9223SM   H8G12430   5.178   2.262   3.865  0.1826 -1.3359 -0.8068
   9223SM   C9F12431   5.326   2.381   3.983 -0.4025 -0.6909  0.3048
   9223SM   H9F12432   5.252   2.462   4.003  2.4540  2.2420 -0.1082
   9223SM   H9G12433   5.418   2.427   3.942 -0.8339  0.7072  0.8282
   9223SM  C10F12434   5.354   2.293   4.109 -0.0993  0.2623 -0.2847
   9223SM  H10F12435   5.416   2.205   4.081 -0.9189 -0.3392 -0.2444
   9223SM  H10G12436   5.255   2.255   4.142  0.1187 -1.2422 -1.2405
   9223SM  C11F12437   5.401   2.367   4.232 -0.5131  0.2161  0.4300
   9223SM  H11F12438   5.327   2.431   4.285  0.5893 -1.2818  4.0620
   9223SM  H11G12439   5.483   2.429   4.190 -1.2193 -0.6106 -2.3514
   9223SM  C12F12440   5.450   2.271   4.340 -0.0351 -0.0493  0.7841
   9223SM  H12F12441   5.550   2.236   4.308 -0.1040 -1.3610  1.9170
   9223SM  H12G12442   5.386   2.180   4.347 -0.6849  0.1755 -1.3801
   9223SM  C13F12443   5.478   2.332   4.481  0.4822 -0.0319  0.4582
   9223SM  H13F12444   5.373   2.349   4.514 -0.4395 -2.6474 -0.9206
   9223SM  H13G12445   5.529   2.431   4.479  0.7558 -0.1177  1.7788
   9223SM  C14F12446   5.557   2.235   4.572 -0.1281  0.0428 -0.0802
   9223SM  H14F12447   5.634   2.186   4.508 -0.3526 -2.2672  1.3123
   9223SM  H14G12448   5.488   2.154   4.605 -1.3936  0.1348 -2.2462
   9223SM  C15F12449   5.618   2.291   4.705  0.0642 -0.3085 -0.1243
   9223SM  H15F12450   5.531   2.328   4.764 -1.0648  2.9837 -3.4424
   9223SM  H15G12451   5.671   2.385   4.679 -0.5973 -0.3190 -1.6170
   9223SM  C16F12452   5.722   2.205   4.781  0.5720  0.1863  0.0543
   9223SM  H16F12453   5.772   2.267   4.858 -1.0548  3.2743 -1.1991
   9223SM  H16G12454   5.802   2.157   4.720 -0.7797 -2.0777 -0.0566
   9223SM  C17F12455   5.659   2.082   4.847  0.0548 -0.9574  0.0305
   9223SM  H17F12456   5.624   2.014   4.767 -0.7985  1.9328 -2.2734
   9223SM  H17G12457   5.584   2.111   4.922  1.0012 -2.8591  1.7970
   9223SM  C18F12458   5.767   2.000   4.931  0.0647  0.4677  0.0720
   9223SM  H18F12459   5.832   2.069   4.990  0.0110 -1.8342  3.1038
   9223SM  H18G12460   5.821   1.920   4.875  0.5077 -0.6629  2.0054
   9223SM  C19F12461   5.701   1.896   5.024 -0.1987 -0.0461  0.0153
   9223SM  H19F12462   5.625   1.840   4.966 -2.4232 -0.7257  3.2734
   9223SM  H19G12463   5.631   1.945   5.095  0.8775  1.1831  0.2672
   9223SM  C20F12464   5.802   1.816   5.095 -0.2623 -0.0798  0.5386
   9223SM  H20F12465   5.772   1.774   5.193 -0.8726  1.3432  0.9876
   9223SM  H20G12466   5.882   1.890   5.117 -0.8904  0.8983 -0.3923
   9223SM  C21F12467   5.865   1.704   5.009 -0.1024  0.1103 -0.1473
   9223SM  H21F12468   5.970   1.672   5.028  0.1100  0.7608 -0.2270
   9223SM  H21G12469   5.858   1.732   4.902 -2.6682 -0.2454 -0.1326
   9223SM  C22F12470   5.785   1.570   5.027  0.2126 -0.2123  0.3848
   9223SM  H22F12471   5.827   1.505   4.948  1.1119  1.1425 -0.2637
   9223SM  H22G12472   5.676   1.591   5.018 -0.0342 -1.9795 -1.3723
   9223SM  C23F12473   5.806   1.499   5.165  0.1824 -0.3756 -0.2954
   9223SM  H23F12474   5.906   1.451   5.172 -1.3013 -3.6439  0.4640
   9223SM  H23G12475   5.727   1.422   5.176 -0.5513  0.0798 -2.0621
   9223SM  H23H12476   5.794   1.564   5.254 -2.2271 -0.5714 -0.4286
   9323SM     N12477   0.774   2.787   2.824  0.0341 -0.1113 -0.1315
   9323SM   C1512478   0.795   2.641   2.831  0.0965 -0.1701  0.2609
   9323SM  H15A12479   0.703   2.586   2.822 -0.0102  0.2274 -1.2414
   9323SM  H15B12480   0.811   2.602   2.931 -2.7617 -0.8831  0.5238
   9323SM  H15C12481   0.871   2.602   2.765  0.8637 -0.3377  1.2028
   9323SM   C1412482   0.915   2.846   2.815 -0.3173 -0.4080  0.2874
   9323SM  H14A12483   0.960   2.812   2.907  0.0386 -0.1284  0.2215
   9323SM  H14B12484   0.911   2.954   2.826  1.9664 -0.2821  0.4017
   9323SM  H14C12485   0.966   2.818   2.724 -0.0053  2.0486 -0.3656
   9323SM   C1312486   0.718   2.817   2.690 -0.2762 -0.7705 -1.0394
   9323SM  H13A12487   0.791   2.778   2.621  0.9226  0.2499 -0.3662
   9323SM  H13B12488   0.698   2.922   2.677  1.8813  0.1778  2.1550
   9323SM  H13C12489   0.626   2.762   2.673 -1.0325  0.0561  0.2447
   9323SM   C1212490   0.695   2.848   2.935 -0.1138 -0.0447 -0.5460
   9323SM  H12A12491   0.690   2.955   2.922  1.1797  0.1492  0.4540
   9323SM  H12B12492   0.743   2.838   3.031 -1.4530  2.3994  0.4659
   9323SM   C1112493   0.553   2.794   2.960 -0.7994  0.2916 -0.4042
   9323SM  H11A12494   0.525   2.821   3.064  1.2686 -0.5829  0.4138
   9323SM  H11B12495   0.548   2.684   2.947 -1.8979  0.3751 -0.8073
   9323SM     P12496   0.312   2.858   2.878  0.0584  0.1684  0.2671
   9323SM   O1312497   0.254   2.933   2.764 -0.0832 -0.4563  0.2563
   9323SM   O1412498   0.260   2.722   2.902  0.0253  0.2067  0.3126
   9323SM   O1112499   0.281   2.944   3.000 -0.1038  0.0107 -0.4246
   9323SM   O1212500   0.462   2.854   2.868  0.2569 -0.3550  0.0524
   9323SM   C1S12501   0.363   3.052   3.042  0.7477  0.0043 -0.3358
   9323SM   H1S12502   0.349   3.139   2.975 -0.7614  0.2918  0.3154
   9323SM   H1T12503   0.470   3.021   3.045  0.6092 -0.6172 -1.5012
   9323SM    NF12504   0.372   3.235   3.214 -0.6629  0.1555  0.0407
   9323SM   HNF12505   0.450   3.238   3.275 -0.8121 -2.2132  0.4437
   9323SM   C2S12506   0.324   3.104   3.186 -0.3624 -0.1681  0.2031
   9323SM   H2S12507   0.214   3.115   3.178 -0.3899  0.9649  1.7847
   9323SM   C3S12508   0.353   3.007   3.299  0.9446  0.8230 -0.5580
   9323SM   H3S12509   0.457   3.019   3.337  0.4033 -1.0312  1.7982
   9323SM    O312510   0.340   2.867   3.274  0.0669  0.0284  0.3194
   9323SM   HO312511   0.384   2.864   3.188 -0.0525  2.0967  0.1455
   9323SM   C4S12512   0.259   3.032   3.420 -0.3612 -0.5587  0.3495
   9323SM   H4S12513   0.323   3.075   3.499 -0.8074 -1.7844  1.4063
   9323SM   C5S12514   0.134   2.992   3.452 -0.1424  0.0041 -0.3418
   9323SM   H5S12515   0.082   2.920   3.387  0.2780 -1.1895  0.6061
   9323SM   C6S12516   0.058   3.015   3.581  0.0931  0.0297 -0.1423
   9323SM   H6S12517   0.097   2.939   3.652  0.7282  0.8584  0.4160
   9323SM   H6T12518  -0.049   2.995   3.557 -0.0563  1.3555 -0.6441
   9323SM   C7S12519   0.048   3.161   3.639  0.2870  0.6921  0.0411
   9323SM   H7S12520   0.008   3.224   3.556 -0.5096  1.1889  0.7763
   9323SM   H7T12521   0.151   3.198   3.656  0.2180  0.9061  0.0015
   9323SM   C8S12522  -0.039   3.181   3.765  0.0109  0.0516  0.0752
   9323SM   H8S12523  -0.145   3.166   3.733  0.4812 -0.5064 -1.2965
   9323SM   H8T12524  -0.042   3.286   3.801 -1.7182 -0.4153  1.4778
   9323SM   C9S12525  -0.008   3.105   3.892  0.2004  0.5186  0.1217
   9323SM   H9S12526   0.101   3.113   3.911  0.5199 -2.2499 -0.1852
   9323SM   H9T12527  -0.022   3.000   3.859  0.7996  0.3792  0.3014
   9323SM  C10S12528  -0.099   3.137   4.011 -0.0723 -0.9393 -1.0285
   9323SM  H10S12529  -0.203   3.113   3.983  0.0288 -0.1927 -2.1052
   9323SM  H10T12530  -0.092   3.246   4.033  1.2266 -1.0965 -0.5636
   9323SM  C11S12531  -0.051   3.066   4.140 -0.3587 -0.2591  0.1795
   9323SM  H11S12532   0.055   3.088   4.166  0.5884 -1.4820 -2.3243
   9323SM  H11T12533  -0.055   2.957   4.123 -2.6499 -0.7631  3.0845
   9323SM  C12S12534  -0.131   3.080   4.268 -0.1523 -0.1714 -0.4662
   9323SM  H12S12535  -0.238   3.076   4.239 -0.7814 -1.3408  1.7836
   9323SM  H12T12536  -0.107   3.178   4.313 -0.7189 -0.4340  0.4204
   9323SM  C13S12537  -0.100   2.971   4.366 -0.5934  0.3234 -0.2574
   9323SM  H13S12538   0.008   2.974   4.392 -0.5889 -0.2848 -0.1954
   9323SM  H13T12539  -0.120   2.881   4.304 -2.2680  1.3744 -1.3220
   9323SM  C14S12540  -0.187   2.972   4.495  0.5111  0.0795  0.1679
   9323SM  H14S12541  -0.203   2.864   4.519 -0.2898  0.1129 -0.1991
   9323SM  H14T12542  -0.283   3.025   4.480  1.1193  1.1333 -0.0939
   9323SM  C15S12543  -0.113   3.051   4.605  0.4542 -0.0492 -0.0305
   9323SM  H15S12544  -0.006   3.021   4.606  0.5911  0.3674 -0.9367
   9323SM  H15T12545  -0.117   3.159   4.580  2.1741  0.2836  0.9615
   9323SM  C16S12546  -0.162   3.020   4.743  0.6248 -0.0494 -0.1890
   9323SM  H16S12547  -0.142   2.915   4.772  0.0171  0.4913  2.3901
   9323SM  H16T12548  -0.272   3.026   4.752  0.6943 -0.4095  1.1504
   9323SM  C17S12549  -0.106   3.119   4.850 -0.0301  0.1305 -0.4899
   9323SM  H17S12550  -0.159   3.213   4.821  0.2151  0.5961  0.5129
   9323SM  H17T12551   0.003   3.127   4.833 -0.3048  1.4852 -1.8311
   9323SM  C18S12552  -0.133   3.101   4.998  0.3368  0.3034 -0.3830
   9323SM  H18S12553  -0.243   3.114   5.012  0.0419 -1.0965 -1.1990
   9323SM  H18T12554  -0.089   3.181   5.060  2.8315  1.1103 -2.9942
   9323SM  H18U12555  -0.115   3.000   5.042 -1.8144  0.7286  1.6697
   9323SM   C1F12556   0.313   3.349   3.174  0.0940 -0.6705  0.7768
   9323SM    OF12557   0.220   3.334   3.092  1.0271  0.3523  0.0838
   9323SM   C2F12558   0.354   3.486   3.232 -0.2657  0.0533 -0.7802
   9323SM   H2F12559   0.400   3.542   3.148  1.6324 -0.5572 -0.1826
   9323SM   H2G12560   0.426   3.468   3.314  1.1539  1.0595 -1.7660
   9323SM   C3F12561   0.225   3.555   3.288  0.0439 -0.1214 -0.1448
   9323SM   H3F12562   0.162   3.479   3.338 -0.1463 -0.5667 -1.0317
   9323SM   H3G12563   0.158   3.600   3.211 -1.6219  1.0432  1.8748
   9323SM   C4F12564   0.263   3.672   3.381  0.1483  1.0425  0.8812
   9323SM   H4F12565   0.207   3.761   3.346  0.3467  0.0854 -2.1100
   9323SM   H4G12566   0.369   3.694   3.358 -0.6466  1.5447 -2.9324
   9323SM   C5F12567   0.216   3.638   3.524  0.3615 -0.2007  0.4368
   9323SM   H5F12568   0.107   3.617   3.519  0.5199 -0.8420 -0.6543
   9323SM   H5G12569   0.232   3.728   3.587 -0.4583 -2.1889  3.7527
   9323SM   C6F12570   0.282   3.520   3.586 -0.4687 -0.4289 -0.0020
   9323SM   H6F12571   0.392   3.534   3.591 -0.5103 -0.3869  1.0817
   9323SM   H6G12572   0.259   3.420   3.543  1.1849  0.0484 -2.1165
   9323SM   C7F12573   0.243   3.500   3.736  0.0073  0.5130  0.0273
   9323SM   H7F12574   0.135   3.483   3.753 -0.1476 -0.3238 -1.5556
   9323SM   H7G12575   0.269   3.600   3.775 -1.7441  0.8933  0.2781
   9323SM   C8F12576   0.308   3.392   3.821  0.6976  0.1140 -0.0216
   9323SM   H8F12577   0.418   3.397   3.813  0.6985 -0.3472 -0.3839
   9323SM   H8G12578   0.284   3.287   3.791  1.1603 -0.4431  1.4812
   9323SM   C9F12579   0.263   3.404   3.968  0.2900 -0.5398  0.2091
   9323SM   H9F12580   0.159   3.370   3.986 -1.1088  1.7639 -2.7109
   9323SM   H9G12581   0.266   3.511   3.997 -1.6432 -0.1173 -1.0101
   9323SM  C10F12582   0.349   3.324   4.071 -0.3784  0.1574  0.6877
   9323SM  H10F12583   0.444   3.380   4.090 -0.8316  0.9938  0.5291
   9323SM  H10G12584   0.369   3.223   4.031  0.1830  0.5837 -0.1518
   9323SM  C11F12585   0.272   3.316   4.203  0.2622 -0.3255  0.3638
   9323SM  H11F12586   0.174   3.268   4.185  0.2476 -0.4340  0.7287
   9323SM  H11G12587   0.269   3.421   4.240  3.1092 -0.3435  0.8738
   9323SM  C12F12588   0.363   3.230   4.299  0.0165 -0.5113  0.1122
   9323SM  H12F12589   0.462   3.277   4.319 -0.4325 -0.6992  3.2378
   9323SM  H12G12590   0.374   3.134   4.243 -0.3151  0.0591 -0.9541
   9323SM  C13F12591   0.302   3.207   4.436 -0.5843  0.0355  0.7625
   9323SM  H13F12592   0.200   3.166   4.422  0.1421 -1.7740  0.5707
   9323SM  H13G12593   0.283   3.303   4.489 -2.9682 -1.6458  3.2150
   9323SM  C14F12594   0.392   3.116   4.527 -0.2526 -0.3867 -0.0784
   9323SM  H14F12595   0.485   3.167   4.559 -0.1769 -1.5860  1.7060
   9323SM  H14G12596   0.422   3.024   4.473  1.1762  0.0145 -0.0073
   9323SM  C15F12597   0.312   3.065   4.656  0.1423 -0.4174  0.3966
   9323SM  H15F12598   0.371   2.983   4.702  1.7420  1.5655  2.1196
   9323SM  H15G12599   0.213   3.021   4.633  0.8316 -2.2217  0.7823
   9323SM  C16F12600   0.291   3.158   4.775  0.2678 -0.9413  0.5187
   9323SM  H16F12601   0.199   3.217   4.755 -1.2114 -2.2472  3.0155
   9323SM  H16G12602   0.374   3.231   4.765 -0.2147 -0.3439  0.8073
   9323SM  C17F12603   0.273   3.102   4.910 -0.0699  0.3574  0.0452
   9323SM  H17F12604   0.373   3.070   4.948 -0.2322 -0.4752 -0.2135
   9323SM  H17G12605   0.206   3.014   4.917  1.1222 -0.4615  2.1583
   9323SM  C18F12606   0.232   3.207   5.003 -0.2621  0.0629 -0.0926
   9323SM  H18F12607   0.199   3.167   5.102 -2.6562  1.6431 -0.1738
   9323SM  H18G12608   0.141   3.264   4.975 -0.0980 -0.5027 -1.8585
   9323SM  C19F12609   0.340   3.315   5.030  0.3786  0.2571 -0.4749
   9323SM  H19F12610   0.365   3.361   4.932 -0.6269  0.3221 -0.7056
   9323SM  H19G12611   0.441   3.270   5.047  0.6054  0.8006 -0.3738
   9323SM  C20F12612   0.311   3.407   5.149  0.0201 -0.6712 -0.5316
   9323SM  H20F12613   0.311   3.346   5.242  0.4851 -0.2974 -0.2796
   9323SM  H20G12614   0.209   3.449   5.136 -0.7216 -1.1807  2.7731
   9323SM  C21F12615   0.406   3.524   5.163 -0.5972  0.1845 -0.2569
   9323SM  H21F12616   0.434   3.569   5.065  1.1827 -0.6863 -0.1899
   9323SM  H21G12617   0.493   3.481   5.218 -1.3183 -1.6343 -0.4722
   9323SM  C22F12618   0.352   3.640   5.252 -0.1242  0.5430  0.7028
   9323SM  H22F12619   0.257   3.676   5.208  0.0928  0.2759  0.0097
   9323SM  H22G12620   0.427   3.722   5.244 -1.2107  1.4317 -1.1117
   9323SM  C23F12621   0.342   3.609   5.400 -0.5899  0.4186 -1.3443
   9323SM  H23F12622   0.336   3.705   5.455  1.3395 -0.2656  0.1557
   9323SM  H23G12623   0.428   3.544   5.427 -0.0372  2.2568  1.7517
   9323SM  H23H12624   0.249   3.550   5.413 -0.4314  0.3678 -0.3827
   9423SM     N12625   6.004   0.422   2.572  0.2013  0.7927 -0.0822
   9423SM   C1512626   6.045   0.507   2.455 -0.5972  0.3944 -0.4444
   9423SM  H15A12627   6.120   0.456   2.396  0.4291  2.4868 -1.0511
   9423SM  H15B12628   6.094   0.597   2.486  1.0460 -0.2145 -1.1702
   9423SM  H15C12629   5.971   0.549   2.387  0.2583 -0.8655 -2.2519
   9423SM   C1412630   5.921   0.310   2.533  0.5625  0.1827 -0.1449
   9423SM  H14A12631   5.832   0.347   2.484  1.2039  1.6197 -0.2634
   9423SM  H14B12632   5.875   0.268   2.621 -1.0174  1.3357 -0.3690
   9423SM  H14C12633   5.974   0.237   2.474  2.8921  0.1397  1.8563
   9423SM   C1312634   6.131   0.372   2.631  0.4247  0.2264  0.2037
   9423SM  H13A12635   6.191   0.445   2.682  0.5236  0.2891 -0.0006
   9423SM  H13B12636   6.189   0.327   2.552  0.1682 -1.6581  1.0316
   9423SM  H13C12637   6.111   0.301   2.710 -0.0987 -0.6427 -0.6785
   9423SM   C1212638   5.925   0.515   2.669  0.4243  0.1429 -0.3760
   9423SM  H12A12639   5.831   0.541   2.623  0.7171 -0.5553 -1.3834
   9423SM  H12B12640   5.985   0.604   2.681 -0.6445  0.5229  5.1996
   9423SM   C1112641   5.889   0.456   2.804  0.7235  0.1130 -0.0699
   9423SM  H11A12642   5.873   0.537   2.879 -0.1892  0.2730 -0.4239
   9423SM  H11B12643   5.975   0.395   2.836  1.5377 -0.7946 -3.5613
   9423SM     P12644   5.748   0.237   2.863  0.1079 -0.1867  0.3486
   9423SM   O1312645   5.600   0.205   2.864 -0.6272  0.1245 -0.0252
   9423SM   O1412646   5.839   0.152   2.780  0.1815  0.8539  0.5886
   9423SM   O1112647   5.801   0.245   3.005  0.3093  0.3500 -0.2344
   9423SM   O1212648   5.758   0.385   2.808  0.5296  0.8524  0.1298
   9423SM   C1S12649   5.736   0.327   3.104 -0.5545 -0.3225  0.8478
   9423SM   H1S12650   5.626   0.313   3.101 -0.2704 -2.8716  0.4862
   9423SM   H1T12651   5.752   0.435   3.084  0.6702 -0.8769 -1.5553
   9423SM    NF12652   5.703   0.345   3.349  0.1517  0.4837 -0.3024
   9423SM   HNF12653   5.721   0.429   3.398  1.5934 -0.4120  0.7827
   9423SM   C2S12654   5.795   0.300   3.247  0.6897  0.0372  0.3211
   9423SM   H2S12655   5.797   0.192   3.275 -2.3398  0.1524  1.3088
   9423SM   C3S12656   5.929   0.369   3.252 -0.1049  0.3386 -0.0705
   9423SM   H3S12657   5.909   0.474   3.222 -1.0550  0.0488 -0.5069
   9423SM    O312658   6.021   0.332   3.151 -0.1165 -0.0264 -0.5662
   9423SM   HO312659   5.962   0.308   3.079  0.6686 -0.6030 -1.0273
   9423SM   C4S12660   6.004   0.360   3.384 -0.0112 -0.1115  0.5778
   9423SM   H4S12661   6.027   0.257   3.415 -1.5489 -1.4704 -2.4459
   9423SM   C5S12662   6.027   0.475   3.460  0.2734  0.1285 -0.2439
   9423SM   H5S12663   5.984   0.571   3.427  2.5107  2.0835  2.0927
   9423SM   C6S12664   6.091   0.492   3.594 -0.0180  0.1023  0.0348
   9423SM   H6S12665   6.031   0.434   3.667  1.3735 -0.0307  1.1347
   9423SM   H6T12666   6.104   0.599   3.623 -0.3377 -0.2569  1.5719
   9423SM   C7S12667   6.234   0.426   3.597 -0.5288  0.4573 -0.5523
   9423SM   H7S12668   6.291   0.489   3.524  1.6334  1.9636  2.2251
   9423SM   H7T12669   6.240   0.326   3.550  2.2440  0.1835  0.1938
   9423SM   C8S12670   6.313   0.442   3.726 -0.0037 -0.3498 -1.4337
   9423SM   H8S12671   6.246   0.403   3.805 -2.7219  0.4574 -3.2134
   9423SM   H8T12672   6.332   0.551   3.736 -0.9928 -0.2690 -0.3365
   9423SM   C9S12673   6.445   0.363   3.727 -0.0927 -0.1367 -0.6261
   9423SM   H9S12674   6.516   0.419   3.663  1.8198 -2.4908 -0.7392
   9423SM   H9T12675   6.437   0.262   3.682 -3.2188 -0.3680  0.2003
   9423SM  C10S12676   6.499   0.342   3.869 -0.0995  0.1132 -0.1391
   9423SM  H10S12677   6.437   0.268   3.924 -2.2876  2.1741  0.3298
   9423SM  H10T12678   6.499   0.438   3.926 -0.7900  0.4156 -0.6414
   9423SM  C11S12679   6.645   0.302   3.888  0.6195  0.1146  0.7591
   9423SM  H11S12680   6.674   0.275   3.991 -0.6382  0.0547  1.1069
   9423SM  H11T12681   6.716   0.381   3.855  0.5762  0.4688  1.5150
   9423SM  C12S12682   6.679   0.176   3.800 -0.3288 -0.8475 -0.4340
   9423SM  H12S12683   6.639   0.186   3.697 -3.1228  2.0338  0.7806
   9423SM  H12T12684   6.623   0.086   3.835 -0.8611 -0.3578 -0.0101
   9423SM  C13S12685   6.826   0.156   3.790 -0.7480 -0.5594  0.2613
   9423SM  H13S12686   6.868   0.236   3.726 -0.5281 -1.8870 -1.3415
   9423SM  H13T12687   6.836   0.062   3.732 -0.6098 -1.2277  1.3357
   9423SM  C14S12688   6.906   0.134   3.922 -0.3122  0.1279  0.7016
   9423SM  H14S12689   6.846   0.058   3.976 -2.5811  1.7117  0.5646
   9423SM  H14T12690   6.892   0.220   3.992 -0.5609  0.9568 -0.3362
   9423SM  C15S12691   7.049   0.096   3.889  0.0149 -0.5262  0.5290
   9423SM  H15S12692   7.105   0.189   3.868 -0.6585 -0.7343 -2.5905
   9423SM  H15T12693   7.051   0.046   3.790  0.2144  0.4703  0.0207
   9423SM  C16S12694   7.114   0.021   4.001  0.2293  0.1445 -0.3701
   9423SM  H16S12695   7.209  -0.023   3.965  1.9456  2.0776  1.5199
   9423SM  H16T12696   7.044  -0.057   4.039 -1.3983  2.5876  1.9732
   9423SM  C17S12697   7.159   0.108   4.116  0.2806 -0.1461  0.0034
   9423SM  H17S12698   7.077   0.167   4.161 -1.4706 -2.1560 -0.3942
   9423SM  H17T12699   7.239   0.176   4.080  0.2558 -0.9270 -1.6072
   9423SM  C18S12700   7.204   0.027   4.237 -0.1963 -0.0858 -0.5729
   9423SM  H18S12701   7.284  -0.043   4.203 -1.2274 -0.4381 -2.4038
   9423SM  H18T12702   7.115  -0.023   4.282  0.0083 -0.1089 -0.1840
   9423SM  H18U12703   7.247   0.103   4.306 -1.0274 -1.1205  1.1585
   9423SM   C1F12704   5.577   0.283   3.359  0.8835 -0.5826  0.3995
   9423SM    OF12705   5.544   0.180   3.295 -0.0211  0.7215  0.0114
   9423SM   C2F12706   5.474   0.362   3.455 -0.1251  0.1340  1.2767
   9423SM   H2F12707   5.370   0.358   3.418 -0.4870  3.0161  1.7756
   9423SM   H2G12708   5.501   0.470   3.462 -1.8396  0.7054 -0.3734
   9423SM   C3F12709   5.472   0.297   3.596 -0.8319 -0.1484  0.1355
   9423SM   H3F12710   5.576   0.294   3.635 -0.1045 -0.2857 -1.7392
   9423SM   H3G12711   5.453   0.188   3.591 -1.0086 -0.1359  0.4853
   9423SM   C4F12712   5.371   0.350   3.698 -0.1898 -0.3176  0.1378
   9423SM   H4F12713   5.271   0.312   3.671  0.3722 -1.1328 -0.8647
   9423SM   H4G12714   5.353   0.459   3.683  1.7694  0.1148  0.6366
   9423SM   C5F12715   5.414   0.334   3.844  0.1979  0.3003  0.4081
   9423SM   H5F12716   5.519   0.370   3.843  0.3580 -0.1524  0.6180
   9423SM   H5G12717   5.414   0.224   3.863 -0.6887 -0.5791 -3.7088
   9423SM   C6F12718   5.320   0.412   3.939 -0.4488  0.5631  0.6585
   9423SM   H6F12719   5.330   0.518   3.906  1.2707  0.8031  1.7955
   9423SM   H6G12720   5.358   0.404   4.043 -0.6992  1.6952  0.8570
   9423SM   C7F12721   5.171   0.372   3.924 -0.8896 -0.4909  0.4790
   9423SM   H7F12722   5.158   0.275   3.975 -0.6558 -0.4442  0.6332
   9423SM   H7G12723   5.145   0.380   3.817  0.4168  3.4935  0.2629
   9423SM   C8F12724   5.080   0.466   4.003 -0.1705  0.0130 -0.4967
   9423SM   H8F12725   5.078   0.570   3.964  2.6521 -0.8932 -3.4334
   9423SM   H8G12726   5.120   0.466   4.106  2.3560 -0.1417 -1.4183
   9423SM   C9F12727   4.938   0.411   4.010  0.4704  0.1718  0.0117
   9423SM   H9F12728   4.951   0.301   3.995  1.2009  0.0274  1.4674
   9423SM   H9G12729   4.882   0.444   3.920  0.5864 -0.4286 -0.2897
   9423SM  C10F12730   4.859   0.434   4.137 -0.4144  0.1422 -0.5997
   9423SM  H10F12731   4.750   0.448   4.121 -0.5715 -2.6266 -2.6384
   9423SM  H10G12732   4.883   0.538   4.169 -0.0122 -0.3673  0.8445
   9423SM  C11F12733   4.895   0.341   4.256  0.6009  0.1839 -0.3646
   9423SM  H11F12734   4.974   0.270   4.224  0.7879 -0.0491  0.5928
   9423SM  H11G12735   4.804   0.290   4.294  1.9681 -2.9804 -1.0501
   9423SM  C12F12736   4.961   0.417   4.365  0.7967  0.2932 -0.5632
   9423SM  H12F12737   4.913   0.517   4.370 -1.8702 -0.9321  0.5723
   9423SM  H12G12738   5.064   0.435   4.329  0.3294  1.2876 -1.4652
   9423SM  C13F12739   4.951   0.337   4.497 -0.0283  0.1242 -0.7385
   9423SM  H13F12740   4.843   0.309   4.497 -0.8650  2.9340 -1.1802
   9423SM  H13G12741   4.951   0.397   4.591 -1.7141 -1.3066  0.2318
   9423SM  C14F12742   5.044   0.218   4.509 -0.3585 -0.0298  0.8376
   9423SM  H14F12743   5.149   0.254   4.496 -0.9927  1.7483  0.4192
   9423SM  H14G12744   5.026   0.145   4.427 -2.0699 -0.1638  1.2950
   9423SM  C15F12745   5.024   0.141   4.635 -0.3397  0.3726 -0.2166
   9423SM  H15F12746   4.918   0.111   4.644 -0.2274  0.1511  0.5170
   9423SM  H15G12747   5.058   0.197   4.725  0.4196  0.8945 -0.8152
   9423SM  C16F12748   5.120   0.020   4.638 -0.0728  0.9684 -1.0935
   9423SM  H16F12749   5.228   0.046   4.644  0.2409 -0.6129  3.0181
   9423SM  H16G12750   5.095  -0.041   4.549  0.1391  1.4316 -1.4774
   9423SM  C17F12751   5.102  -0.068   4.760 -0.0121  0.5953 -0.0112
   9423SM  H17F12752   5.102   0.002   4.846 -2.0906  0.4509  0.1523
   9423SM  H17G12753   5.190  -0.133   4.777  1.3037  2.4760  0.5882
   9423SM  C18F12754   4.959  -0.148   4.767 -0.7052  0.5027  0.3225
   9423SM  H18F12755   4.956  -0.218   4.681  0.8580  1.7509 -0.7965
   9423SM  H18G12756   4.874  -0.078   4.757 -1.5172 -0.7413 -2.4310
   9423SM  C19F12757   4.944  -0.227   4.900  0.0844 -0.4687 -0.7714
   9423SM  H19F12758   4.938  -0.148   4.977  0.3404  0.1460 -1.3658
   9423SM  H19G12759   5.036  -0.284   4.926 -0.2680 -1.1876 -1.0765
   9423SM  C20F12760   4.814  -0.312   4.905  0.2541  0.2727  0.3470
   9423SM  H20F12761   4.811  -0.363   5.004 -0.5344 -0.5562 -0.0841
   9423SM  H20G12762   4.828  -0.380   4.818  0.8709  1.0747 -0.2004
   9423SM  C21F12763   4.683  -0.240   4.873  0.1748 -0.3145 -0.5897
   9423SM  H21F12764   4.660  -0.222   4.766 -2.0046 -0.4167 -0.1747
   9423SM  H21G12765   4.687  -0.136   4.912 -3.3818  0.0272 -0.8268
   9423SM  C22F12766   4.559  -0.308   4.934 -0.2443  0.2398  0.1145
   9423SM  H22F12767   4.574  -0.325   5.043  3.3784 -2.8707 -0.6438
   9423SM  H22G12768   4.557  -0.411   4.893 -1.4459  0.4197 -0.3158
   9423SM  C23F12769   4.428  -0.238   4.905  0.5070 -0.1494  0.4105
   9423SM  H23F12770   4.403  -0.233   4.797  1.1471  0.2688  0.2780
   9423SM  H23G12771   4.414  -0.135   4.945  0.8011  0.4386 -0.9450
   9423SM  H23H12772   4.348  -0.296   4.956  0.7766 -1.9391 -1.1322
   9523SM     N12773   2.456   2.331   3.110  0.2102 -0.4870  0.7940
   9523SM   C1512774   2.576   2.388   3.034  0.0332 -0.3543  0.2521
   9523SM  H15A12775   2.645   2.310   3.004  1.0361  0.9249 -0.8914
   9523SM  H15B12776   2.625   2.455   3.104 -0.7774  1.2883 -0.7003
   9523SM  H15C12777   2.541   2.447   2.950 -4.8355 -2.6435  0.3580
   9523SM   C1412778   2.514   2.283   3.238 -0.9574 -0.0378 -0.2387
   9523SM  H14A12779   2.445   2.218   3.290  0.3228 -0.0283  1.5808
   9523SM  H14B12780   2.531   2.373   3.296 -3.5105  1.8228 -2.1482
   9523SM  H14C12781   2.609   2.234   3.224 -0.7654  0.5946 -1.2832
   9523SM   C1312782   2.364   2.445   3.129  0.3816 -0.2721  0.1977
   9523SM  H13A12783   2.289   2.409   3.198  0.4635 -4.8356 -1.7739
   9523SM  H13B12784   2.334   2.491   3.035  4.8110  3.4685  0.2603
   9523SM  H13C12785   2.421   2.521   3.180  0.1747  0.9780 -1.3266
   9523SM   C1212786   2.401   2.230   3.018  0.3406  0.7579  0.0796
   9523SM  H12A12787   2.381   2.274   2.922 -0.3791  1.0203  0.3415
   9523SM  H12B12788   2.299   2.204   3.043 -0.3109  1.6281 -1.5656
   9523SM   C1112789   2.480   2.094   3.013 -0.0207  0.1634  0.2542
   9523SM  H11A12790   2.413   2.025   2.959  0.6359 -0.9441  0.8260
   9523SM  H11B12791   2.485   2.053   3.116 -2.9673  0.6603  0.6646
   9523SM     P12792   2.733   2.017   2.983 -0.4571  0.4947  0.2828
   9523SM   O1312793   2.689   1.879   2.983 -0.4018  0.0708 -0.4647
   9523SM   O1412794   2.851   2.045   2.900  0.2297 -0.3749  0.7712
   9523SM   O1112795   2.751   2.062   3.133 -0.1564 -0.0834  0.0538
   9523SM   O1212796   2.606   2.099   2.943 -0.3007  0.0296  0.1306
   9523SM   C1S12797   2.872   2.044   3.196 -1.0378  0.0776  0.0131
   9523SM   H1S12798   2.956   2.089   3.139  0.8067 -0.3776  2.2049
   9523SM   H1T12799   2.902   1.938   3.188  1.4773  0.6964  0.4358
   9523SM    NF12800   3.010   2.087   3.388  0.3693 -0.3788 -0.4954
   9523SM   HNF12801   3.058   2.010   3.430  4.0384  1.8954 -0.0646
   9523SM   C2S12802   2.874   2.087   3.350  0.8172  0.5745 -0.0983
   9523SM   H2S12803   2.826   2.187   3.350  0.8707  0.6000 -0.0591
   9523SM   C3S12804   2.778   1.998   3.435  0.3156 -0.0035  0.0192
   9523SM   H3S12805   2.815   1.894   3.443  1.6999  0.3635 -1.1839
   9523SM    O312806   2.648   1.984   3.378  0.3523 -0.6167 -0.0281
   9523SM   HO312807   2.656   2.000   3.284 -1.9662 -1.5598 -0.4358
   9523SM   C4S12808   2.770   2.055   3.581  0.2892 -0.0369 -0.7790
   9523SM   H4S12809   2.789   1.968   3.646 -0.5533  1.0729  1.0154
   9523SM   C5S12810   2.716   2.173   3.629 -0.5753 -0.2602 -0.0982
   9523SM   H5S12811   2.669   2.239   3.554 -0.6039 -0.9215 -0.6744
   9523SM   C6S12812   2.694   2.215   3.769 -0.4038  0.2212 -0.4857
   9523SM   H6S12813   2.585   2.229   3.785 -0.5405  2.4440 -2.7984
   9523SM   H6T12814   2.748   2.312   3.780 -0.7639  0.4867 -1.0114
   9523SM   C7S12815   2.755   2.123   3.879 -0.2797 -0.5547 -0.7326
   9523SM   H7S12816   2.864   2.113   3.859 -0.2279 -0.6901 -0.3855
   9523SM   H7T12817   2.719   2.018   3.875 -2.2869  0.0778 -0.0829
   9523SM   C8S12818   2.718   2.169   4.024  0.6970  0.2263 -0.0762
   9523SM   H8S12819   2.611   2.190   4.048  1.0192  0.7669  0.9221
   9523SM   H8T12820   2.767   2.265   4.048  0.0748  1.2464 -2.6182
   9523SM   C9S12821   2.758   2.055   4.118  0.2839 -0.2209  0.4055
   9523SM   H9S12822   2.847   2.009   4.069 -0.9357 -0.6654 -1.4889
   9523SM   H9T12823   2.682   1.975   4.121 -0.9961  0.6873 -3.1875
   9523SM  C10S12824   2.780   2.112   4.259  0.1610  0.0261  0.1775
   9523SM  H10S12825   2.685   2.165   4.279 -2.1885 -3.2149 -1.3243
   9523SM  H10T12826   2.856   2.193   4.257 -1.0165  1.1351 -1.1888
   9523SM  C11S12827   2.798   2.017   4.372 -0.2397 -0.0639  0.1620
   9523SM  H11S12828   2.897   1.967   4.367 -0.7426 -1.4521  2.4174
   9523SM  H11T12829   2.715   1.944   4.377 -0.9174  0.7031  0.4020
   9523SM  C12S12830   2.815   2.089   4.507  0.1319 -0.0570  0.2556
   9523SM  H12S12831   2.728   2.159   4.511 -0.5242 -0.4159 -3.9822
   9523SM  H12T12832   2.901   2.158   4.491 -0.2351  0.3971  0.2243
   9523SM  C13S12833   2.843   1.993   4.618 -0.3816  0.1797  0.3453
   9523SM  H13S12834   2.932   1.928   4.597 -0.7402 -0.3614  0.4766
   9523SM  H13T12835   2.755   1.926   4.627  0.5268 -1.2531 -0.8660
   9523SM  C14S12836   2.854   2.064   4.752 -0.1369 -0.0928 -0.7647
   9523SM  H14S12837   2.767   2.134   4.751 -0.1805 -0.1482 -1.0067
   9523SM  H14T12838   2.941   2.132   4.751 -0.3897  0.2316 -0.9698
   9523SM  C15S12839   2.846   1.973   4.876 -0.0567  0.1384  0.3100
   9523SM  H15S12840   2.922   1.892   4.876 -1.0871 -0.8630  0.7081
   9523SM  H15T12841   2.746   1.925   4.866  0.7770 -1.5063 -0.5858
   9523SM  C16S12842   2.849   2.054   5.010 -0.1746  0.3942 -0.3843
   9523SM  H16S12843   2.772   2.134   5.004  0.2970  0.8033 -1.1588
   9523SM  H16T12844   2.950   2.101   5.004 -0.2814  0.7181  0.2437
   9523SM  C17S12845   2.843   1.986   5.142 -0.2765 -0.0741  0.4820
   9523SM  H17S12846   2.743   1.958   5.181  0.1429 -2.1375  0.2034
   9523SM  H17T12847   2.894   2.058   5.209  1.5042 -0.9942  0.1868
   9523SM  C18S12848   2.926   1.859   5.146  0.5592 -0.7352  0.4764
   9523SM  H18S12849   2.875   1.786   5.080  0.7071  0.7797 -1.3767
   9523SM  H18T12850   2.935   1.824   5.252  0.2128  0.4886  0.9252
   9523SM  H18U12851   3.030   1.874   5.110 -0.1688  3.0926 -0.4254
   9523SM   C1F12852   3.082   2.202   3.370  0.1788  0.7102 -0.4436
   9523SM    OF12853   3.035   2.304   3.320 -0.2053  0.0699  0.1259
   9523SM   C2F12854   3.218   2.200   3.439 -0.5153 -0.6032 -0.1524
   9523SM   H2F12855   3.287   2.261   3.377  0.2758  0.2268  1.4637
   9523SM   H2G12856   3.261   2.098   3.443  0.2116 -0.2730  1.9480
   9523SM   C3F12857   3.213   2.269   3.575  0.5317  0.3761 -0.1003
   9523SM   H3F12858   3.158   2.365   3.571  0.6514  0.4573  0.1602
   9523SM   H3G12859   3.315   2.301   3.605  0.8792  0.9455 -1.7996
   9523SM   C4F12860   3.159   2.185   3.693  0.2069  0.0959 -0.9497
   9523SM   H4F12861   3.171   2.075   3.700  0.7460  0.2625  2.0993
   9523SM   H4G12862   3.048   2.189   3.680  0.1839 -0.5542 -0.9819
   9523SM   C5F12863   3.208   2.242   3.827  0.1496 -0.1767  0.7313
   9523SM   H5F12864   3.151   2.196   3.911  3.8448  0.1864  3.6916
   9523SM   H5G12865   3.179   2.349   3.832  0.6699  0.0254 -0.3204
   9523SM   C6F12866   3.351   2.212   3.860  0.1750  0.2002  0.6465
   9523SM   H6F12867   3.367   2.242   3.966  0.9637 -0.0978  0.6193
   9523SM   H6G12868   3.424   2.271   3.802  1.9108 -1.4057  1.1154
   9523SM   C7F12869   3.386   2.065   3.838  0.4698 -0.5472  0.7711
   9523SM   H7F12870   3.496   2.057   3.851  0.6264  1.6009  1.1603
   9523SM   H7G12871   3.364   2.036   3.733  0.2315 -1.1889  0.9964
   9523SM   C8F12872   3.325   1.962   3.934 -0.5059 -0.0926 -0.5144
   9523SM   H8F12873   3.216   1.980   3.938 -0.5452 -0.5069  1.1828
   9523SM   H8G12874   3.371   1.962   4.036  2.6118 -0.5663 -1.8149
   9523SM   C9F12875   3.354   1.818   3.890  0.1987  0.1461 -0.5511
   9523SM   H9F12876   3.464   1.808   3.899 -0.0951 -3.0125  1.2213
   9523SM   H9G12877   3.322   1.801   3.785 -0.9281  0.4379 -0.2746
   9523SM  C10F12878   3.282   1.714   3.974 -0.0279 -0.1779 -0.6263
   9523SM  H10F12879   3.172   1.730   3.963  0.0957 -0.3289 -2.3254
   9523SM  H10G12880   3.313   1.725   4.080 -0.4366 -0.5910 -0.4552
   9523SM  C11F12881   3.322   1.576   3.926  0.3740 -0.3365  0.8855
   9523SM  H11F12882   3.433   1.572   3.927  0.4844 -0.8844 -2.7855
   9523SM  H11G12883   3.293   1.570   3.819 -1.2576 -0.1710  1.2797
   9523SM  C12F12884   3.260   1.463   4.009  0.6569  0.3901 -0.0149
   9523SM  H12F12885   3.278   1.367   3.958 -0.7648  0.2877 -0.3601
   9523SM  H12G12886   3.150   1.480   4.011  0.5754 -0.0544 -0.5916
   9523SM  C13F12887   3.304   1.456   4.156 -0.2006  0.3008  0.3799
   9523SM  H13F12888   3.308   1.556   4.204  1.3508  1.4370 -1.9034
   9523SM  H13G12889   3.412   1.431   4.149 -0.1578  0.7690 -1.2375
   9523SM  C14F12890   3.225   1.359   4.250 -0.2069  0.1460  0.6154
   9523SM  H14F12891   3.218   1.260   4.200 -0.5923  0.9583 -1.0153
   9523SM  H14G12892   3.129   1.405   4.281 -0.3352  1.1532 -1.1626
   9523SM  C15F12893   3.293   1.329   4.386  0.1664 -0.0660  0.5325
   9523SM  H15F12894   3.305   1.425   4.440 -1.5065  1.0857 -0.9895
   9523SM  H15G12895   3.391   1.283   4.362 -0.0491 -0.1019 -0.3455
   9523SM  C16F12896   3.215   1.230   4.465 -0.2903  0.2539 -0.3058
   9523SM  H16F12897   3.198   1.132   4.415 -3.7832 -0.3212  1.6643
   9523SM  H16G12898   3.121   1.287   4.483 -0.5499 -0.5666  1.0676
   9523SM  C17F12899   3.270   1.192   4.608  1.1509  0.2945  0.0628
   9523SM  H17F12900   3.294   1.284   4.666  1.1263 -0.5307  1.4216
   9523SM  H17G12901   3.360   1.135   4.579 -1.2291 -2.9070 -1.6243
   9523SM  C18F12902   3.172   1.090   4.685 -0.2368 -0.0860 -0.6505
   9523SM  H18F12903   3.237   1.031   4.753  1.0000 -0.4596 -2.1133
   9523SM  H18G12904   3.128   1.020   4.611 -1.6618 -0.6594  0.6718
   9523SM  C19F12905   3.066   1.161   4.764 -0.0940  0.5913  0.2959
   9523SM  H19F12906   3.029   1.249   4.707 -1.5811 -0.2193 -0.0365
   9523SM  H19G12907   3.106   1.186   4.864  0.6328 -2.6106  0.9112
   9523SM  C20F12908   2.949   1.067   4.784  0.0595  0.2964  0.3540
   9523SM  H20F12909   2.953   0.980   4.714 -0.2866  0.1628  0.4992
   9523SM  H20G12910   2.863   1.123   4.743 -0.0348 -1.5462 -2.2186
   9523SM  C21F12911   2.936   1.026   4.928  1.1178 -1.2230  0.1425
   9523SM  H21F12912   2.941   1.120   4.987 -0.0341 -0.5714 -0.7654
   9523SM  H21G12913   3.015   0.957   4.965  1.0828 -0.4802  1.7023
   9523SM  C22F12914   2.796   0.969   4.961 -0.1694 -0.6637  0.1333
   9523SM  H22F12915   2.801   0.868   4.914 -1.5057 -0.7553  0.1562
   9523SM  H22G12916   2.731   1.038   4.903 -1.0189 -3.1189 -2.0920
   9523SM  C23F12917   2.769   0.945   5.107  0.0417  0.2536  0.1454
   9523SM  H23F12918   2.789   1.036   5.168  0.0859 -0.0191  0.5432
   9523SM  H23G12919   2.840   0.875   5.156  0.2264 -0.1491 -0.6858
   9523SM  H23H12920   2.669   0.902   5.130  0.2930 -0.8165 -0.6851
   9623SM     N12921   3.765   2.004   3.195 -0.4069 -0.4927  0.3880
   9623SM   C1512922   3.897   1.967   3.255  0.7654  0.5481 -0.2756
   9623SM  H15A12923   3.908   1.861   3.269 -0.6589  0.5175  0.8950
   9623SM  H15B12924   3.904   2.012   3.354  2.5455 -0.7708  0.2412
   9623SM  H15C12925   3.987   1.995   3.202  1.7884  0.1964  1.2006
   9623SM   C1412926   3.764   2.145   3.140  0.1859  0.2370  0.2520
   9623SM  H14A12927   3.670   2.173   3.093 -0.0085 -2.3904 -1.1192
   9623SM  H14B12928   3.832   2.155   3.057 -1.7805  0.5139 -1.4254
   9623SM  H14C12929   3.771   2.219   3.218 -0.8975  1.9707 -1.1854
   9623SM   C1312930   3.760   1.919   3.080  0.2682 -0.1115  0.0066
   9623SM  H13A12931   3.656   1.919   3.053  0.1473  2.2760  0.2561
   9623SM  H13B12932   3.796   1.820   3.104  1.3049  0.3476  0.4326
   9623SM  H13C12933   3.819   1.952   2.996  0.5392 -2.4910 -0.8157
   9623SM   C1212934   3.647   1.975   3.295 -0.3912 -0.5702 -0.0720
   9623SM  H12A12935   3.651   2.035   3.385 -0.9742 -1.9327  0.8940
   9623SM  H12B12936   3.662   1.877   3.337 -1.1113 -0.1993  1.0921
   9623SM   C1112937   3.501   2.000   3.255 -0.1458  0.5539  0.4068
   9623SM  H11A12938   3.484   2.105   3.224 -0.2432  0.6965  0.9346
   9623SM  H11B12939   3.448   1.988   3.352 -0.3161  1.4527  0.4307
   9623SM     P12940   3.406   1.757   3.191 -0.2226  0.0409  0.0429
   9623SM   O1312941   3.306   1.731   3.086  0.2693  0.4198  0.2387
   9623SM   O1412942   3.529   1.674   3.195 -0.5439  0.5225 -0.1923
   9623SM   O1112943   3.335   1.758   3.333 -0.4766 -0.2066 -0.3650
   9623SM   O1212944   3.444   1.903   3.165 -0.5273 -0.3489  0.1654
   9623SM   C1S12945   3.271   1.635   3.374 -0.2057  0.3133  0.0819
   9623SM   H1S12946   3.342   1.550   3.364  0.7028  1.0551  0.0966
   9623SM   H1T12947   3.194   1.602   3.300 -0.2079 -3.5585  1.5709
   9623SM    NF12948   3.192   1.517   3.578  0.1164  0.0427 -0.6692
   9623SM   HNF12949   3.099   1.482   3.584  0.8579 -1.8943  1.2221
   9623SM   C2S12950   3.216   1.647   3.519  0.1567 -1.0257 -0.8279
   9623SM   H2S12951   3.297   1.694   3.579 -0.6047 -1.5544  0.6457
   9623SM   C3S12952   3.097   1.747   3.535 -0.4422  0.4646  0.4604
   9623SM   H3S12953   3.018   1.733   3.458  1.0380 -0.9885 -0.8505
   9623SM    O312954   3.154   1.870   3.492  0.3773  0.0252 -0.0336
   9623SM   HO312955   3.219   1.841   3.428 -0.6981  1.9077 -2.0878
   9623SM   C4S12956   3.046   1.769   3.669 -0.3902  0.1644 -0.6826
   9623SM   H4S12957   3.122   1.806   3.739 -2.6312  0.6631  1.6566
   9623SM   C5S12958   2.926   1.730   3.721  0.1672 -0.9654 -0.3233
   9623SM   H5S12959   2.857   1.681   3.651  2.4390 -0.7067 -2.9022
   9623SM   C6S12960   2.873   1.745   3.865 -0.8072 -1.0469  1.1553
   9623SM   H6S12961   2.766   1.775   3.857 -0.7498 -1.3306 -1.4948
   9623SM   H6T12962   2.928   1.816   3.931  0.9311 -1.2928  0.0211
   9623SM   C7S12963   2.885   1.612   3.927 -0.4012 -0.1767  0.0382
   9623SM   H7S12964   2.987   1.571   3.913  0.6987  2.0801  0.9255
   9623SM   H7T12965   2.821   1.539   3.873  1.1760 -0.2050 -1.9077
   9623SM   C8S12966   2.849   1.611   4.078  0.7715  0.7018  0.1197
   9623SM   H8S12967   2.823   1.507   4.108  2.2504 -0.1837 -1.4209
   9623SM   H8T12968   2.752   1.664   4.086  0.4688  0.1254  0.4000
   9623SM   C9S12969   2.960   1.662   4.169 -1.1261 -0.4331 -0.0337
   9623SM   H9S12970   2.984   1.768   4.145  0.4547 -0.8162 -0.2869
   9623SM   H9T12971   3.047   1.593   4.157 -0.3723  0.8613 -2.9635
   9623SM  C10S12972   2.906   1.664   4.315 -0.0071  0.5959 -0.5338
   9623SM  H10S12973   2.862   1.563   4.331 -0.9810  0.9444 -0.9662
   9623SM  H10T12974   2.822   1.735   4.324  0.8206  1.4794  0.4853
   9623SM  C11S12975   3.016   1.694   4.414 -0.8318  0.2168  0.0341
   9623SM  H11S12976   3.045   1.801   4.411  0.5120  0.0937  3.4989
   9623SM  H11T12977   3.110   1.636   4.399 -1.0622 -0.4946  1.1939
   9623SM  C12S12978   2.978   1.669   4.563  0.0978  0.3855  0.1181
   9623SM  H12S12979   2.873   1.700   4.582 -0.2754 -1.1648  0.7302
   9623SM  H12T12980   3.049   1.737   4.615  0.8054 -0.3495  0.1269
   9623SM  C13S12981   3.008   1.533   4.618 -0.1148 -0.2185 -0.1347
   9623SM  H13S12982   3.117   1.517   4.606 -0.3822 -1.8805 -0.6326
   9623SM  H13T12983   2.952   1.450   4.570  0.7302 -0.4734 -0.7049
   9623SM  C14S12984   2.988   1.529   4.774  0.0345 -0.8144  0.4086
   9623SM  H14S12985   3.027   1.626   4.812 -0.3866  0.1361 -1.4836
   9623SM  H14T12986   3.057   1.461   4.828 -1.9548 -2.6866  0.7109
   9623SM  C15S12987   2.847   1.488   4.812 -0.2669 -0.5075 -0.0858
   9623SM  H15S12988   2.816   1.396   4.759  1.1288 -0.7813 -0.4665
   9623SM  H15T12989   2.782   1.569   4.772  1.8083  2.3516  1.9070
   9623SM  C16S12990   2.816   1.457   4.959  0.1232 -0.5350 -0.1564
   9623SM  H16S12991   2.811   1.552   5.017 -1.4459  0.8996 -2.4526
   9623SM  H16T12992   2.898   1.398   5.003 -0.1522  0.0305  1.1470
   9623SM  C17S12993   2.692   1.373   4.983  0.1194 -0.1368 -0.0440
   9623SM  H17S12994   2.696   1.281   4.921 -3.7498 -0.1675 -0.5281
   9623SM  H17T12995   2.594   1.408   4.942 -0.0641 -0.5194  0.0567
   9623SM  C18S12996   2.682   1.321   5.126  0.4060 -0.3012  0.5211
   9623SM  H18S12997   2.783   1.281   5.149  1.2038  2.8193  3.3165
   9623SM  H18T12998   2.605   1.243   5.143  0.7436 -1.0134 -1.0440
   9623SM  H18U12999   2.665   1.402   5.201  1.7211  0.7270 -0.2446
   9623SM   C1F13000   3.290   1.428   3.600 -0.7992  0.2263 -0.1560
   9623SM    OF13001   3.409   1.464   3.604 -0.0264 -0.1267 -0.1266
   9623SM   C2F13002   3.255   1.281   3.614 -0.3083 -0.3823  0.3977
   9623SM   H2F13003   3.222   1.237   3.517 -0.7050 -0.7870  0.7071
   9623SM   H2G13004   3.183   1.262   3.697  1.5297  1.3210  2.4894
   9623SM   C3F13005   3.386   1.199   3.648  0.1765 -0.2780  0.1281
   9623SM   H3F13006   3.425   1.238   3.744  0.7340 -1.1607  0.2679
   9623SM   H3G13007   3.459   1.202   3.565  0.6767 -1.3692  0.5138
   9623SM   C4F13008   3.361   1.045   3.658 -0.0562 -0.3859 -0.7785
   9623SM   H4F13009   3.314   1.006   3.565 -0.1463  1.5497 -1.6031
   9623SM   H4G13010   3.294   1.018   3.742 -0.9686  2.3911 -0.5084
   9623SM   C5F13011   3.486   0.963   3.676 -0.5269 -0.3963  0.4862
   9623SM   H5F13012   3.530   0.996   3.772  1.0305 -0.9346 -0.0198
   9623SM   H5G13013   3.556   0.994   3.596 -2.3755 -1.5915 -1.7350
   9623SM   C6F13014   3.480   0.815   3.679 -0.0304 -0.3552 -0.4087
   9623SM   H6F13015   3.581   0.781   3.712 -0.8494 -0.5477  2.1349
   9623SM   H6G13016   3.453   0.776   3.579 -0.8940 -1.5884  0.2833
   9623SM   C7F13017   3.365   0.764   3.778 -0.1419 -0.0989  0.1148
   9623SM   H7F13018   3.371   0.654   3.766 -0.9729 -0.2011  0.5345
   9623SM   H7G13019   3.262   0.791   3.747 -1.2143  0.7453  3.8441
   9623SM   C8F13020   3.381   0.804   3.927  0.6312  0.2864  0.6007
   9623SM   H8F13021   3.296   0.752   3.977 -1.9959  1.3088 -2.4660
   9623SM   H8G13022   3.374   0.914   3.941 -0.3890  0.0845  1.8475
   9623SM   C9F13023   3.520   0.761   3.980 -0.4136  0.8390  0.0182
   9623SM   H9F13024   3.599   0.814   3.922  2.8088 -0.3293  3.0171
   9623SM   H9G13025   3.536   0.655   3.950  1.4637  0.8561  0.8868
   9623SM  C10F13026   3.544   0.783   4.129  1.0389  0.5886 -0.0534
   9623SM  H10F13027   3.483   0.864   4.174  0.9908  1.7582 -2.0913
   9623SM  H10G13028   3.645   0.830   4.126  0.9541  0.7273 -1.4638
   9623SM  C11F13029   3.530   0.663   4.221 -0.0601  0.1293 -0.4620
   9623SM  H11F13030   3.618   0.595   4.210  0.6227  0.9701 -0.3221
   9623SM  H11G13031   3.435   0.611   4.199 -0.0749  0.2806 -0.7604
   9623SM  C12F13032   3.512   0.721   4.365 -0.1984  0.1502 -0.5133
   9623SM  H12F13033   3.442   0.807   4.370 -1.4782 -0.8988  0.5234
   9623SM  H12G13034   3.615   0.761   4.375 -0.2271  0.4084 -1.2253
   9623SM  C13F13035   3.473   0.622   4.476 -0.2082  0.2613  0.1285
   9623SM  H13F13036   3.516   0.524   4.445 -1.8060 -1.3836  2.7800
   9623SM  H13G13037   3.363   0.614   4.485 -0.2925  3.0627  3.4264
   9623SM  C14F13038   3.527   0.657   4.620  0.1392 -0.2081  0.1928
   9623SM  H14F13039   3.491   0.760   4.641 -0.4309 -0.4457  0.4096
   9623SM  H14G13040   3.637   0.672   4.618  0.5632 -2.8778  0.3113
   9623SM  C15F13041   3.474   0.562   4.727  1.0384 -0.2336  0.1215
   9623SM  H15F13042   3.527   0.464   4.719 -0.1645 -0.9306  0.4692
   9623SM  H15G13043   3.364   0.554   4.732  1.0950 -0.5508  0.9742
   9623SM  C16F13044   3.518   0.616   4.862 -0.0768  0.2026 -0.0570
   9623SM  H16F13045   3.483   0.722   4.856 -1.7133 -0.3893 -2.1484
   9623SM  H16G13046   3.628   0.625   4.876 -0.0365 -1.7535  1.1319
   9623SM  C17F13047   3.463   0.534   4.980 -0.2978 -0.2179 -0.1656
   9623SM  H17F13048   3.456   0.428   4.948  1.6639 -0.2544 -0.5764
   9623SM  H17G13049   3.361   0.567   5.009  0.1405  1.8202 -0.7769
   9623SM  C18F13050   3.544   0.554   5.104 -0.2152  0.3306  0.0646
   9623SM  H18F13051   3.479   0.529   5.191 -1.8114  0.4688 -1.0462
   9623SM  H18G13052   3.601   0.649   5.103  0.7590 -0.1863 -2.9115
   9623SM  C19F13053   3.668   0.456   5.104 -0.4230  0.0238  0.6918
   9623SM  H19F13054   3.722   0.474   5.009  0.2345 -1.1022  0.8394
   9623SM  H19G13055   3.646   0.348   5.109 -0.3605 -0.0139  0.1948
   9623SM  C20F13056   3.758   0.475   5.234  0.4083  0.0413 -0.0069
   9623SM  H20F13057   3.699   0.463   5.327  0.1170 -1.5576 -0.3675
   9623SM  H20G13058   3.791   0.581   5.234  0.7089 -0.0448 -0.7272
   9623SM  C21F13059   3.885   0.389   5.245  0.1417  0.4934  0.1969
   9623SM  H21F13060   3.933   0.381   5.145 -0.0107  2.1519 -0.0295
   9623SM  H21G13061   3.851   0.287   5.275 -2.6115  1.8317  2.0398
   9623SM  C22F13062   3.991   0.448   5.335 -0.5913 -0.5911 -0.2593
   9623SM  H22F13063   3.934   0.494   5.418 -1.6346 -1.9166 -0.1960
   9623SM  H22G13064   4.043   0.533   5.285 -0.6658 -0.5737 -0.3078
   9623SM  C23F13065   4.093   0.352   5.395  0.3687  0.5950 -0.1168
   9623SM  H23F13066   4.047   0.260   5.437  1.2771  0.9718  1.8268
   9623SM  H23G13067   4.130   0.405   5.486 -0.2198 -0.5102  0.7849
   9623SM  H23H13068   4.176   0.317   5.330  0.4065  0.2010  0.1401
   9723SM     N13069   4.318   0.279   2.873  0.0851 -0.1893 -0.5947
   9723SM   C1513070   4.406   0.311   2.991 -0.0713  0.9515 -0.0198
   9723SM  H15A13071   4.463   0.399   2.967 -0.1858  0.8595 -0.6385
   9723SM  H15B13072   4.473   0.227   3.003 -0.6765  0.3291 -0.8377
   9723SM  H15C13073   4.342   0.313   3.078 -1.5280 -0.1550 -1.0303
   9723SM   C1413074   4.189   0.359   2.873 -0.8504  0.0956  0.1227
   9723SM  H14A13075   4.207   0.464   2.888 -3.2751  0.5078  0.4551
   9723SM  H14B13076   4.134   0.317   2.956 -1.2934 -2.3249 -1.3170
   9723SM  H14C13077   4.129   0.359   2.784 -0.3104  1.4991 -0.2686
   9723SM   C1313078   4.388   0.307   2.739  0.0015 -0.1542 -0.4808
   9723SM  H13A13079   4.417   0.410   2.731 -0.1751  0.0421  1.2253
   9723SM  H13B13080   4.327   0.280   2.654 -0.4465 -1.6381  0.2767
   9723SM  H13C13081   4.481   0.251   2.747  0.5051  0.7944  0.5250
   9723SM   C1213082   4.271   0.137   2.875 -0.1307  0.0819 -0.5945
   9723SM  H12A13083   4.355   0.074   2.848 -1.3156 -0.6080 -2.9234
   9723SM  H12B13084   4.196   0.108   2.803  1.1415 -1.0802 -1.5003
   9723SM   C1113085   4.223   0.085   3.011  0.7634 -0.3604  0.4974
   9723SM  H11A13086   4.137   0.130   3.066 -0.6986 -2.9019  0.4226
   9723SM  H11B13087   4.308   0.089   3.082  0.6748  0.3011  0.5763
   9723SM     P13088   4.036  -0.092   2.999  0.1370  0.0272 -0.3134
   9723SM   O1313089   3.951  -0.000   2.921 -0.6980  0.6841  0.3321
   9723SM   O1413090   4.027  -0.229   2.945  0.2834  0.2685 -0.4866
   9723SM   O1113091   4.038  -0.084   3.157  0.5920  0.6341 -0.4085
   9723SM   O1213092   4.183  -0.049   2.988 -0.1414  0.3502 -0.3942
   9723SM   C1S13093   4.112  -0.170   3.241 -0.3874  0.0773  0.2462
   9723SM   H1S13094   4.213  -0.186   3.197 -0.7409  0.7722 -0.8694
   9723SM   H1T13095   4.065  -0.269   3.224 -2.4718  1.1702 -0.7470
   9723SM    NF13096   4.187  -0.223   3.474 -0.4618  0.2535  0.0980
   9723SM   HNF13097   4.126  -0.282   3.527  0.0135  0.6176  1.0812
   9723SM   C2S13098   4.130  -0.119   3.392 -0.7178 -0.2029  0.1615
   9723SM   H2S13099   4.207  -0.042   3.372  0.4871 -1.4135  0.0027
   9723SM   C3S13100   3.994  -0.060   3.440 -0.3374 -0.1101 -0.4071
   9723SM   H3S13101   3.937  -0.155   3.447 -0.8308 -0.0450 -2.7858
   9723SM    O313102   3.921   0.028   3.362  0.1647  0.4914  0.1114
   9723SM   HO313103   3.942   0.006   3.271 -0.9336  2.0744 -0.5667
   9723SM   C4S13104   4.006  -0.022   3.594 -0.1314  0.4192  0.7358
   9723SM   H4S13105   4.015  -0.114   3.654 -2.0567 -1.6752 -1.9518
   9723SM   C5S13106   4.002   0.102   3.654  0.9939  0.2355 -1.0038
   9723SM   H5S13107   4.005   0.193   3.592  1.0496 -0.1748 -1.6087
   9723SM   C6S13108   3.992   0.144   3.802 -0.4273  0.3324 -0.6329
   9723SM   H6S13109   4.014   0.252   3.808 -1.1250  0.3905  2.8823
   9723SM   H6T13110   4.067   0.091   3.864 -1.7511 -0.3394  0.4655
   9723SM   C7S13111   3.860   0.098   3.865  0.2269  0.3715  0.0532
   9723SM   H7S13112   3.829   0.001   3.821 -0.0347  0.8263 -0.7985
   9723SM   H7T13113   3.773   0.165   3.846  0.6716  0.9871  0.1513
   9723SM   C8S13114   3.860   0.089   4.021 -0.0289 -0.2348  0.3122
   9723SM   H8S13115   3.933   0.008   4.042 -0.3672 -0.6559 -0.0992
   9723SM   H8T13116   3.759   0.055   4.053 -1.0590  3.2390  1.1865
   9723SM   C9S13117   3.891   0.228   4.085 -0.1369 -0.5778 -0.0069
   9723SM   H9S13118   3.830   0.311   4.043 -1.4011 -2.1920 -1.5031
   9723SM   H9T13119   3.995   0.250   4.052 -0.2490  0.5614  0.3700
   9723SM  C10S13120   3.904   0.223   4.237  0.3488  0.1225 -0.5935
   9723SM  H10S13121   3.968   0.311   4.260  0.7111  0.1898 -1.7946
   9723SM  H10T13122   3.952   0.126   4.263 -0.6653 -0.0639  0.6955
   9723SM  C11S13123   3.764   0.236   4.306 -0.1156  0.1444 -0.3886
   9723SM  H11S13124   3.720   0.136   4.283  0.6489 -0.1595 -0.5458
   9723SM  H11T13125   3.697   0.314   4.263 -2.1514 -0.9410  0.6585
   9723SM  C12S13126   3.774   0.249   4.458  0.3081 -0.2080 -0.0963
   9723SM  H12S13127   3.846   0.172   4.493  1.0268  0.8435  0.7660
   9723SM  H12T13128   3.674   0.232   4.504 -0.8907  1.2364 -2.0282
   9723SM  C13S13129   3.825   0.388   4.507  0.2981  0.5579 -0.0312
   9723SM  H13S13130   3.740   0.459   4.501  1.8226  2.3766 -1.2132
   9723SM  H13T13131   3.903   0.426   4.437  1.5131 -1.7729 -0.0423
   9723SM  C14S13132   3.883   0.387   4.650  0.3591 -0.0362  0.0222
   9723SM  H14S13133   3.959   0.308   4.669  0.0920 -0.4909 -0.7429
   9723SM  H14T13134   3.804   0.374   4.727 -0.3950  0.3143 -0.6663
   9723SM  C15S13135   3.946   0.525   4.690 -0.4762  0.3316 -0.6005
   9723SM  H15S13136   3.871   0.606   4.693 -1.0013 -0.1088  3.4444
   9723SM  H15T13137   4.030   0.550   4.621  0.6567  1.4982  1.1221
   9723SM  C16S13138   3.999   0.528   4.835  0.2924 -0.0751 -0.0531
   9723SM  H16S13139   3.914   0.512   4.905  0.8749 -1.7048  0.3034
   9723SM  H16T13140   4.034   0.633   4.845 -1.2386  0.7392 -2.4140
   9723SM  C17S13141   4.112   0.433   4.886 -0.1809  0.5869 -0.0384
   9723SM  H17S13142   4.072   0.329   4.878  1.2432 -0.0176  0.3084
   9723SM  H17T13143   4.129   0.457   4.993 -0.4294 -1.3893  0.4950
   9723SM  C18S13144   4.250   0.444   4.814  0.1385 -0.1976 -0.0104
   9723SM  H18S13145   4.289   0.548   4.822  0.2116 -0.2858  0.8029
   9723SM  H18T13146   4.226   0.424   4.707 -2.0028 -0.9855  0.5555
   9723SM  H18U13147   4.324   0.371   4.853  2.4294  1.5227 -0.8944
   9723SM   C1F13148   4.316  -0.272   3.462 -0.8048  0.3820 -0.0693
   9723SM    OF13149   4.404  -0.213   3.404  0.1754  0.3381 -0.7192
   9723SM   C2F13150   4.347  -0.415   3.509 -0.3067  0.0604 -0.2862
   9723SM   H2F13151   4.381  -0.465   3.416  0.8664  2.6942 -1.3589
   9723SM   H2G13152   4.254  -0.466   3.543 -0.3814  0.4066  0.0422
   9723SM   C3F13153   4.452  -0.420   3.628 -0.8266  0.8296 -0.5115
   9723SM   H3F13154   4.543  -0.367   3.593  0.1255 -0.8568 -0.6998
   9723SM   H3G13155   4.482  -0.525   3.651  0.2293  0.9300 -1.3612
   9723SM   C4F13156   4.405  -0.351   3.758  0.1042  0.1320 -0.0605
   9723SM   H4F13157   4.321  -0.413   3.797 -0.8573  1.7110  0.4816
   9723SM   H4G13158   4.358  -0.254   3.731  1.5293  0.1005 -3.0902
   9723SM   C5F13159   4.517  -0.349   3.862 -0.4911 -0.0235  0.6119
   9723SM   H5F13160   4.605  -0.295   3.821 -1.5277  0.4835 -1.0435
   9723SM   H5G13161   4.539  -0.456   3.881 -0.4172 -0.0560  0.3521
   9723SM   C6F13162   4.468  -0.277   3.984  0.2179  1.1890  0.0832
   9723SM   H6F13163   4.398  -0.353   4.024  0.2152  1.0759 -0.1411
   9723SM   H6G13164   4.419  -0.179   3.963 -1.2065  0.0476 -2.3056
   9723SM   C7F13165   4.580  -0.260   4.090 -0.5693 -0.1683  0.6337
   9723SM   H7F13166   4.633  -0.165   4.068 -0.5170 -0.7576 -2.1824
   9723SM   H7G13167   4.653  -0.343   4.089  1.0158  1.1670 -1.0376
   9723SM   C8F13168   4.515  -0.254   4.229 -0.0641  0.3199  0.2771
   9723SM   H8F13169   4.491  -0.359   4.254  0.9842 -1.0569 -3.7477
   9723SM   H8G13170   4.418  -0.202   4.211  0.3905  0.6160 -1.4740
   9723SM   C9F13171   4.588  -0.179   4.340 -0.5767  0.1399 -0.6917
   9723SM   H9F13172   4.521  -0.144   4.421 -0.4496 -1.7015  0.2657
   9723SM   H9G13173   4.629  -0.084   4.300  0.0220  0.5658  0.8867
   9723SM  C10F13174   4.690  -0.267   4.410 -0.2181 -0.4230 -0.2713
   9723SM  H10F13175   4.755  -0.212   4.481  1.8556 -1.2715 -1.4248
   9723SM  H10G13176   4.766  -0.302   4.337  2.1055  0.1627  1.7024
   9723SM  C11F13177   4.630  -0.390   4.485  0.0291  0.3493 -0.0459
   9723SM  H11F13178   4.587  -0.458   4.408  0.6536 -0.1042  0.0038
   9723SM  H11G13179   4.543  -0.369   4.551 -1.1842 -3.1818 -0.3023
   9723SM  C12F13180   4.737  -0.471   4.564  0.0965  0.2942 -0.1892
   9723SM  H12F13181   4.785  -0.407   4.642  0.2827  0.1257 -0.1647
   9723SM  H12G13182   4.812  -0.508   4.491  1.6269  0.2089  1.3469
   9723SM  C13F13183   4.682  -0.599   4.626 -0.5503 -1.0408 -0.2903
   9723SM  H13F13184   4.646  -0.666   4.546 -2.1569 -0.2901 -0.2210
   9723SM  H13G13185   4.592  -0.576   4.686 -0.1287 -0.0824  0.0132
   9723SM  C14F13186   4.794  -0.677   4.697  0.0841 -0.7450  0.1485
   9723SM  H14F13187   4.845  -0.613   4.773  1.5946 -1.9907  0.2461
   9723SM  H14G13188   4.869  -0.709   4.621  0.7467  0.9266  0.0526
   9723SM  C15F13189   4.751  -0.811   4.768 -0.3290  0.1533  0.6266
   9723SM  H15F13190   4.694  -0.778   4.858  0.9677  1.0520  1.1644
   9723SM  H15G13191   4.845  -0.858   4.806 -0.1749  1.0381  1.3779
   9723SM  C16F13192   4.657  -0.909   4.684 -0.0624 -0.8376  0.2050
   9723SM  H16F13193   4.688  -0.916   4.578 -1.1503  0.6077 -0.2312
   9723SM  H16G13194   4.558  -0.858   4.688  0.6393  0.5265  0.8942
   9723SM  C17F13195   4.665  -1.050   4.740  0.6130 -0.0981  0.5385
   9723SM  H17F13196   4.772  -1.077   4.732  0.3838 -0.9756  0.2712
   9723SM  H17G13197   4.595  -1.116   4.683 -1.8691 -0.4393  3.6657
   9723SM  C18F13198   4.630  -1.052   4.894 -0.5207 -0.1164  0.2365
   9723SM  H18F13199   4.537  -0.998   4.919  0.5506  1.3502  1.2255
   9723SM  H18G13200   4.712  -1.002   4.949  0.7252 -0.2857 -1.3877
   9723SM  C19F13201   4.615  -1.194   4.941 -0.0989  0.1469 -0.3474
   9723SM  H19F13202   4.705  -1.256   4.923  0.6971  0.5972  1.7542
   9723SM  H19G13203   4.527  -1.236   4.888 -0.9507  0.7325  0.5507
   9723SM  C20F13204   4.583  -1.201   5.094  0.1331  0.0451 -0.0484
   9723SM  H20F13205   4.496  -1.136   5.118  0.1267 -0.1815  0.5546
   9723SM  H20G13206   4.671  -1.158   5.145  0.6559 -1.6114  0.5094
   9723SM  C21F13207   4.561  -1.349   5.138 -0.9382  0.3458 -0.0547
   9723SM  H21F13208   4.642  -1.408   5.091 -0.2200  0.8327  0.5660
   9723SM  H21G13209   4.462  -1.378   5.096 -0.6010  0.4920 -0.9853
   9723SM  C22F13210   4.538  -1.371   5.287 -0.5299  0.5561 -0.1865
   9723SM  H22F13211   4.488  -1.470   5.294 -0.0396  0.1689 -1.7844
   9723SM  H22G13212   4.476  -1.291   5.333  0.8150 -0.1961  3.2425
   9723SM  C23F13213   4.671  -1.370   5.371  0.4147 -0.5523 -0.3504
   9723SM  H23F13214   4.737  -1.285   5.341  0.6220  0.0896  1.7844
   9723SM  H23G13215   4.723  -1.467   5.356  2.1163  0.4792 -1.5539
   9723SM  H23H13216   4.646  -1.365   5.479 -2.0849 -2.1558 -0.7727
   9823SM     N13217   6.817   6.759   2.582  0.3832 -0.2742  0.0912
   9823SM   C1513218   6.882   6.748   2.455 -0.4759 -0.2203  0.1970
   9823SM  H15A13219   6.816   6.783   2.377  1.0121 -0.8773 -1.4480
   9823SM  H15B13220   6.894   6.645   2.424 -1.2830  0.0238 -1.0010
   9823SM  H15C13221   6.976   6.800   2.447  0.6161 -2.3338 -3.6763
   9823SM   C1413222   6.794   6.901   2.613  0.1027 -0.1768  0.9218
   9823SM  H14A13223   6.890   6.949   2.602 -0.3184  0.2436 -1.7511
   9823SM  H14B13224   6.734   6.906   2.702 -1.5165  1.2966 -0.1785
   9823SM  H14C13225   6.740   6.955   2.536  0.3829 -0.7555  0.3060
   9823SM   C1313226   6.684   6.682   2.583  0.1917  0.2980  0.4367
   9823SM  H13A13227   6.635   6.692   2.679  0.7232 -1.3618  0.9201
   9823SM  H13B13228   6.701   6.577   2.567 -0.0414  0.2806  0.3076
   9823SM  H13C13229   6.620   6.713   2.502  0.6342 -1.3354 -0.5866
   9823SM   C1213230   6.908   6.701   2.691 -0.9692  0.0598 -0.1929
   9823SM  H12A13231   6.998   6.759   2.683 -1.9483  1.7415  0.5453
   9823SM  H12B13232   6.917   6.594   2.675 -1.6249 -0.0131 -0.1291
   9823SM   C1113233   6.865   6.707   2.837  0.4633  0.3335  0.4783
   9823SM  H11A13234   6.843   6.810   2.873  0.1464  1.0826 -1.6814
   9823SM  H11B13235   6.948   6.675   2.904  1.9862 -0.1450 -1.5319
   9823SM     P13236   6.726   6.528   2.962 -0.7508 -0.0752  0.0815
   9823SM   O1313237   6.600   6.453   2.953 -0.5200  0.0445 -0.3959
   9823SM   O1413238   6.843   6.437   2.967 -0.0185  0.1953 -0.1056
   9823SM   O1113239   6.733   6.615   3.097  0.3880  0.1079 -0.1818
   9823SM   O1213240   6.738   6.627   2.850 -0.0213 -0.4207 -0.2481
   9823SM   C1S13241   6.613   6.666   3.153  0.2888  0.8196  0.8838
   9823SM   H1S13242   6.550   6.580   3.184  0.5240  0.5155  0.5256
   9823SM   H1T13243   6.557   6.722   3.075  1.0135 -2.4151 -2.1938
   9823SM    NF13244   6.528   6.776   3.356  0.5442  0.1685  0.8860
   9823SM   HNF13245   6.501   6.872   3.359  3.8937  1.3386 -1.3787
   9823SM   C2S13246   6.650   6.753   3.278  0.2340 -0.1629 -0.1515
   9823SM   H2S13247   6.710   6.686   3.343 -2.3493 -0.6833  1.8972
   9823SM   C3S13248   6.722   6.882   3.225 -0.1362  0.3512 -0.4552
   9823SM   H3S13249   6.638   6.939   3.179  0.3043 -0.3046 -2.1504
   9823SM    O313250   6.818   6.872   3.125  0.0107  0.1062  0.3494
   9823SM   HO313251   6.785   6.788   3.091  0.1836  0.7419 -1.5103
   9823SM   C4S13252   6.766   6.969   3.344 -0.3844 -0.3458  0.3679
   9823SM   H4S13253   6.698   7.047   3.380  0.9732  1.5649 -1.0042
   9823SM   C5S13254   6.885   6.971   3.396 -0.3362 -0.1691  0.1858
   9823SM   H5S13255   6.960   6.898   3.361  0.0629  1.5596 -2.8821
   9823SM   C6S13256   6.936   7.054   3.516 -0.1311  0.8491 -0.5974
   9823SM   H6S13257   6.875   7.144   3.537 -0.4957  0.5071 -0.1581
   9823SM   H6T13258   7.034   7.100   3.491 -0.1416  1.1950 -0.0120
   9823SM   C7S13259   6.946   6.985   3.649 -0.5480 -0.4231 -0.7034
   9823SM   H7S13260   6.844   6.952   3.678  0.0915 -2.3310 -0.5422
   9823SM   H7T13261   6.986   7.054   3.726 -1.0661 -0.8819 -0.0072
   9823SM   C8S13262   7.034   6.859   3.651  0.0078  0.1065 -0.4090
   9823SM   H8S13263   7.139   6.889   3.631  0.6930 -1.0518  1.3259
   9823SM   H8T13264   7.009   6.783   3.573 -0.2833  0.4623 -0.6718
   9823SM   C9S13265   7.032   6.794   3.792  0.1011 -0.0202 -0.0422
   9823SM   H9S13266   7.021   6.870   3.872 -1.6793 -0.7693  0.4674
   9823SM   H9T13267   7.128   6.742   3.812 -1.3428 -3.1012 -0.5691
   9823SM  C10S13268   6.916   6.694   3.805 -0.5433 -0.1770 -0.6559
   9823SM  H10S13269   6.919   6.642   3.707 -0.6209  1.3549 -1.5124
   9823SM  H10T13270   6.821   6.752   3.811 -0.0782  0.4754  1.8319
   9823SM  C11S13271   6.915   6.596   3.928 -0.4718 -0.2033  0.3921
   9823SM  H11S13272   6.924   6.661   4.018 -2.0104  1.1215 -0.3579
   9823SM  H11T13273   6.995   6.519   3.923  0.1699  0.3121  1.8893
   9823SM  C12S13274   6.781   6.529   3.943 -0.5932  0.0096 -0.0294
   9823SM  H12S13275   6.779   6.439   3.878  1.3923  1.1123 -1.7799
   9823SM  H12T13276   6.691   6.592   3.925 -0.8904  0.0022  1.3320
   9823SM  C13S13277   6.767   6.473   4.089  0.5252 -0.6041  0.5293
   9823SM  H13S13278   6.808   6.551   4.157 -1.1003  0.4221  0.3858
   9823SM  H13T13279   6.830   6.386   4.116  0.3579 -0.7906  0.3249
   9823SM  C14S13280   6.615   6.439   4.114  0.0293  0.2965  0.1562
   9823SM  H14S13281   6.584   6.360   4.043  1.3057 -0.9165  0.9011
   9823SM  H14T13282   6.545   6.525   4.107  1.0009  1.1838  0.9471
   9823SM  C15S13283   6.593   6.384   4.255 -0.2826 -0.6348  0.1326
   9823SM  H15S13284   6.629   6.279   4.262 -0.3891 -0.5840  1.9391
   9823SM  H15T13285   6.485   6.386   4.284  0.2674  1.4948  2.3320
   9823SM  C16S13286   6.667   6.472   4.359 -0.1636 -0.4155  0.2483
   9823SM  H16S13287   6.656   6.581   4.345  1.5485 -0.0932  1.1292
   9823SM  H16T13288   6.777   6.459   4.354  0.1108  1.4088  0.9302
   9823SM  C17S13289   6.620   6.442   4.501  0.0972 -0.1936 -0.1245
   9823SM  H17S13290   6.513   6.465   4.523  0.0484 -0.7027  0.1923
   9823SM  H17T13291   6.688   6.503   4.564 -0.1750 -1.4341  1.4608
   9823SM  C18S13292   6.646   6.299   4.553  0.3875  0.0234  0.1672
   9823SM  H18S13293   6.572   6.231   4.507  1.0837 -1.3334  0.9962
   9823SM  H18T13294   6.626   6.280   4.661  1.6531  1.3868  0.6723
   9823SM  H18U13295   6.746   6.262   4.523 -0.4251 -0.8586 -1.5931
   9823SM   C1F13296   6.465   6.678   3.427  0.1984 -0.0821 -0.5326
   9823SM    OF13297   6.516   6.569   3.456  0.0322 -0.3918 -0.0670
   9823SM   C2F13298   6.325   6.720   3.484 -0.4311 -0.6134 -0.1733
   9823SM   H2F13299   6.245   6.661   3.435 -0.3916  1.7547 -3.4295
   9823SM   H2G13300   6.301   6.826   3.460  0.8435  0.3147  2.2589
   9823SM   C3F13301   6.331   6.702   3.637 -0.3887 -0.0892 -0.0839
   9823SM   H3F13302   6.369   6.605   3.674  2.4365  1.0730  0.3134
   9823SM   H3G13303   6.230   6.715   3.682 -0.0846  0.9390  0.3409
   9823SM   C4F13304   6.425   6.802   3.704  0.2451 -1.2279  0.4291
   9823SM   H4F13305   6.406   6.907   3.672 -1.7136 -1.7280 -0.2003
   9823SM   H4G13306   6.528   6.778   3.670  0.5657  0.6384 -0.0620
   9823SM   C5F13307   6.417   6.806   3.859 -0.2007 -0.1343  0.0125
   9823SM   H5F13308   6.398   6.705   3.899 -4.0424  0.3480 -0.2469
   9823SM   H5G13309   6.332   6.874   3.880  1.4501  1.9161  0.4671
   9823SM   C6F13310   6.543   6.866   3.916 -0.4610  0.4302 -0.0163
   9823SM   H6F13311   6.567   6.966   3.874  1.3409  0.5867  1.2501
   9823SM   H6G13312   6.630   6.799   3.899  0.0628 -0.0228  3.5723
   9823SM   C7F13313   6.529   6.870   4.068 -0.7416  0.2922  0.7222
   9823SM   H7F13314   6.517   6.765   4.104 -0.8945  0.3856  0.9442
   9823SM   H7G13315   6.453   6.939   4.109  0.0666  1.9195 -0.3948
   9823SM   C8F13316   6.661   6.917   4.132 -0.3887  0.2154 -0.6979
   9823SM   H8F13317   6.673   7.026   4.112 -0.3771  0.1926 -0.8129
   9823SM   H8G13318   6.741   6.864   4.078  0.9818 -0.0036  1.4230
   9823SM   C9F13319   6.661   6.897   4.278  0.4938  1.2506 -0.3657
   9823SM   H9F13320   6.642   6.789   4.294 -0.8757  1.4697 -0.4101
   9823SM   H9G13321   6.588   6.963   4.330 -0.1781 -0.2011  0.5968
   9823SM  C10F13322   6.791   6.916   4.347 -0.1571 -0.4993 -0.1563
   9823SM  H10F13323   6.804   7.027   4.344 -1.0226 -0.3944 -0.2899
   9823SM  H10G13324   6.877   6.859   4.306  0.3397 -1.1897  1.6985
   9823SM  C11F13325   6.780   6.877   4.495  0.1108 -0.0164 -0.3747
   9823SM  H11F13326   6.878   6.877   4.549 -1.0949 -1.6231  2.0264
   9823SM  H11G13327   6.742   6.775   4.516  2.0174 -0.9860 -1.3673
   9823SM  C12F13328   6.703   6.984   4.589  0.4755 -0.1586 -0.1973
   9823SM  H12F13329   6.600   6.990   4.547  1.5231 -0.9882 -3.1508
   9823SM  H12G13330   6.748   7.085   4.578 -1.2445  0.7301  0.6041
   9823SM  C13F13331   6.698   6.949   4.737  0.6404 -0.5480 -0.1409
   9823SM  H13F13332   6.802   6.955   4.778  0.0226  5.3692  1.4742
   9823SM  H13G13333   6.655   6.850   4.761 -0.3024 -0.4880 -1.4493
   9823SM  C14F13334   6.630   7.050   4.828 -0.2758 -0.0815 -0.2000
   9823SM  H14F13335   6.522   7.035   4.850 -0.1863 -0.1678  0.1969
   9823SM  H14G13336   6.651   7.149   4.783 -0.9070  0.8821  1.5193
   9823SM  C15F13337   6.689   7.055   4.967 -0.4490 -0.2999  0.0858
   9823SM  H15F13338   6.632   7.121   5.037 -0.5309  3.0091 -2.7894
   9823SM  H15G13339   6.794   7.093   4.972 -0.5090 -0.0534 -0.5060
   9823SM  C16F13340   6.684   6.913   5.026  0.1809 -0.1110 -0.6259
   9823SM  H16F13341   6.730   6.836   4.960 -0.3896  1.3073 -2.7706
   9823SM  H16G13342   6.579   6.878   5.028  0.4680 -1.1269 -1.9310
   9823SM  C17F13343   6.741   6.907   5.166 -0.2929  0.1604  0.3882
   9823SM  H17F13344   6.674   6.959   5.238 -0.8371 -0.4977  0.3596
   9823SM  H17G13345   6.829   6.975   5.160  0.7053 -0.9800  1.3990
   9823SM  C18F13346   6.770   6.762   5.212  0.4092  0.3452 -0.6466
   9823SM  H18F13347   6.789   6.764   5.321 -0.1424 -0.1074 -0.5389
   9823SM  H18G13348   6.857   6.722   5.155 -1.2685 -2.3435 -1.5004
   9823SM  C19F13349   6.661   6.662   5.184 -0.7095  0.6698 -0.5920
   9823SM  H19F13350   6.671   6.623   5.080 -0.4871  0.9410 -0.6737
   9823SM  H19G13351   6.555   6.693   5.193 -0.5533  1.3964 -1.2047
   9823SM  C20F13352   6.685   6.539   5.274 -0.0134  0.0386  0.0845
   9823SM  H20F13353   6.662   6.548   5.382  0.6053  0.4677  0.1880
   9823SM  H20G13354   6.794   6.517   5.264  0.0693 -0.4011  1.6612
   9823SM  C21F13355   6.605   6.420   5.226 -0.5403 -0.4687  0.5904
   9823SM  H21F13356   6.645   6.388   5.127  1.5533 -1.7827  1.7700
   9823SM  H21G13357   6.496   6.433   5.210 -0.3250 -1.6723 -2.7238
   9823SM  C22F13358   6.609   6.304   5.326  0.4610  0.2676 -0.5593
   9823SM  H22F13359   6.577   6.211   5.276  0.7097 -1.4244  2.2334
   9823SM  H22G13360   6.539   6.324   5.410 -0.5761  0.9502 -1.5553
   9823SM  C23F13361   6.745   6.260   5.379 -0.0475  0.6499  0.6834
   9823SM  H23F13362   6.806   6.212   5.299  2.2446 -1.0316  3.2478
   9823SM  H23G13363   6.726   6.185   5.458 -2.6803  1.5703  1.0184
   9823SM  H23H13364   6.803   6.344   5.424  1.3871  1.5524 -2.5170
   9923SM     N13365   0.326   7.514   3.024 -0.7426 -0.0896  0.5175
   9923SM   C1513366   0.227   7.431   2.955 -0.9522 -0.0093 -0.3776
   9923SM  H15A13367   0.262   7.346   2.898  1.9663  1.8445 -1.5523
   9923SM  H15B13368   0.181   7.497   2.883  0.1591  0.1229 -0.9914
   9923SM  H15C13369   0.151   7.387   3.018  0.1291 -0.5275  0.5946
   9923SM   C1413370   0.411   7.594   2.927 -0.6411 -0.9403  0.2485
   9923SM  H14A13371   0.475   7.534   2.864 -3.0610 -2.6962 -0.7054
   9923SM  H14B13372   0.478   7.657   2.984 -1.5252 -0.9705  1.3508
   9923SM  H14C13373   0.350   7.655   2.862  1.4786  1.3413  0.2737
   9923SM   C1313374   0.251   7.602   3.116 -0.0204  0.3790  0.1004
   9923SM  H13A13375   0.187   7.671   3.062 -1.9667 -0.5207  1.1559
   9923SM  H13B13376   0.323   7.662   3.169 -0.2307 -0.7812  1.7646
   9923SM  H13C13377   0.191   7.549   3.188  0.3539  0.7110  0.6623
   9923SM   C1213378   0.413   7.419   3.103 -0.5250 -0.0943 -1.0192
   9923SM  H12A13379   0.348   7.363   3.168 -0.3457  1.4694  0.5818
   9923SM  H12B13380   0.475   7.472   3.174 -0.5415  0.5361 -1.4618
   9923SM   C1113381   0.501   7.321   3.027  0.0795  0.0756  1.3460
   9923SM  H11A13382   0.441   7.268   2.950  0.4864  1.3309  0.1379
   9923SM  H11B13383   0.535   7.237   3.093 -0.8478 -1.6918 -0.3110
   9923SM     P13384   0.749   7.405   3.029  0.5134  0.1870 -0.1520
   9923SM   O1313385   0.825   7.283   3.004  0.1043  0.2394  0.5739
   9923SM   O1413386   0.815   7.532   2.988 -0.7570  0.1015  0.9709
   9923SM   O1113387   0.710   7.419   3.185  0.0821  0.3368 -0.9508
   9923SM   O1213388   0.606   7.391   2.963 -0.7174  0.5711 -0.2383
   9923SM   C1S13389   0.704   7.544   3.247  0.5777 -0.0164  0.2185
   9923SM   H1S13390   0.668   7.619   3.172  0.7731  0.3015  0.4377
   9923SM   H1T13391   0.805   7.579   3.277  1.1177 -2.7363  1.8788
   9923SM    NF13392   0.599   7.662   3.449  0.4064 -0.1108 -0.3833
   9923SM   HNF13393   0.640   7.673   3.540 -1.2079 -2.0200  0.6417
   9923SM   C2S13394   0.635   7.537   3.387  0.6148  0.3507  0.2779
   9923SM   H2S13395   0.533   7.496   3.369 -0.0976  1.4689  1.5197
   9923SM   C3S13396   0.714   7.436   3.476  0.1894 -0.2105  0.7930
   9923SM   H3S13397   0.811   7.484   3.503  0.0880  1.1722 -1.1093
   9923SM    O313398   0.735   7.305   3.420  0.1953 -0.0260  0.2002
   9923SM   HO313399   0.738   7.319   3.326  2.8690  2.6532  0.5463
   9923SM   C4S13400   0.633   7.420   3.601 -0.1885  0.1915  0.1679
   9923SM   H4S13401   0.681   7.473   3.684  0.7356 -0.0122 -0.2169
   9923SM   C5S13402   0.518   7.356   3.630 -0.4299  0.1840 -0.6028
   9923SM   H5S13403   0.473   7.294   3.551 -0.5997 -0.2281 -0.1822
   9923SM   C6S13404   0.447   7.347   3.762 -0.3708 -0.2379 -0.1548
   9923SM   H6S13405   0.428   7.240   3.783  0.4611 -0.2747  0.4968
   9923SM   H6T13406   0.350   7.400   3.750 -0.4314 -0.6055 -1.3298
   9923SM   C7S13407   0.525   7.413   3.879 -0.1187  0.3317 -0.3991
   9923SM   H7S13408   0.544   7.521   3.862  2.2552 -0.0470 -0.4650
   9923SM   H7T13409   0.627   7.371   3.882 -0.5407 -0.8709 -1.8789
   9923SM   C8S13410   0.464   7.398   4.021  0.0193  0.7993  0.6577
   9923SM   H8S13411   0.362   7.441   4.016 -1.0147 -1.6172 -0.9525
   9923SM   H8T13412   0.518   7.464   4.092  0.1109  1.5028 -0.0556
   9923SM   C9S13413   0.444   7.259   4.078  0.1207  0.5422 -0.2279
   9923SM   H9S13414   0.373   7.212   4.007  1.3172 -0.9310 -0.4977
   9923SM   H9T13415   0.392   7.272   4.176 -0.2215 -1.3776 -0.1045
   9923SM  C10S13416   0.560   7.164   4.095  0.0010  0.4627  0.4499
   9923SM  H10S13417   0.619   7.158   4.001 -0.2955 -2.6317  0.3641
   9923SM  H10T13418   0.521   7.061   4.109  0.6673  0.2173  0.5430
   9923SM  C11S13419   0.668   7.202   4.202  0.1457 -0.0775 -0.3530
   9923SM  H11S13420   0.681   7.313   4.204 -1.1473  0.1646  3.6509
   9923SM  H11T13421   0.763   7.153   4.172 -1.0889 -3.3414  0.6239
   9923SM  C12S13422   0.625   7.153   4.351 -0.3191 -0.0338  0.8804
   9923SM  H12S13423   0.615   7.043   4.342  1.0550 -0.0203 -1.8603
   9923SM  H12T13424   0.535   7.209   4.383  0.4281 -0.0131  3.1080
   9923SM  C13S13425   0.728   7.191   4.461  0.0641 -0.1170 -0.2418
   9923SM  H13S13426   0.726   7.302   4.472  0.3621 -0.0319 -1.0323
   9923SM  H13T13427   0.830   7.161   4.429  0.4525 -0.5302  1.2944
   9923SM  C14S13428   0.689   7.127   4.600 -0.2946  0.0359 -0.5397
   9923SM  H14S13429   0.686   7.018   4.582 -0.3850 -0.2518  1.0826
   9923SM  H14T13430   0.588   7.165   4.626 -0.4521 -0.6436 -0.1528
   9923SM  C15S13431   0.778   7.182   4.712 -0.8309 -0.1975 -0.3986
   9923SM  H15S13432   0.746   7.281   4.750 -2.8264 -1.4008  1.1978
   9923SM  H15T13433   0.882   7.179   4.673 -0.3302 -1.8014  0.9671
   9923SM  C16S13434   0.779   7.092   4.834  0.0042  0.1683 -0.5206
   9923SM  H16S13435   0.834   7.142   4.916  0.4040  0.2673 -0.8459
   9923SM  H16T13436   0.837   7.002   4.803  1.7260  1.1300 -0.2196
   9923SM  C17S13437   0.642   7.065   4.893 -0.0715 -0.9871 -0.9179
   9923SM  H17S13438   0.560   7.048   4.819 -0.2995 -0.4571 -0.7912
   9923SM  H17T13439   0.615   7.155   4.952 -1.3149 -2.5291  0.9860
   9923SM  C18S13440   0.644   6.947   5.001  0.2543 -0.3380 -0.1043
   9923SM  H18S13441   0.714   6.961   5.087 -0.4512 -0.6957  0.5424
   9923SM  H18T13442   0.665   6.855   4.943  1.4329 -0.8636  1.1252
   9923SM  H18U13443   0.545   6.955   5.051  0.7731  4.6542  0.6897
   9923SM   C1F13444   0.522   7.766   3.398  0.9244 -0.2001  0.4702
   9923SM    OF13445   0.468   7.753   3.285 -0.3729 -0.6293 -0.1781
   9923SM   C2F13446   0.503   7.893   3.479  0.0341  0.0443 -1.0892
   9923SM   H2F13447   0.547   7.982   3.429 -0.5525  1.8277  1.3831
   9923SM   H2G13448   0.558   7.875   3.574  0.2991 -0.7801 -1.3929
   9923SM   C3F13449   0.358   7.924   3.515  0.4766 -0.1986  0.0585
   9923SM   H3F13450   0.310   7.934   3.415  1.5025 -0.3019 -0.4548
   9923SM   H3G13451   0.354   8.019   3.572  1.0452  0.6090 -1.1896
   9923SM   C4F13452   0.277   7.810   3.576 -0.5908  0.6891 -1.0388
   9923SM   H4F13453   0.288   7.717   3.516 -0.0294  0.7693 -1.0614
   9923SM   H4G13454   0.169   7.832   3.585 -1.2675 -2.0382 -1.4004
   9923SM   C5F13455   0.324   7.768   3.715  0.0398 -0.4829  0.0722
   9923SM   H5F13456   0.429   7.732   3.708 -0.0733 -0.5200 -1.8302
   9923SM   H5G13457   0.267   7.675   3.735  0.7618 -0.9916 -0.1864
   9923SM   C6F13458   0.311   7.877   3.823  0.5578  0.4145  0.3935
   9923SM   H6F13459   0.210   7.922   3.828 -0.1272 -1.2085  2.3426
   9923SM   H6G13460   0.390   7.953   3.803  0.8496  0.2687  0.9740
   9923SM   C7F13461   0.339   7.808   3.959  0.2940  0.5468  0.6838
   9923SM   H7F13462   0.439   7.760   3.947 -1.0196 -1.9844 -1.0476
   9923SM   H7G13463   0.262   7.729   3.975  0.0087  0.4274 -1.1074
   9923SM   C8F13464   0.343   7.923   4.063 -0.6742 -0.2531  0.1412
   9923SM   H8F13465   0.309   8.013   4.008 -0.0156  0.4014  0.7861
   9923SM   H8G13466   0.452   7.935   4.080 -0.9142  0.6599  1.0994
   9923SM   C9F13467   0.281   7.897   4.202  0.0992  0.7981  0.4212
   9923SM   H9F13468   0.171   7.894   4.187  0.2665 -0.6761 -0.7213
   9923SM   H9G13469   0.299   7.981   4.271 -0.7057  0.8070  0.6326
   9923SM  C10F13470   0.332   7.768   4.263 -0.7448  0.9011  0.1394
   9923SM  H10F13471   0.411   7.728   4.196  1.4415 -1.4284  3.7265
   9923SM  H10G13472   0.248   7.698   4.282 -0.0556  0.5221  2.0136
   9923SM  C11F13473   0.417   7.784   4.396  0.6216  0.3201  0.1584
   9923SM  H11F13474   0.514   7.831   4.371  0.6888 -1.1556 -2.7007
   9923SM  H11G13475   0.437   7.681   4.430  0.7210  0.7010  1.3154
   9923SM  C12F13476   0.334   7.861   4.502  0.3048  0.8674  1.3181
   9923SM  H12F13477   0.334   7.970   4.482 -0.1674  1.0643  2.3680
   9923SM  H12G13478   0.391   7.856   4.597  3.8401  0.4963 -0.6481
   9923SM  C13F13479   0.191   7.803   4.524  0.3301  0.0772 -0.2888
   9923SM  H13F13480   0.192   7.692   4.516  0.4424 -0.2200  2.6783
   9923SM  H13G13481   0.132   7.833   4.435 -0.8866 -1.7658 -0.1649
   9923SM  C14F13482   0.111   7.842   4.649  0.6348  0.4352  0.2320
   9923SM  H14F13483   0.169   7.799   4.734  0.2098  1.0070  0.8271
   9923SM  H14G13484   0.013   7.790   4.640  0.1053  1.4832 -0.2929
   9923SM  C15F13485   0.105   7.986   4.665 -0.2887 -0.1672 -0.3733
   9923SM  H15F13486   0.073   8.029   4.568 -4.1982  0.0960  0.8611
   9923SM  H15G13487   0.204   8.032   4.689 -1.2621  2.2286 -0.6530
   9923SM  C16F13488   0.000   8.022   4.775 -0.1853 -0.3569  0.7146
   9923SM  H16F13489   0.028   7.980   4.874  0.4094 -2.1728 -0.1796
   9923SM  H16G13490  -0.097   7.976   4.746  0.1443 -0.8423  0.3775
   9923SM  C17F13491  -0.000   8.177   4.781  0.1816  0.5759 -0.2167
   9923SM  H17F13492  -0.022   8.213   4.679  0.5978 -1.8553 -1.2135
   9923SM  H17G13493   0.100   8.214   4.810  0.3676 -1.1363  1.5824
   9923SM  C18F13494  -0.118   8.229   4.864 -0.5541  0.8595  0.1880
   9923SM  H18F13495  -0.099   8.185   4.965  1.3279 -0.5314 -0.6953
   9923SM  H18G13496  -0.213   8.191   4.822  0.7360 -1.6723 -0.7009
   9923SM  C19F13497  -0.113   8.382   4.872  0.1969 -0.5245  0.1294
   9923SM  H19F13498  -0.149   8.415   4.773  2.2111 -1.7987 -1.1068
   9923SM  H19G13499  -0.007   8.414   4.883 -0.3441  0.8424  1.8667
   9923SM  C20F13500  -0.203   8.436   4.984  0.4144  0.0373 -0.0480
   9923SM  H20F13501  -0.171   8.374   5.071 -1.2482 -0.8633 -0.0275
   9923SM  H20G13502  -0.312   8.416   4.973  0.1309  1.4498 -0.0127
   9923SM  C21F13503  -0.177   8.578   5.014  0.5362  0.3934 -0.4170
   9923SM  H21F13504  -0.272   8.632   4.992  0.2090 -0.0664 -0.1321
   9923SM  H21G13505  -0.094   8.609   4.946  1.5604 -0.6656  0.2990
   9923SM  C22F13506  -0.132   8.614   5.156 -0.2561  0.6469 -0.0479
   9923SM  H22F13507  -0.090   8.717   5.158 -0.9024  0.9286  2.7938
   9923SM  H22G13508  -0.055   8.540   5.187 -0.9352 -0.2622 -0.4672
   9923SM  C23F13509  -0.243   8.631   5.255  0.3309  0.2295  0.0954
   9923SM  H23F13510  -0.244   8.727   5.311  1.5244 -0.5148  1.4654
   9923SM  H23G13511  -0.242   8.555   5.336 -0.0611  0.8170  0.6687
   9923SM  H23H13512  -0.342   8.628   5.204 -1.3620  0.8282  3.0541
  10023SM     N13513   1.215   0.341   3.066  0.9895  0.0030  0.0377
  10023SM   C1513514   1.270   0.469   3.012  0.4615 -0.1219  0.2907
  10023SM  H15A13515   1.367   0.496   3.049 -0.1446  1.3968  0.8273
  10023SM  H15B13516   1.198   0.549   3.015  1.1553  0.5773 -1.0700
  10023SM  H15C13517   1.296   0.459   2.908  0.8894  1.8457  0.1825
  10023SM   C1413518   1.107   0.294   2.975  0.9767 -0.1492 -0.0191
  10023SM  H14A13519   1.140   0.295   2.872  3.7484  1.1256  0.7746
  10023SM  H14B13520   1.019   0.356   2.974  2.1452  1.6219  1.1812
  10023SM  H14C13521   1.076   0.196   3.005  0.1101  0.5203  1.3656
  10023SM   C1313522   1.323   0.233   3.060 -0.3924 -0.5205 -0.1000
  10023SM  H13A13523   1.352   0.198   2.962  0.8184 -0.1410  0.1054
  10023SM  H13B13524   1.284   0.145   3.109  0.2582 -1.1537 -0.6845
  10023SM  H13C13525   1.411   0.269   3.112 -1.7118  1.8830  0.6011
  10023SM   C1213526   1.173   0.358   3.209  0.2206 -0.3392 -0.1573
  10023SM  H12A13527   1.265   0.382   3.261  0.1047  1.3832 -0.6873
  10023SM  H12B13528   1.136   0.266   3.252 -0.9181 -0.0241 -0.4170
  10023SM   C1113529   1.064   0.474   3.237  0.9667 -0.1774  0.5976
  10023SM  H11A13530   1.098   0.571   3.195 -1.0448  1.1756  1.9361
  10023SM  H11B13531   1.061   0.484   3.348 -2.3721 -1.1300  0.6907
  10023SM     P13532   0.831   0.354   3.271 -0.2650 -0.0500  0.4058
  10023SM   O1313533   0.759   0.443   3.359  0.9573 -0.1279 -0.0954
  10023SM   O1413534   0.758   0.258   3.181  0.0298 -0.7081 -0.1927
  10023SM   O1113535   0.934   0.267   3.358 -0.2543  0.5216 -0.3111
  10023SM   O1213536   0.936   0.438   3.181 -0.7077  0.1472  0.0424
  10023SM   C1S13537   0.925   0.238   3.498 -0.9456  0.4351  0.1306
  10023SM   H1S13538   0.822   0.237   3.540 -0.3946 -1.7291  1.6385
  10023SM   H1T13539   0.988   0.309   3.557 -0.0987  0.1884 -0.4534
  10023SM    NF13540   0.973   0.069   3.670  0.7664 -0.3124  0.1958
  10023SM   HNF13541   1.057   0.069   3.723  0.9136  0.9239 -0.0002
  10023SM   C2S13542   0.974   0.093   3.523  0.2195 -0.0203  0.4237
  10023SM   H2S13543   0.911   0.015   3.476  0.4925  0.4961 -0.8304
  10023SM   C3S13544   1.114   0.062   3.452  0.0188 -0.3880  0.7582
  10023SM   H3S13545   1.181   0.137   3.499 -0.6908  2.0059 -1.8193
  10023SM    O313546   1.104   0.076   3.308  0.0234  0.4437  0.0506
  10023SM   HO313547   1.030   0.136   3.300  0.5271  1.3387  1.5499
  10023SM   C4S13548   1.171  -0.078   3.474 -0.1177  0.5815  0.5793
  10023SM   H4S13549   1.128  -0.147   3.399  0.0498 -0.5686  1.5184
  10023SM   C5S13550   1.268  -0.101   3.558 -0.7330  0.3327 -0.0304
  10023SM   H5S13551   1.326  -0.022   3.608  1.1685 -1.3051  0.4710
  10023SM   C6S13552   1.317  -0.243   3.582  0.5417 -1.1778  0.4127
  10023SM   H6S13553   1.418  -0.257   3.539  0.9138  1.7095  0.1170
  10023SM   H6T13554   1.250  -0.319   3.538  1.7110 -1.1375 -1.5196
  10023SM   C7S13555   1.335  -0.256   3.733  0.1770  0.2408 -0.5343
  10023SM   H7S13556   1.245  -0.237   3.795 -0.4622  0.2066 -1.4187
  10023SM   H7T13557   1.412  -0.185   3.770  0.9221  0.3416 -2.1913
  10023SM   C8S13558   1.381  -0.395   3.775 -0.2071 -0.0573 -0.5524
  10023SM   H8S13559   1.492  -0.402   3.764 -0.4286  0.3601 -4.3939
  10023SM   H8T13560   1.348  -0.479   3.711 -0.2530 -1.1496  0.8418
  10023SM   C9S13561   1.361  -0.416   3.927  0.5514  0.1472  0.0973
  10023SM   H9S13562   1.252  -0.428   3.944  0.4971  0.7060  0.1400
  10023SM   H9T13563   1.393  -0.323   3.978  0.8167  0.0900  0.0383
  10023SM  C10S13564   1.447  -0.520   4.002 -0.2101 -0.3443  0.2915
  10023SM  H10S13565   1.447  -0.612   3.940  0.0326 -1.0505  1.3257
  10023SM  H10T13566   1.402  -0.549   4.099 -3.4265 -1.1769 -1.2689
  10023SM  C11S13567   1.590  -0.476   4.031  0.1829 -0.3129  0.8335
  10023SM  H11S13568   1.590  -0.392   4.104  0.4052  1.7070 -1.3468
  10023SM  H11T13569   1.634  -0.431   3.939 -3.4469  0.7569 -0.5507
  10023SM  C12S13570   1.676  -0.586   4.079 -0.7597 -0.3345 -0.2414
  10023SM  H12S13571   1.782  -0.552   4.071 -0.0908 -2.4052 -0.6319
  10023SM  H12T13572   1.674  -0.680   4.021 -3.9562  0.0357 -0.8945
  10023SM  C13S13573   1.628  -0.628   4.220  0.1113 -0.3075 -0.0080
  10023SM  H13S13574   1.528  -0.676   4.214 -0.4682  0.4737  2.1738
  10023SM  H13T13575   1.629  -0.535   4.281  0.7591  0.4231 -1.1016
  10023SM  C14S13576   1.714  -0.732   4.288 -0.4117  0.0926 -0.7550
  10023SM  H14S13577   1.819  -0.701   4.267 -1.1626  1.2069 -3.2007
  10023SM  H14T13578   1.711  -0.830   4.235 -3.1370 -0.7266  0.7365
  10023SM  C15S13579   1.691  -0.744   4.438  0.1509  0.1769  0.2980
  10023SM  H15S13580   1.583  -0.743   4.461 -0.2866 -2.4268 -1.2755
  10023SM  H15T13581   1.741  -0.654   4.481 -1.2309  1.4432 -0.6237
  10023SM  C16S13582   1.746  -0.879   4.491  0.6906 -0.4938  0.1817
  10023SM  H16S13583   1.692  -0.971   4.457 -1.4417  0.5209  0.6249
  10023SM  H16T13584   1.741  -0.868   4.601  1.8373  0.9966  0.1116
  10023SM  C17S13585   1.891  -0.908   4.441  0.1733 -0.1047 -0.1695
  10023SM  H17S13586   1.887  -0.929   4.332 -0.6455  2.9969 -0.8404
  10023SM  H17T13587   1.938  -0.993   4.495  2.1034  2.2745  2.1751
  10023SM  C18S13588   1.988  -0.794   4.475 -0.3013 -0.6073  0.0452
  10023SM  H18S13589   2.001  -0.781   4.585  1.3057 -0.7729 -0.1042
  10023SM  H18T13590   1.942  -0.699   4.439 -2.2341 -1.9215 -1.1562
  10023SM  H18U13591   2.086  -0.809   4.425  0.0065  1.0506  0.0939
  10023SM   C1F13592   0.861   0.052   3.739  1.0047  0.4117  0.6352
  10023SM    OF13593   0.753   0.046   3.680 -1.0546 -0.2282 -0.4073
  10023SM   C2F13594   0.872   0.034   3.883  0.1934  0.6747  0.3228
  10023SM   H2F13595   0.927   0.117   3.933  0.8127 -0.8011  2.2108
  10023SM   H2G13596   0.916  -0.064   3.911  0.3193  1.1076  1.7514
  10023SM   C3F13597   0.739   0.052   3.955  0.1634  0.1035 -0.5401
  10023SM   H3F13598   0.679  -0.041   3.943  1.5754 -0.9754  0.4157
  10023SM   H3G13599   0.676   0.132   3.911 -0.6763 -0.3712 -0.2392
  10023SM   C4F13600   0.755   0.073   4.102 -0.0607  0.4368 -0.8426
  10023SM   H4F13601   0.655   0.085   4.148  0.4209 -0.4588  0.5056
  10023SM   H4G13602   0.816   0.163   4.124 -0.7105  0.8107 -0.5339
  10023SM   C5F13603   0.815  -0.051   4.175 -0.2886 -0.6739 -0.0524
  10023SM   H5F13604   0.919  -0.061   4.138 -0.8345 -0.8094 -1.6581
  10023SM   H5G13605   0.771  -0.148   4.144  1.3493 -1.9171  1.3396
  10023SM   C6F13606   0.817  -0.053   4.329  0.1178  0.6360 -0.3214
  10023SM   H6F13607   0.719  -0.089   4.366  0.7516 -0.9941 -0.1506
  10023SM   H6G13608   0.824   0.051   4.367 -1.2891  0.3097  0.9167
  10023SM   C7F13609   0.926  -0.149   4.386  0.0471  0.5996 -0.3607
  10023SM   H7F13610   1.026  -0.137   4.339  0.7923 -0.0930  1.0017
  10023SM   H7G13611   0.891  -0.252   4.362 -0.0630  0.8249 -1.1962
  10023SM   C8F13612   0.957  -0.141   4.537 -0.1184  0.2815  0.1298
  10023SM   H8F13613   1.025  -0.224   4.566 -2.3969 -0.9764  2.2635
  10023SM   H8G13614   0.862  -0.173   4.584 -0.4093 -2.6751 -2.1622
  10023SM   C9F13615   1.007  -0.013   4.599  0.0480  0.1296 -0.9178
  10023SM   H9F13616   0.928   0.064   4.599  2.6879  3.0539 -0.7314
  10023SM   H9G13617   1.090   0.040   4.546  1.4539  0.0716  1.1224
  10023SM  C10F13618   1.062  -0.029   4.745 -0.0875 -0.1348  0.2536
  10023SM  H10F13619   0.982  -0.057   4.817  0.7491 -2.6222  0.3373
  10023SM  H10G13620   1.116   0.065   4.765  0.3147 -0.6718  1.8171
  10023SM  C11F13621   1.171  -0.136   4.760 -0.0345  0.7887 -0.1183
  10023SM  H11F13622   1.230  -0.134   4.665 -0.4536  1.4869 -0.3721
  10023SM  H11G13623   1.118  -0.234   4.758  0.1352  0.4830  3.4172
  10023SM  C12F13624   1.256  -0.124   4.883  0.0756  0.1814 -0.2971
  10023SM  H12F13625   1.296  -0.022   4.895 -0.0922  0.0870  1.2963
  10023SM  H12G13626   1.343  -0.193   4.889  1.5377  1.9503 -0.3997
  10023SM  C13F13627   1.176  -0.147   5.011 -0.3085 -0.2074  0.1821
  10023SM  H13F13628   1.124  -0.244   5.026  0.1134 -0.4334  0.1788
  10023SM  H13G13629   1.098  -0.068   5.017  0.1405  0.2609 -0.1093
  10023SM  C14F13630   1.251  -0.145   5.145 -0.5177  0.1167 -0.3575
  10023SM  H14F13631   1.320  -0.058   5.148  1.6000 -1.2919 -3.2320
  10023SM  H14G13632   1.310  -0.239   5.141  0.5068  0.5018  2.9391
  10023SM  C15F13633   1.158  -0.142   5.265 -0.0941 -0.8617  0.1637
  10023SM  H15F13634   1.111  -0.241   5.285 -0.5078 -0.4903  1.0466
  10023SM  H15G13635   1.078  -0.068   5.243  1.6500  0.5288 -1.9598
  10023SM  C16F13636   1.237  -0.094   5.385  0.1501  0.9314 -0.8357
  10023SM  H16F13637   1.262   0.012   5.365 -0.1277  0.7456 -2.3170
  10023SM  H16G13638   1.336  -0.145   5.389 -1.3799 -2.2425 -0.4369
  10023SM  C17F13639   1.166  -0.109   5.519 -0.3738  0.3096  0.8809
  10023SM  H17F13640   1.126  -0.212   5.527 -1.8841  0.8816  1.0069
  10023SM  H17G13641   1.081  -0.037   5.515  0.8663  1.8015  0.3871
  10023SM  C18F13642   1.243  -0.065   5.649 -0.3202 -0.3635  0.7109
  10023SM  H18F13643   1.272   0.039   5.622 -0.7358 -0.5814 -0.6265
  10023SM  H18G13644   1.334  -0.125   5.668 -1.1613 -1.2128  2.3078
  10023SM  C19F13645   1.162  -0.066   5.783 -0.4830 -0.2310  0.6861
  10023SM  H19F13646   1.118  -0.164   5.810 -0.3101 -1.4007 -2.8186
  10023SM  H19G13647   1.081   0.009   5.771 -0.3632 -0.3801 -1.3626
  10023SM  C20F13648   1.263  -0.021   5.895 -0.4064 -0.7355 -0.2834
  10023SM  H20F13649   1.310   0.077   5.876 -0.9751 -0.9305 -3.1407
  10023SM  H20G13650   1.349  -0.092   5.901  1.1872  1.1032 -0.5191
  10023SM  C21F13651   1.180  -0.014   6.023  0.3873 -0.2732 -0.9456
  10023SM  H21F13652   1.151  -0.121   6.036  1.4725 -0.5993 -1.0892
  10023SM  H21G13653   1.088   0.046   6.012 -0.9469 -2.1276 -0.4790
  10023SM  C22F13654   1.257   0.046   6.141  0.8079  0.6937 -0.7459
  10023SM  H22F13655   1.293   0.150   6.123  1.8045  0.6728  0.9364
  10023SM  H22G13656   1.346  -0.018   6.156  2.8789  3.3099 -1.0539
  10023SM  C23F13657   1.171   0.046   6.273  0.2705  0.1893 -0.2547
  10023SM  H23F13658   1.076   0.099   6.250 -0.0005 -0.6816 -1.1914
  10023SM  H23G13659   1.221   0.099   6.356 -1.3913 -1.3852  1.8672
  10023SM  H23H13660   1.141  -0.053   6.312  1.4799  0.6213  1.8994
  101CHL1    C313661   4.952   5.846   6.896  0.2506 -0.0239  0.2406
  101CHL1    H313662   4.998   5.761   6.950  1.0641  0.0239 -0.3539
  101CHL1    O313663   4.932   5.954   6.985  0.7540 -0.4178  0.2592
  101CHL1   H3'13664   4.916   6.028   6.925 -0.0122 -1.6455 -1.1296
  101CHL1    C413665   5.051   5.898   6.794  0.6367  0.4898 -0.2305
  101CHL1   H4A13666   5.025   5.991   6.739  3.0083  0.8929 -0.7505
  101CHL1   H4B13667   5.143   5.935   6.843  2.0717  0.3162 -2.6297
  101CHL1    C513668   5.092   5.794   6.692  0.0236 -0.5844  0.0854
  101CHL1    C613669   5.220   5.754   6.679 -0.7889  0.1041  0.5382
  101CHL1    H613670   5.304   5.800   6.733  0.7223 -1.2471 -0.5676
  101CHL1    C713671   5.265   5.652   6.572 -0.6599 -0.1512  0.0032
  101CHL1   H7A13672   5.341   5.707   6.511  0.8667  0.0368  1.9733
  101CHL1   H7B13673   5.307   5.558   6.614 -1.6023  0.2447  1.9273
  101CHL1    C813674   5.140   5.609   6.481 -0.5380  0.6589  0.1479
  101CHL1    H813675   5.129   5.693   6.409  1.1195  1.2341  0.5208
  101CHL1   C1413676   5.181   5.484   6.406 -0.8406  0.5076  0.1485
  101CHL1   H1413677   5.199   5.404   6.482  0.2894  1.0767  0.5108
  101CHL1   C1513678   5.313   5.474   6.325  0.2610 -0.7782 -0.4725
  101CHL1  H15A13679   5.348   5.574   6.291  3.0826 -0.8130  1.9010
  101CHL1  H15B13680   5.389   5.428   6.393 -0.8877 -2.1532 -0.0578
  101CHL1   C1613681   5.294   5.370   6.219  0.2200 -0.3683  0.1064
  101CHL1  H16A13682   5.295   5.421   6.120  0.3423 -1.7678 -0.6354
  101CHL1  H16B13683   5.370   5.290   6.230  3.3313  2.4379  0.8960
  101CHL1   C1713684   5.144   5.313   6.243  0.6232  0.3391  0.3448
  101CHL1   H1713685   5.150   5.246   6.331 -3.9372  0.1487  0.7215
  101CHL1   C1313686   5.070   5.430   6.315 -0.1752 -0.2610  0.2115
  101CHL1   C1813687   5.025   5.535   6.204 -0.7159 -0.1332  0.7465
  101CHL1  H18A13688   5.094   5.565   6.122 -1.7816  0.3177 -0.0048
  101CHL1  H18B13689   4.934   5.498   6.152 -0.0850 -1.9955  0.8734
  101CHL1  H18C13690   5.007   5.635   6.247 -1.2602  0.2179 -0.2715
  101CHL1   C1213691   4.953   5.400   6.403 -0.1319  0.7969 -0.0010
  101CHL1  H12A13692   4.867   5.363   6.342 -0.5788  4.0549 -1.6001
  101CHL1  H12B13693   4.979   5.327   6.483 -0.9028  0.5873  0.0678
  101CHL1   C1113694   4.901   5.521   6.478  0.3678 -0.6023 -0.5906
  101CHL1  H11A13695   4.850   5.589   6.407  1.8850 -1.6830 -2.8522
  101CHL1  H11B13696   4.823   5.483   6.547 -0.0265 -3.6271 -2.4924
  101CHL1    C913697   5.012   5.593   6.559 -0.7546 -0.4007  0.2279
  101CHL1    H913698   5.042   5.527   6.643  0.0010  1.5683  1.5901
  101CHL1   C1013699   4.968   5.726   6.629  0.0309 -0.2067  0.6034
  101CHL1   C1913700   4.904   5.823   6.520 -0.4538 -0.8365 -0.0659
  101CHL1  H19A13701   4.982   5.851   6.445 -1.7671  0.7590 -0.8925
  101CHL1  H19B13702   4.820   5.782   6.460 -0.6822 -1.3745  0.6122
  101CHL1  H19C13703   4.862   5.914   6.568 -1.8556 -1.4567 -0.0763
  101CHL1    C113704   4.854   5.694   6.730 -0.2933 -0.3020 -0.0595
  101CHL1   H1A13705   4.758   5.667   6.681 -0.4401 -0.1784  0.1560
  101CHL1   H1B13706   4.888   5.603   6.783  1.8676  0.3244 -0.3024
  101CHL1    C213707   4.824   5.806   6.833  1.0571  0.4360  0.0060
  101CHL1   H2A13708   4.744   5.786   6.907 -0.7045  0.2964 -1.8666
  101CHL1   H2B13709   4.788   5.893   6.775  0.4379 -0.4135 -0.9035
  101CHL1   C2013710   5.080   5.232   6.126 -1.2474 -0.6303 -0.7658
  101CHL1   H2013711   5.086   5.297   6.037  0.9470  1.6279  0.9084
  101CHL1   C2113712   4.931   5.204   6.147  0.3905  0.1770 -0.0897
  101CHL1  H21A13713   4.917   5.157   6.247  0.1918 -1.6808 -0.9588
  101CHL1  H21B13714   4.899   5.135   6.066  0.4990  1.8500 -1.6316
  101CHL1  H21C13715   4.868   5.295   6.136 -1.1641 -1.0746 -2.2889
  101CHL1   C2213716   5.171   5.112   6.108 -0.1470 -0.0040  0.4628
  101CHL1  H22A13717   5.272   5.130   6.152 -0.3953  0.9785  0.6579
  101CHL1  H22B13718   5.133   5.029   6.171 -3.6884  1.1685  0.0734
  101CHL1   C2313719   5.196   5.064   5.968  0.4926 -0.0730  0.2224
  101CHL1  H23A13720   5.100   5.060   5.913  0.9525  0.2160 -0.6338
  101CHL1  H23B13721   5.265   5.139   5.922  1.0997 -0.2749  0.7974
  101CHL1   C2413722   5.265   4.921   5.962  0.2325  0.0432  0.2868
  101CHL1  H24A13723   5.359   4.919   6.022  0.6104  1.6291 -0.1780
  101CHL1  H24B13724   5.199   4.849   6.013  0.5613  0.1209  0.8340
  101CHL1   C2513725   5.299   4.867   5.822 -0.0209 -0.2934  0.1647
  101CHL1   H2513726   5.359   4.944   5.767  1.0244 -2.2032 -1.4951
  101CHL1   C2613727   5.378   4.740   5.827  1.0112  0.7997 -0.3637
  101CHL1  H26A13728   5.314   4.677   5.893  0.4734 -0.5045 -2.0445
  101CHL1  H26B13729   5.397   4.674   5.740  3.2716  1.8184 -0.7174
  101CHL1  H26C13730   5.472   4.764   5.880  0.0007  1.3339  1.2841
  101CHL1   C2713731   5.179   4.849   5.736 -0.3700 -0.8713 -0.4549
  101CHL1  H27A13732   5.100   4.923   5.763 -0.3342 -0.7984 -0.5507
  101CHL1  H27B13733   5.211   4.852   5.630  1.3744 -3.8295 -0.1274
  101CHL1  H27C13734   5.127   4.752   5.750  0.7646 -1.5088 -0.5124
  102CHL1    C313735   2.707   4.372   6.537 -0.1917  0.0900  0.6268
  102CHL1    H313736   2.685   4.263   6.547 -1.5614  0.1905 -0.9351
  102CHL1    O313737   2.679   4.422   6.662  0.3174 -0.8633  0.0043
  102CHL1   H3'13738   2.698   4.515   6.648 -3.1265 -0.3408 -2.3223
  102CHL1    C413739   2.852   4.389   6.495  0.2364  0.5950 -0.0105
  102CHL1   H4A13740   2.867   4.499   6.493  1.6835  0.4354  0.5580
  102CHL1   H4B13741   2.922   4.359   6.575 -0.9320  0.7547  1.0994
  102CHL1    C513742   2.882   4.333   6.358  0.2030 -0.1561  0.5308
  102CHL1    C613743   2.973   4.234   6.343 -0.8409 -0.1961  0.1106
  102CHL1    H613744   3.038   4.209   6.427 -0.9427  1.1993  0.6284
  102CHL1    C713745   3.002   4.177   6.208 -0.1330  0.2532  0.1408
  102CHL1   H7A13746   3.110   4.152   6.193  0.0450  1.1674 -0.1165
  102CHL1   H7B13747   2.938   4.086   6.200 -0.8343  0.6357  1.2749
  102CHL1    C813748   2.952   4.260   6.090 -0.0240 -0.2762 -0.5159
  102CHL1    H813749   3.017   4.351   6.092 -0.4598  0.0327  0.4538
  102CHL1   C1413750   2.967   4.189   5.957  0.7192  0.6564  0.6563
  102CHL1   H1413751   2.908   4.095   5.966  2.3762 -0.5832 -0.7149
  102CHL1   C1513752   3.103   4.128   5.924  0.4237  0.1151 -0.3837
  102CHL1  H15A13753   3.177   4.204   5.955  0.4541  0.6398 -1.6723
  102CHL1  H15B13754   3.120   4.038   5.987  0.3696  1.0855  1.0398
  102CHL1   C1613755   3.091   4.097   5.770 -0.5118 -0.0757 -0.0419
  102CHL1  H16A13756   3.178   4.137   5.714  1.4330 -2.2829  1.2494
  102CHL1  H16B13757   3.110   3.989   5.753 -0.6552 -0.2877  1.0582
  102CHL1   C1713758   2.953   4.146   5.728 -0.7427 -0.8484  0.4410
  102CHL1   H1713759   2.888   4.057   5.730  2.5779 -3.5911 -1.8354
  102CHL1   C1313760   2.901   4.248   5.831  0.2081  0.5509 -0.4704
  102CHL1   C1813761   2.971   4.390   5.799  0.3262  0.6444 -0.5261
  102CHL1  H18A13762   3.078   4.365   5.783 -0.2768 -1.0690 -2.2146
  102CHL1  H18B13763   2.927   4.426   5.703 -0.4630  2.3078  0.4124
  102CHL1  H18C13764   2.954   4.462   5.882  1.4091  0.5760 -0.2346
  102CHL1   C1213765   2.753   4.256   5.870  0.2724 -0.1390 -0.3299
  102CHL1  H12A13766   2.683   4.308   5.802 -0.9694  1.9210  2.3223
  102CHL1  H12B13767   2.722   4.150   5.879  1.2926 -0.3072  2.5944
  102CHL1   C1113768   2.734   4.343   5.996  0.3044  0.4517 -0.0158
  102CHL1  H11A13769   2.763   4.446   5.965  1.9325 -0.2255 -0.8617
  102CHL1  H11B13770   2.626   4.349   6.021  0.1322 -1.4000 -0.2002
  102CHL1    C913771   2.807   4.295   6.122  0.1359  0.2049  0.2483
  102CHL1    H913772   2.764   4.196   6.148 -1.1293  0.5698 -0.3917
  102CHL1   C1013773   2.789   4.387   6.249  0.7772  0.0701 -0.1792
  102CHL1   C1913774   2.827   4.524   6.209 -0.2806 -0.4115  0.5111
  102CHL1  H19A13775   2.762   4.573   6.134 -1.9211 -1.6449  1.0658
  102CHL1  H19B13776   2.835   4.600   6.290 -0.4616 -1.1159  1.2092
  102CHL1  H19C13777   2.920   4.530   6.150 -0.7144  1.0604 -0.0654
  102CHL1    C113778   2.646   4.367   6.300  0.7343  0.7286 -0.3114
  102CHL1   H1A13779   2.568   4.392   6.225  0.8528 -1.3716 -1.2314
  102CHL1   H1B13780   2.630   4.257   6.312 -0.7593  1.0991  1.4574
  102CHL1    C213781   2.622   4.439   6.436 -0.0859  0.5125 -1.3813
  102CHL1   H2A13782   2.514   4.429   6.462  0.2053  0.1097 -0.2599
  102CHL1   H2B13783   2.646   4.546   6.423  0.4467  0.6228  0.2517
  102CHL1   C2013784   2.948   4.185   5.578  0.4951  0.5811  0.8883
  102CHL1   H2013785   2.991   4.287   5.566  1.7381 -0.1848 -2.0548
  102CHL1   C2113786   2.799   4.186   5.547  0.5634  0.1132  0.2428
  102CHL1  H21A13787   2.779   4.201   5.438 -1.3447 -0.8215  0.4083
  102CHL1  H21B13788   2.763   4.271   5.609 -0.1580 -0.5178  0.7105
  102CHL1  H21C13789   2.749   4.091   5.576 -0.5038  0.7875  0.7095
  102CHL1   C2213790   3.027   4.086   5.488 -0.3843 -0.3574 -0.7402
  102CHL1  H22A13791   3.137   4.090   5.506 -0.2648  0.6662 -1.5644
  102CHL1  H22B13792   2.980   3.989   5.515 -3.7190  0.7042 -2.2242
  102CHL1   C2313793   3.008   4.083   5.336  0.3907  0.1232  0.7851
  102CHL1  H23A13794   3.075   4.008   5.290  1.4540 -0.3499  2.9599
  102CHL1  H23B13795   2.901   4.054   5.321  0.0854  0.2700  2.4269
  102CHL1   C2413796   3.046   4.207   5.259 -0.2900  0.6298  0.3409
  102CHL1  H24A13797   2.973   4.284   5.289 -0.7899  0.7745 -1.1873
  102CHL1  H24B13798   3.144   4.241   5.301 -0.9496 -1.4991  4.0529
  102CHL1   C2513799   3.060   4.183   5.112  0.2134  0.3713 -0.2959
  102CHL1   H2513800   3.109   4.088   5.084 -1.8777 -0.1707 -2.4116
  102CHL1   C2613801   2.918   4.181   5.048  0.0188  0.3470 -0.0914
  102CHL1  H26A13802   2.879   4.284   5.063 -0.6171  0.3131 -1.4049
  102CHL1  H26B13803   2.925   4.170   4.938  1.8732  0.2803 -0.0037
  102CHL1  H26C13804   2.851   4.103   5.090 -1.4666  1.2926 -0.6203
  102CHL1   C2713805   3.148   4.301   5.063 -0.4081  0.2257 -0.1734
  102CHL1  H27A13806   3.172   4.286   4.955 -0.0549 -0.3521 -0.0211
  102CHL1  H27B13807   3.096   4.398   5.071 -0.8217  0.2137 -2.1058
  102CHL1  H27C13808   3.248   4.302   5.111 -0.5882 -0.7023  0.2546
  103CHL1    C313809   3.011   3.128   7.082 -0.3270  0.5382  0.1636
  103CHL1    H313810   3.024   3.234   7.049  1.2881 -0.0618 -1.2625
  103CHL1    O313811   2.935   3.115   7.205 -0.2958  0.3782  0.6822
  103CHL1   H3'13812   3.002   3.070   7.256  2.4039  2.1940 -0.9589
  103CHL1    C413813   2.939   3.048   6.969  0.3650  0.2431  0.6759
  103CHL1   H4A13814   2.897   2.952   7.006 -1.8432  0.7185 -0.4280
  103CHL1   H4B13815   2.842   3.102   6.963 -0.1147 -0.2944  2.7495
  103CHL1    C513816   3.011   3.022   6.840  0.0332 -0.1535  0.1882
  103CHL1    C613817   2.956   3.067   6.728  0.6364  0.3225 -0.8434
  103CHL1    H613818   2.851   3.100   6.726  0.3234 -0.6466 -2.7548
  103CHL1    C713819   3.022   3.051   6.596 -0.4272 -0.8250  0.2886
  103CHL1   H7A13820   2.957   2.997   6.524 -0.8608 -2.0969  1.6142
  103CHL1   H7B13821   3.051   3.149   6.552  1.5427 -1.2695  0.5064
  103CHL1    C813822   3.155   2.977   6.596 -0.5863  0.1911 -0.1097
  103CHL1    H813823   3.146   2.866   6.596  0.1296  0.1236  0.6154
  103CHL1   C1413824   3.228   3.005   6.463 -0.4916  0.0846  0.1845
  103CHL1   H1413825   3.266   3.109   6.465  2.7995 -0.8999 -2.0658
  103CHL1   C1513826   3.169   2.989   6.328 -0.2308 -0.0332  0.8472
  103CHL1  H15A13827   3.124   2.888   6.318  0.7736 -0.6612  2.3540
  103CHL1  H15B13828   3.087   3.058   6.298 -2.3768 -0.7688  4.4520
  103CHL1   C1613829   3.288   3.002   6.229 -0.0448 -0.0515 -0.3387
  103CHL1  H16A13830   3.280   2.920   6.153 -0.2087  1.4082 -1.9691
  103CHL1  H16B13831   3.291   3.102   6.181  2.0428 -1.0224 -2.4848
  103CHL1   C1713832   3.417   2.977   6.316 -0.6467  1.0070  0.3556
  103CHL1   H1713833   3.461   3.078   6.329  2.0416 -0.2849  2.0331
  103CHL1   C1313834   3.364   2.933   6.455 -1.0019 -0.0047 -0.9041
  103CHL1   C1813835   3.356   2.775   6.455  0.3549  0.0885  0.8468
  103CHL1  H18A13836   3.287   2.747   6.372 -0.1424  0.6097  1.0728
  103CHL1  H18B13837   3.455   2.727   6.440 -0.1036 -0.7345  0.3794
  103CHL1  H18C13838   3.304   2.731   6.543 -1.5808 -0.5814 -0.5564
  103CHL1   C1213839   3.455   2.990   6.567 -0.4862  0.1144 -0.6212
  103CHL1  H12A13840   3.560   2.954   6.568 -0.5631 -0.1409 -1.1309
  103CHL1  H12B13841   3.465   3.100   6.552  2.8400 -0.1609 -1.2202
  103CHL1   C1113842   3.390   2.957   6.704  0.5572  0.0887  0.1955
  103CHL1  H11A13843   3.392   2.846   6.710 -2.5318  0.0260  3.4109
  103CHL1  H11B13844   3.455   2.992   6.786 -0.2291 -0.6061  1.1373
  103CHL1    C913845   3.241   3.008   6.717 -1.1681  0.2066 -0.7515
  103CHL1    H913846   3.252   3.119   6.720  1.6688  0.0165 -1.1913
  103CHL1   C1013847   3.163   2.977   6.850  0.0221  0.1077 -0.6665
  103CHL1   C1913848   3.170   2.829   6.878 -0.3028  0.0205  0.1574
  103CHL1  H19A13849   3.098   2.782   6.948 -1.3194 -0.4252 -1.1472
  103CHL1  H19B13850   3.160   2.776   6.781 -0.3256 -2.4086  1.4120
  103CHL1  H19C13851   3.270   2.809   6.921 -0.2494 -0.3245 -0.1275
  103CHL1    C113852   3.221   3.061   6.967 -0.4003 -0.5003  0.0971
  103CHL1   H1A13853   3.328   3.035   6.977  0.4676  3.2914  2.9049
  103CHL1   H1B13854   3.223   3.165   6.928  0.6997 -0.9827 -1.1897
  103CHL1    C213855   3.150   3.066   7.103  0.2837 -0.1692 -0.5771
  103CHL1   H2A13856   3.213   3.127   7.171 -1.5956  2.2854 -0.8824
  103CHL1   H2B13857   3.138   2.961   7.137  0.5951 -0.3572 -1.0319
  103CHL1   C2013858   3.518   2.896   6.233 -0.3395 -0.1032 -0.3024
  103CHL1   H2013859   3.485   2.790   6.232 -0.5927 -0.0251 -0.0660
  103CHL1   C2113860   3.650   2.891   6.315  0.4018  0.5184  0.0344
  103CHL1  H21A13861   3.728   2.835   6.259  0.6476 -1.7580  2.4901
  103CHL1  H21B13862   3.641   2.834   6.409 -0.2707 -0.8553 -0.8333
  103CHL1  H21C13863   3.688   2.994   6.336  0.8240  0.3447  0.1191
  103CHL1   C2213864   3.551   2.949   6.085 -0.0838 -0.2209 -0.1588
  103CHL1  H22A13865   3.458   2.946   6.025 -0.5780  0.6064  0.5397
  103CHL1  H22B13866   3.589   3.053   6.091  2.3421 -0.9972 -0.9244
  103CHL1   C2313867   3.656   2.859   6.007 -0.3539  0.0214 -0.2588
  103CHL1  H23A13868   3.762   2.889   6.024 -0.2332 -1.5218  2.2360
  103CHL1  H23B13869   3.647   2.754   6.040 -0.3712  0.2837  0.5937
  103CHL1   C2413870   3.638   2.885   5.851 -0.1901  0.2209 -0.6476
  103CHL1  H24A13871   3.531   2.876   5.824 -0.1010 -1.1097 -0.6363
  103CHL1  H24B13872   3.651   2.992   5.825 -0.6380  0.3482 -0.3566
  103CHL1   C2513873   3.725   2.796   5.760  0.4977 -0.6002 -0.2943
  103CHL1   H2513874   3.728   2.693   5.801 -1.5412 -0.7773 -0.4819
  103CHL1   C2613875   3.667   2.787   5.615 -0.5451  0.0197 -1.3269
  103CHL1  H26A13876   3.688   2.889   5.575  0.2908  0.9704  1.3334
  103CHL1  H26B13877   3.714   2.706   5.554 -1.4634 -2.0994  0.6379
  103CHL1  H26C13878   3.559   2.770   5.630 -0.0361 -2.1838  0.2714
  103CHL1   C2713879   3.871   2.838   5.753 -0.2062  0.2603 -0.1190
  103CHL1  H27A13880   3.931   2.829   5.846 -0.1930 -3.4989 -0.3319
  103CHL1  H27B13881   3.921   2.772   5.679 -0.7528 -0.7724  0.4209
  103CHL1  H27C13882   3.869   2.942   5.715  0.3165  0.8309  1.3308
  104CHL1    C313883   6.201   5.399   6.749  1.0930 -0.0204 -0.3724
  104CHL1    H313884   6.279   5.478   6.754  0.8077  0.2905 -0.7282
  104CHL1    O313885   6.158   5.367   6.878  0.6362  0.4271 -0.2260
  104CHL1   H3'13886   6.081   5.311   6.864  0.4262  0.7966 -0.5691
  104CHL1    C413887   6.086   5.454   6.669  0.6575 -0.4395 -0.0709
  104CHL1   H4A13888   6.005   5.378   6.664  0.3964 -0.2033  0.5005
  104CHL1   H4B13889   6.046   5.542   6.723 -0.3071  0.4407 -2.0989
  104CHL1    C513890   6.118   5.494   6.522  0.0565 -0.3085  0.0025
  104CHL1    C613891   6.103   5.623   6.483  0.0120 -0.3941 -0.7053
  104CHL1    H613892   6.065   5.709   6.540  2.4469  1.0162 -1.0950
  104CHL1    C713893   6.142   5.672   6.346  0.0595  0.9348 -0.1724
  104CHL1   H7A13894   6.072   5.746   6.303 -1.7817 -0.7758 -0.2743
  104CHL1   H7B13895   6.234   5.733   6.341 -1.1498  2.8073 -0.2522
  104CHL1    C813896   6.152   5.552   6.247  0.6003  0.1641 -1.0109
  104CHL1    H813897   6.047   5.519   6.233  0.6691 -1.3147  1.4563
  104CHL1   C1413898   6.224   5.597   6.124 -0.0591  0.0403  0.1487
  104CHL1   H1413899   6.326   5.630   6.153  0.4004 -1.2634  0.0963
  104CHL1   C1513900   6.163   5.721   6.057 -0.5270 -0.1754  0.3783
  104CHL1  H15A13901   6.053   5.710   6.051 -0.5647  0.8605 -1.4927
  104CHL1  H15B13902   6.189   5.818   6.103 -0.6691  0.3218 -0.5738
  104CHL1   C1613903   6.230   5.717   5.913  0.0961 -0.0935  0.6378
  104CHL1  H16A13904   6.151   5.740   5.839  1.9004 -0.5182 -1.5300
  104CHL1  H16B13905   6.306   5.797   5.912  0.7487 -0.7056  0.2075
  104CHL1   C1713906   6.300   5.579   5.899 -0.5942  0.0519  0.0761
  104CHL1   H1713907   6.403   5.601   5.936 -0.9520  2.4300 -0.1725
  104CHL1   C1313908   6.244   5.490   6.017 -0.0701  0.5246  0.2854
  104CHL1   C1813909   6.106   5.437   5.970 -0.1240  0.6225  0.2917
  104CHL1  H18A13910   6.058   5.512   5.904  0.7004  0.2061 -0.8051
  104CHL1  H18B13911   6.115   5.341   5.916 -0.3789 -0.7750  2.5916
  104CHL1  H18C13912   6.037   5.417   6.055 -0.0949  1.6196  0.5654
  104CHL1   C1213913   6.328   5.383   6.077  0.5161  0.2601  0.1711
  104CHL1  H12A13914   6.351   5.306   6.000  0.5248  0.9501 -0.5234
  104CHL1  H12B13915   6.421   5.438   6.103  0.8163  0.5633 -1.4460
  104CHL1   C1113916   6.267   5.321   6.204  0.3169 -0.3265 -0.7291
  104CHL1  H11A13917   6.185   5.249   6.186 -1.3502  1.1270  0.6620
  104CHL1  H11B13918   6.346   5.257   6.248 -0.4104  0.3228  1.6652
  104CHL1    C913919   6.229   5.426   6.311  0.0013 -0.1080  0.1868
  104CHL1    H913920   6.327   5.465   6.346 -0.1720  1.4782 -1.0088
  104CHL1   C1013921   6.171   5.374   6.445 -0.1080 -0.1402 -0.0155
  104CHL1   C1913922   6.063   5.271   6.416  0.2582  0.6851 -0.2183
  104CHL1  H19A13923   6.021   5.231   6.510  0.2349  0.6018 -0.2642
  104CHL1  H19B13924   5.980   5.312   6.355 -0.3738  0.1749  0.2881
  104CHL1  H19C13925   6.103   5.184   6.359  0.4606  1.4038 -1.2179
  104CHL1    C113926   6.287   5.315   6.533  0.1942 -0.5820  1.1152
  104CHL1   H1A13927   6.331   5.228   6.480  0.1381  0.2394 -0.3299
  104CHL1   H1B13928   6.358   5.400   6.537  0.9771 -0.9304 -2.3942
  104CHL1    C213929   6.248   5.276   6.676  0.4156 -0.4645 -0.2531
  104CHL1   H2A13930   6.333   5.238   6.736 -0.1569 -5.2123 -2.0420
  104CHL1   H2B13931   6.172   5.195   6.674 -0.4458  0.2474  1.6545
  104CHL1   C2013932   6.297   5.517   5.758 -0.1581 -0.0891 -0.0250
  104CHL1   H2013933   6.192   5.511   5.724 -1.1790  0.3477  2.8113
  104CHL1   C2113934   6.372   5.384   5.754 -0.5673  0.3905 -0.1776
  104CHL1  H21A13935   6.312   5.308   5.808  0.1682 -0.5739 -0.7030
  104CHL1  H21B13936   6.471   5.405   5.801  0.3288  2.2247 -2.6560
  104CHL1  H21C13937   6.390   5.343   5.653  0.5080 -1.2789  0.6391
  104CHL1   C2213938   6.367   5.618   5.658  0.3340 -0.2614  0.1698
  104CHL1  H22A13939   6.331   5.722   5.677  0.2447 -0.5054  1.4502
  104CHL1  H22B13940   6.476   5.619   5.676  0.4421  0.1445 -0.5019
  104CHL1   C2313941   6.328   5.606   5.501 -0.0786 -0.5552 -0.0905
  104CHL1  H23A13942   6.377   5.510   5.472  0.1271 -0.7695  0.9565
  104CHL1  H23B13943   6.218   5.593   5.497 -0.0306 -0.7192 -1.2841
  104CHL1   C2413944   6.373   5.721   5.413 -0.2091  0.5131 -0.6526
  104CHL1  H24A13945   6.335   5.691   5.313 -0.4873  0.9035 -0.6699
  104CHL1  H24B13946   6.337   5.820   5.448  2.1498  1.3866 -0.4779
  104CHL1   C2513947   6.527   5.719   5.384 -0.2529  0.2608 -0.2529
  104CHL1   H2513948   6.586   5.708   5.478  0.1202 -0.0007 -0.5155
  104CHL1   C2613949   6.568   5.609   5.282  0.4220  0.5946 -0.2430
  104CHL1  H26A13950   6.514   5.634   5.188 -0.4397 -0.6189 -0.0985
  104CHL1  H26B13951   6.675   5.600   5.254  0.0416  0.6923 -1.8270
  104CHL1  H26C13952   6.533   5.513   5.324 -0.7342  0.4992 -1.3416
  104CHL1   C2713953   6.574   5.844   5.318  1.1116 -0.3323 -0.1975
  104CHL1  H27A13954   6.683   5.851   5.299  1.1139 -0.1831 -0.1320
  104CHL1  H27B13955   6.528   5.855   5.218  0.1882  0.6801  0.3210
  104CHL1  H27C13956   6.548   5.940   5.367  2.5251  1.1193 -2.1372
  105CHL1    C313957   6.731   3.086   6.592  0.1729 -0.0740 -0.7456
  105CHL1    H313958   6.758   2.998   6.529 -1.4912  0.9211 -2.9714
  105CHL1    O313959   6.753   3.052   6.729 -0.1281 -0.4613  0.4710
  105CHL1   H3'13960   6.849   3.047   6.727 -0.0555  0.7325 -0.5971
  105CHL1    C413961   6.805   3.216   6.554 -0.2852  0.3722  0.4112
  105CHL1   H4A13962   6.772   3.292   6.627 -0.2192 -1.2312  2.1709
  105CHL1   H4B13963   6.915   3.206   6.567 -0.6473 -2.2331  2.3916
  105CHL1    C513964   6.764   3.252   6.416  0.7122 -0.0471  0.0150
  105CHL1    C613965   6.856   3.269   6.321  0.1595 -0.2052 -0.5330
  105CHL1    H613966   6.960   3.254   6.352 -0.4874 -0.9591  1.4548
  105CHL1    C713967   6.836   3.321   6.184  0.6605 -0.5573 -0.4088
  105CHL1   H7A13968   6.904   3.408   6.173 -0.8433  0.8590  1.0357
  105CHL1   H7B13969   6.860   3.244   6.107 -2.3018 -2.6241  0.5731
  105CHL1    C813970   6.689   3.379   6.168  0.0570 -0.3540 -0.2549
  105CHL1    H813971   6.682   3.476   6.222  2.9298 -0.4866  0.5001
  105CHL1   C1413972   6.654   3.379   6.019  0.1895  0.7714 -0.5749
  105CHL1   H1413973   6.669   3.276   5.981 -0.0533  0.2702  0.6382
  105CHL1   C1513974   6.743   3.468   5.933 -0.6183 -0.1474 -0.9274
  105CHL1  H15A13975   6.765   3.561   5.992 -1.3450 -0.1258 -0.6840
  105CHL1  H15B13976   6.836   3.417   5.899  0.7056  3.1089 -2.6858
  105CHL1   C1613977   6.652   3.509   5.817 -0.4427  0.6580 -0.4105
  105CHL1  H16A13978   6.652   3.620   5.814  1.8959  0.6998 -0.3700
  105CHL1  H16B13979   6.693   3.473   5.721  0.7511 -1.0072  0.6566
  105CHL1   C1713980   6.508   3.438   5.841  0.3224  0.7451  0.4366
  105CHL1   H1713981   6.518   3.333   5.807 -4.0285 -0.3100  1.7997
  105CHL1   C1313982   6.507   3.423   5.995 -0.3101 -0.0354  0.8586
  105CHL1   C1813983   6.472   3.554   6.064 -0.2898  0.0458  0.1614
  105CHL1  H18A13984   6.365   3.580   6.052 -0.6299 -0.6764  1.5096
  105CHL1  H18B13985   6.480   3.562   6.175  0.8208  0.3814  0.0703
  105CHL1  H18C13986   6.528   3.639   6.019 -2.0652  1.1019 -0.1501
  105CHL1   C1213987   6.413   3.311   6.060 -0.2550  0.7212 -0.3413
  105CHL1  H12A13988   6.307   3.332   6.033  0.0077 -0.1684 -2.2634
  105CHL1  H12B13989   6.450   3.215   6.017 -0.5783  1.1411 -1.5967
  105CHL1   C1113990   6.441   3.301   6.204 -0.9363  0.0705  0.5714
  105CHL1  H11A13991   6.401   3.386   6.263  0.3253  0.9090  0.2548
  105CHL1  H11B13992   6.375   3.221   6.244  1.6123 -1.6320  1.5908
  105CHL1    C913993   6.592   3.283   6.237 -0.1468 -0.3977  0.3129
  105CHL1    H913994   6.620   3.181   6.206  0.0228 -0.8270  1.8061
  105CHL1   C1013995   6.616   3.282   6.388 -0.4344 -0.5132 -0.8258
  105CHL1   C1913996   6.568   3.405   6.468 -0.7423 -0.3054 -0.0196
  105CHL1  H19A13997   6.458   3.389   6.470 -0.6371 -0.9869  0.7532
  105CHL1  H19B13998   6.612   3.424   6.568  0.3887  0.3933 -0.6360
  105CHL1  H19C13999   6.591   3.487   6.396 -1.9451 -1.7118 -2.1247
  105CHL1    C114000   6.542   3.151   6.439 -0.3728 -0.7159 -0.1257
  105CHL1   H1A14001   6.433   3.170   6.446 -0.5238 -1.3288 -0.7354
  105CHL1   H1B14002   6.566   3.060   6.380 -0.6638 -1.2088  0.4992
  105CHL1    C214003   6.580   3.109   6.584  0.6140 -0.6993 -0.5513
  105CHL1   H2A14004   6.518   3.020   6.609 -0.0147 -0.1998 -0.3002
  105CHL1   H2B14005   6.552   3.198   6.645 -0.6631 -0.5400 -1.3273
  105CHL1   C2014006   6.395   3.504   5.769  0.3399 -0.4030  1.1058
  105CHL1   H2014007   6.383   3.600   5.824  0.1226 -0.3744  1.0089
  105CHL1   C2114008   6.259   3.427   5.790 -0.0077  0.4330  0.2167
  105CHL1  H21A14009   6.175   3.453   5.722  0.0279 -0.8047 -0.3466
  105CHL1  H21B14010   6.217   3.448   5.890  0.3123  1.1020  0.2102
  105CHL1  H21C14011   6.280   3.318   5.781  2.5122  0.8181  0.5041
  105CHL1   C2214012   6.422   3.533   5.615  0.3565 -0.6452 -0.3750
  105CHL1  H22A14013   6.335   3.580   5.566 -0.5579  1.0041  2.5802
  105CHL1  H22B14014   6.488   3.622   5.615  0.8728 -1.0159 -0.9451
  105CHL1   C2314015   6.478   3.424   5.522  0.2785  0.6409  0.0293
  105CHL1  H23A14016   6.571   3.381   5.564 -0.4047 -1.3824 -0.3932
  105CHL1  H23B14017   6.409   3.337   5.524  0.7378  0.2812  0.5014
  105CHL1   C2414018   6.501   3.472   5.381  0.6799 -0.5265 -0.8739
  105CHL1  H24A14019   6.404   3.486   5.329  0.4177 -0.3189 -0.3354
  105CHL1  H24B14020   6.550   3.571   5.388  2.4758 -1.3336 -1.3835
  105CHL1   C2514021   6.581   3.373   5.292 -0.2805 -0.4224 -0.5684
  105CHL1   H2514022   6.546   3.273   5.324  0.3404 -0.3424  0.4163
  105CHL1   C2614023   6.548   3.399   5.137 -0.4797  0.0651  0.3619
  105CHL1  H26A14024   6.592   3.491   5.092 -0.4660 -0.4250 -0.6622
  105CHL1  H26B14025   6.598   3.321   5.076  3.0359  2.3600 -0.0138
  105CHL1  H26C14026   6.439   3.389   5.119 -0.4636 -1.6474  1.0188
  105CHL1   C2714027   6.733   3.385   5.316 -0.2277  0.0152  0.0837
  105CHL1  H27A14028   6.757   3.349   5.419 -0.5033  0.1420  0.1937
  105CHL1  H27B14029   6.790   3.316   5.250 -0.3971  1.4639 -1.6593
  105CHL1  H27C14030   6.770   3.487   5.294  0.2605 -0.2377 -0.2826
  106CHL1    C314031   1.103   2.841   6.524  0.2669  0.6114  0.0830
  106CHL1    H314032   1.044   2.918   6.470  0.8581 -0.8080 -2.7977
  106CHL1    O314033   1.088   2.842   6.666  0.2874 -0.3979 -0.5770
  106CHL1   H3'14034   0.999   2.807   6.680 -0.5959  0.4911 -3.4007
  106CHL1    C414035   1.069   2.701   6.479 -0.6287  0.2101 -0.0675
  106CHL1   H4A14036   1.131   2.633   6.541 -1.0227 -0.7361 -0.6882
  106CHL1   H4B14037   0.965   2.677   6.509 -0.3097  1.6768  2.4793
  106CHL1    C514038   1.108   2.681   6.329 -0.3222  0.0154  0.1176
  106CHL1    C614039   1.012   2.630   6.242  0.3724  0.2503  1.2387
  106CHL1    H614040   0.914   2.604   6.283 -0.0440  0.9075  0.6625
  106CHL1    C714041   1.049   2.589   6.097  0.2266 -0.3143 -0.2649
  106CHL1   H7A14042   1.006   2.492   6.066  1.3056 -0.0859 -2.7425
  106CHL1   H7B14043   1.010   2.673   6.035  1.1930 -0.4258 -1.0537
  106CHL1    C814044   1.197   2.601   6.068 -0.5975  0.1313 -0.9797
  106CHL1    H814045   1.244   2.507   6.105 -1.4915 -0.3864 -1.1336
  106CHL1   C1414046   1.219   2.610   5.919  0.6964  0.4367  0.2589
  106CHL1   H1414047   1.169   2.706   5.896 -0.1138  0.3426  1.4959
  106CHL1   C1514048   1.152   2.508   5.821  0.0804 -0.5799 -0.1610
  106CHL1  H15A14049   1.135   2.403   5.853  1.1111 -0.3343  1.2832
  106CHL1  H15B14050   1.053   2.548   5.792  0.3277 -0.1850 -0.4776
  106CHL1   C1614051   1.235   2.521   5.690 -0.3117 -0.2897 -0.0600
  106CHL1  H16A14052   1.281   2.422   5.671  1.2814  0.9503 -3.4174
  106CHL1  H16B14053   1.172   2.549   5.603 -1.6087  0.9294  1.2104
  106CHL1   C1714054   1.348   2.622   5.722 -0.1670 -0.2823  0.2385
  106CHL1   H1714055   1.303   2.720   5.695  0.1998 -0.6256 -1.7418
  106CHL1   C1314056   1.366   2.619   5.882  0.5736  0.1885  0.7583
  106CHL1   C1814057   1.442   2.497   5.928 -0.2810 -0.3930 -0.5211
  106CHL1  H18A14058   1.396   2.401   5.895 -0.7158 -0.8995  1.4399
  106CHL1  H18B14059   1.551   2.506   5.912  0.8159 -1.2901  4.6283
  106CHL1  H18C14060   1.447   2.502   6.039  1.6809 -0.5414 -0.5791
  106CHL1   C1214061   1.430   2.747   5.937  0.8657  0.1012  0.3245
  106CHL1  H12A14062   1.539   2.757   5.919  0.8495  1.2680  0.7503
  106CHL1  H12B14063   1.375   2.834   5.894  0.0893  0.2497  1.5674
  106CHL1   C1114064   1.410   2.753   6.091  0.0748  0.5016  0.0147
  106CHL1  H11A14065   1.471   2.670   6.133 -2.1978 -0.7687  0.9856
  106CHL1  H11B14066   1.444   2.853   6.127 -0.6509  0.2393  1.5486
  106CHL1    C914067   1.263   2.725   6.129 -0.1344 -0.3110  0.0227
  106CHL1    H914068   1.195   2.809   6.102 -1.5872 -0.9287  1.5792
  106CHL1   C1014069   1.249   2.719   6.284  0.5665  0.4330 -0.5303
  106CHL1   C1914070   1.337   2.607   6.345  0.4115 -0.0182  0.0350
  106CHL1  H19A14071   1.432   2.659   6.367  0.4535  0.6882 -1.6272
  106CHL1  H19B14072   1.310   2.561   6.442  1.1725 -1.7817 -0.5654
  106CHL1  H19C14073   1.354   2.521   6.276  1.5943 -0.8646  1.3435
  106CHL1    C114074   1.273   2.855   6.344 -0.5045 -0.5940 -0.2128
  106CHL1   H1A14075   1.379   2.882   6.324 -0.6494  0.1888  0.0268
  106CHL1   H1B14076   1.213   2.927   6.285  0.1287 -0.3429 -0.5656
  106CHL1    C214077   1.245   2.871   6.496 -0.2817 -0.3753 -0.4010
  106CHL1   H2A14078   1.277   2.967   6.540 -1.1565 -0.7358  1.0661
  106CHL1   H2B14079   1.310   2.795   6.544 -0.8382 -1.1692 -0.8722
  106CHL1   C2014080   1.470   2.601   5.627  0.5453  0.3809  0.0356
  106CHL1   H2014081   1.510   2.501   5.656 -0.8637  0.1648  1.3592
  106CHL1   C2114082   1.585   2.698   5.665 -0.0217  0.1478 -0.6197
  106CHL1  H21A14083   1.644   2.656   5.749  1.6811 -1.8358 -2.6719
  106CHL1  H21B14084   1.547   2.803   5.662  0.5581  0.3502 -2.4156
  106CHL1  H21C14085   1.657   2.687   5.582  0.6953  0.6310 -0.0782
  106CHL1   C2214086   1.426   2.598   5.480 -0.0526  0.1272  0.2922
  106CHL1  H22A14087   1.331   2.543   5.460 -0.0749  0.6464 -1.1005
  106CHL1  H22B14088   1.414   2.705   5.453 -2.8230  0.1318  1.2066
  106CHL1   C2314089   1.536   2.522   5.401  0.7408 -0.8854 -0.6677
  106CHL1  H23A14090   1.629   2.557   5.449  0.0961 -0.1927  0.1173
  106CHL1  H23B14091   1.519   2.414   5.416  0.2303 -0.6673  0.4274
  106CHL1   C2414092   1.528   2.566   5.252  0.1676  0.2545  0.3330
  106CHL1  H24A14093   1.422   2.558   5.222  0.6961  0.7641 -1.8916
  106CHL1  H24B14094   1.555   2.672   5.236  1.8860 -0.5352 -3.4028
  106CHL1   C2514095   1.603   2.480   5.145  0.1043 -0.1990  0.0112
  106CHL1   H2514096   1.597   2.530   5.046 -3.3892  1.9291  1.1067
  106CHL1   C2614097   1.747   2.460   5.196  0.8744  0.0749 -0.2000
  106CHL1  H26A14098   1.741   2.398   5.288  0.4343 -2.4888 -1.8671
  106CHL1  H26B14099   1.808   2.400   5.125 -0.7130  0.3910 -1.8920
  106CHL1  H26C14100   1.805   2.553   5.214  1.9774 -0.4734 -0.7942
  106CHL1   C2714101   1.541   2.343   5.118 -0.6728 -0.3002  0.0680
  106CHL1  H27A14102   1.501   2.305   5.214 -1.1821 -2.1493 -0.8201
  106CHL1  H27B14103   1.463   2.336   5.040 -0.7102 -0.5824  0.1296
  106CHL1  H27C14104   1.620   2.275   5.079  0.7025  1.7999 -1.0522
  107CHL1    C314105   4.223   6.525   6.371  0.0976 -0.2819 -0.1699
  107CHL1    H314106   4.142   6.602   6.370  2.0331  1.8776 -1.0846
  107CHL1    O314107   4.208   6.464   6.500  0.5334  0.3983  0.4817
  107CHL1   H3'14108   4.129   6.499   6.543 -0.3894  0.6858 -1.3424
  107CHL1    C414109   4.208   6.420   6.261 -0.0198  0.6139  0.0830
  107CHL1   H4A14110   4.269   6.328   6.277 -3.0716 -1.6563 -0.2009
  107CHL1   H4B14111   4.103   6.384   6.262  0.2992 -0.3781 -0.3812
  107CHL1    C514112   4.231   6.476   6.125  0.6309 -0.1119  0.2619
  107CHL1    C614113   4.138   6.452   6.025  0.0574  0.3138  0.4062
  107CHL1    H614114   4.054   6.383   6.041  0.3691 -0.0326  0.5537
  107CHL1    C714115   4.161   6.498   5.885 -0.6075 -0.0168  0.2508
  107CHL1   H7A14116   4.149   6.410   5.818 -0.8973  0.3642 -0.2007
  107CHL1   H7B14117   4.096   6.583   5.859  1.3204  1.9730  1.5482
  107CHL1    C814118   4.300   6.555   5.863 -0.2777 -0.0316  0.8510
  107CHL1    H814119   4.382   6.483   5.843  0.5730  0.8990  0.9138
  107CHL1   C1414120   4.303   6.638   5.730 -0.3532 -0.3963  1.0026
  107CHL1   H1414121   4.230   6.719   5.753 -0.8524 -0.4629 -0.2724
  107CHL1   C1514122   4.242   6.577   5.607  0.1037 -0.1936  0.3999
  107CHL1  H15A14123   4.280   6.473   5.608  0.0810 -0.2015  0.4634
  107CHL1  H15B14124   4.131   6.580   5.606  0.1145  0.3197 -0.1466
  107CHL1   C1614125   4.308   6.655   5.487 -0.8914  0.1783  0.7654
  107CHL1  H16A14126   4.379   6.586   5.436 -2.3897 -0.2552 -0.8095
  107CHL1  H16B14127   4.227   6.692   5.421 -1.9302  1.6088  2.7199
  107CHL1   C1714128   4.390   6.764   5.556 -0.3989 -0.1020 -0.2263
  107CHL1   H1714129   4.307   6.833   5.581 -2.6006 -2.3929 -0.7474
  107CHL1   C1314130   4.432   6.702   5.698  0.1261  0.2600 -0.0617
  107CHL1   C1814131   4.552   6.607   5.672 -0.0091 -0.1534  0.7312
  107CHL1  H18A14132   4.640   6.664   5.635  1.0167 -0.0212  3.1751
  107CHL1  H18B14133   4.587   6.570   5.771 -0.9802  2.5793  2.1863
  107CHL1  H18C14134   4.525   6.520   5.608 -2.4668  1.9534 -1.2857
  107CHL1   C1214135   4.471   6.808   5.803 -0.2465 -0.1606  0.5354
  107CHL1  H12A14136   4.569   6.851   5.773 -0.7420 -0.8170 -2.3484
  107CHL1  H12B14137   4.402   6.894   5.816 -0.7481 -0.6570  1.2731
  107CHL1   C1114138   4.473   6.736   5.943  0.3750  0.1492  0.1322
  107CHL1  H11A14139   4.566   6.676   5.951 -0.4573 -1.0209  1.7471
  107CHL1  H11B14140   4.486   6.823   6.012 -0.5154  1.4001 -1.2068
  107CHL1    C914141   4.340   6.651   5.976 -0.4847  0.3870 -0.5525
  107CHL1    H914142   4.257   6.723   5.997 -1.1280 -0.8969  1.7920
  107CHL1   C1014143   4.347   6.572   6.106  0.3075  0.0456  0.2168
  107CHL1   C1914144   4.480   6.489   6.102  0.2631  0.0826  0.3910
  107CHL1  H19A14145   4.479   6.427   6.010 -0.6251 -0.7397  0.9352
  107CHL1  H19B14146   4.571   6.552   6.105  1.2175 -1.2765  0.8361
  107CHL1  H19C14147   4.495   6.424   6.191 -0.6254  0.0292  0.5142
  107CHL1    C114148   4.355   6.672   6.220  0.6801  0.3523  0.4809
  107CHL1   H1A14149   4.445   6.737   6.220  1.0478 -0.1482  0.3488
  107CHL1   H1B14150   4.267   6.738   6.205 -0.4794 -1.3935 -0.7811
  107CHL1    C214151   4.352   6.604   6.360  0.0044  0.1068 -0.0312
  107CHL1   H2A14152   4.355   6.687   6.434  0.0904  0.7105 -0.6913
  107CHL1   H2B14153   4.426   6.525   6.380 -2.5519 -2.3263  0.4808
  107CHL1   C2014154   4.501   6.841   5.479 -0.1515  0.2012  0.5331
  107CHL1   H2014155   4.576   6.882   5.550  0.3997 -0.6963  0.4867
  107CHL1   C2114156   4.437   6.969   5.433  0.1111 -0.2532 -0.0356
  107CHL1  H21A14157   4.396   7.020   5.523  1.2239 -2.0893  1.5970
  107CHL1  H21B14158   4.347   6.945   5.372  0.9585 -2.5929 -0.4520
  107CHL1  H21C14159   4.514   7.033   5.386  0.4049  0.3826  1.2537
  107CHL1   C2214160   4.570   6.766   5.360  0.4149 -0.1395 -0.3188
  107CHL1  H22A14161   4.619   6.675   5.401 -0.0769  0.5699  1.9919
  107CHL1  H22B14162   4.490   6.743   5.287 -0.5774  0.3782  0.5778
  107CHL1   C2314163   4.674   6.838   5.275 -0.6071 -0.1876 -0.6714
  107CHL1  H23A14164   4.706   6.762   5.200  0.0574 -0.7541  0.1616
  107CHL1  H23B14165   4.632   6.910   5.202  0.5248  0.1235 -1.0348
  107CHL1   C2414166   4.800   6.912   5.345 -0.1397  0.1133  0.2554
  107CHL1  H24A14167   4.762   6.976   5.428 -2.5784 -0.6410 -0.1823
  107CHL1  H24B14168   4.860   6.832   5.394 -1.4234 -1.9075 -1.2675
  107CHL1   C2514169   4.878   7.004   5.254 -0.0156  0.3991 -0.0442
  107CHL1   H2514170   4.816   7.093   5.229 -2.3366 -0.9337  0.7093
  107CHL1   C2614171   4.998   7.068   5.333 -0.8669 -1.2581  0.3058
  107CHL1  H26A14172   5.063   6.981   5.359 -1.8086 -1.4694  2.0791
  107CHL1  H26B14173   5.054   7.139   5.269 -0.3694 -2.4697 -0.6510
  107CHL1  H26C14174   4.964   7.104   5.432 -1.4189 -2.2903  0.5054
  107CHL1   C2714175   4.933   6.930   5.126  0.4481  0.1691  0.2333
  107CHL1  H27A14176   4.957   6.822   5.127  0.9315  0.2819  1.3319
  107CHL1  H27B14177   4.863   6.942   5.040  1.3718 -0.1954 -0.5809
  107CHL1  H27C14178   5.031   6.973   5.097  0.6993 -1.0709 -0.8230
  108CHL1    C314179   6.741   2.178   6.542 -0.3010 -0.2349  0.4959
  108CHL1    H314180   6.686   2.270   6.571 -0.6768 -0.4503  0.4634
  108CHL1    O314181   6.791   2.122   6.659 -0.0592  0.2883 -0.5909
  108CHL1   H3'14182   6.835   2.037   6.645 -0.5505 -0.3874  1.6073
  108CHL1    C414183   6.649   2.088   6.459 -0.0914 -0.1511 -0.0688
  108CHL1   H4A14184   6.704   1.995   6.434 -2.1797 -1.2953 -0.6538
  108CHL1   H4B14185   6.564   2.046   6.517  1.8082 -2.5441  1.1917
  108CHL1    C514186   6.597   2.145   6.335 -0.2467 -0.9603  0.2345
  108CHL1    C614187   6.473   2.176   6.323  0.0089 -0.1829 -0.0076
  108CHL1    H614188   6.406   2.141   6.403 -0.0464 -0.8593 -0.3484
  108CHL1    C714189   6.418   2.243   6.199  0.2997  0.2957 -0.8802
  108CHL1   H7A14190   6.325   2.196   6.161 -0.3403 -0.4382  1.4432
  108CHL1   H7B14191   6.387   2.343   6.236 -1.0173 -1.0127  1.9248
  108CHL1    C814192   6.514   2.244   6.077 -0.3247  0.5427 -0.5887
  108CHL1    H814193   6.522   2.141   6.037 -0.2911 -0.3199  1.5265
  108CHL1   C1414194   6.466   2.348   5.972  0.0358  0.6040  0.0180
  108CHL1   H1414195   6.461   2.443   6.029  1.7183  1.6209 -1.4073
  108CHL1   C1514196   6.325   2.324   5.914 -0.5395 -0.5127  0.4604
  108CHL1  H15A14197   6.297   2.218   5.894 -0.4181 -0.2457 -1.2713
  108CHL1  H15B14198   6.249   2.356   5.990  0.5577  2.8976  0.2814
  108CHL1   C1614199   6.323   2.415   5.797 -0.0350 -0.2768 -0.0782
  108CHL1  H16A14200   6.278   2.358   5.713  0.2538  0.1149 -0.5056
  108CHL1  H16B14201   6.260   2.505   5.812 -0.6217 -1.1121  3.2293
  108CHL1   C1714202   6.474   2.466   5.764 -0.3826  0.7944 -0.7522
  108CHL1   H1714203   6.480   2.570   5.802  1.4438  0.0004  1.3488
  108CHL1   C1314204   6.559   2.367   5.851  0.4117 -0.0104 -0.1562
  108CHL1   C1814205   6.568   2.242   5.762  0.7973 -0.2636  0.0894
  108CHL1  H18A14206   6.645   2.248   5.682  0.2270  1.3033 -0.3888
  108CHL1  H18B14207   6.611   2.165   5.829  1.0674  0.0950  0.3300
  108CHL1  H18C14208   6.472   2.214   5.712  1.0388  0.8379 -1.0537
  108CHL1   C1214209   6.688   2.416   5.909  0.1253 -0.3020  0.0786
  108CHL1  H12A14210   6.768   2.437   5.835  1.4331  0.6736  1.7108
  108CHL1  H12B14211   6.676   2.511   5.966  1.8294  0.8119 -1.3408
  108CHL1   C1114212   6.755   2.320   6.012  0.1208 -0.2747 -0.2821
  108CHL1  H11A14213   6.781   2.229   5.955 -2.2313 -1.5031  0.4533
  108CHL1  H11B14214   6.852   2.363   6.043 -1.0146  1.3660  1.2022
  108CHL1    C914215   6.653   2.288   6.125 -0.2698  0.0170  0.3129
  108CHL1    H914216   6.641   2.391   6.165 -1.2127 -0.4731  1.3679
  108CHL1   C1014217   6.712   2.200   6.241  0.5945  0.1503 -0.1056
  108CHL1   C1914218   6.791   2.080   6.181 -0.1385 -0.1632  0.5914
  108CHL1  H19A14219   6.729   2.034   6.101 -0.4469 -0.5502  1.0429
  108CHL1  H19B14220   6.887   2.101   6.129  0.3367 -1.9401  0.6767
  108CHL1  H19C14221   6.814   2.002   6.258  0.4784  1.0063  1.6277
  108CHL1    C114222   6.802   2.296   6.332 -0.1021 -0.4220 -0.1093
  108CHL1   H1A14223   6.885   2.316   6.260 -1.3110  0.3292 -1.3229
  108CHL1   H1B14224   6.756   2.395   6.349  2.7129  1.1871 -1.2128
  108CHL1    C214225   6.858   2.231   6.460  0.1852  0.1287  0.0733
  108CHL1   H2A14226   6.915   2.310   6.514  1.4179  1.2615 -2.7221
  108CHL1   H2B14227   6.931   2.151   6.438  0.8126  0.6289  0.3223
  108CHL1   C2014228   6.506   2.483   5.615 -0.2433  0.2896 -0.5518
  108CHL1   H2014229   6.522   2.388   5.561 -1.1014  0.4196 -1.0567
  108CHL1   C2114230   6.630   2.579   5.612  0.1040 -0.0128  0.9616
  108CHL1  H21A14231   6.728   2.530   5.632  0.6574  0.4825 -0.4352
  108CHL1  H21B14232   6.633   2.665   5.683  3.0051  0.7068  0.1103
  108CHL1  H21C14233   6.630   2.625   5.511  1.2585  0.9460  1.3762
  108CHL1   C2214234   6.392   2.549   5.537  0.2473 -0.0539 -0.0006
  108CHL1  H22A14235   6.294   2.499   5.555  0.8082 -0.9623  0.6186
  108CHL1  H22B14236   6.388   2.655   5.570 -0.8978 -0.2239  0.4434
  108CHL1   C2314237   6.405   2.534   5.386 -0.5637 -0.1548 -0.0349
  108CHL1  H23A14238   6.326   2.593   5.336 -0.6205  0.2270  0.5019
  108CHL1  H23B14239   6.504   2.578   5.360 -0.0827 -0.5212  1.1099
  108CHL1   C2414240   6.408   2.395   5.327 -0.3834 -0.4677  0.0740
  108CHL1  H24A14241   6.508   2.354   5.351 -0.1632  0.8656  1.5713
  108CHL1  H24B14242   6.331   2.325   5.366  0.6206 -1.9928 -0.5906
  108CHL1   C2514243   6.414   2.391   5.173 -0.1929  0.1867 -0.2714
  108CHL1   H2514244   6.315   2.406   5.125 -0.0938  2.5322  0.1656
  108CHL1   C2614245   6.501   2.507   5.112  0.1278  0.4662  0.0379
  108CHL1  H26A14246   6.509   2.497   5.002  1.3348  1.8934 -0.0272
  108CHL1  H26B14247   6.470   2.606   5.150  0.9240  0.3412  1.0806
  108CHL1  H26C14248   6.605   2.488   5.149  0.7569  0.4213 -1.6793
  108CHL1   C2714249   6.469   2.255   5.119  0.3874 -0.4026 -0.5501
  108CHL1  H27A14250   6.572   2.234   5.157  0.5343 -1.6626 -1.5825
  108CHL1  H27B14251   6.420   2.160   5.149 -0.6545  0.4996  0.6916
  108CHL1  H27C14252   6.485   2.266   5.010 -0.0907  2.4030 -0.4040
  109CHL1    C314253   2.467   5.653   6.066 -0.5518 -0.9406 -0.4848
  109CHL1    H314254   2.553   5.593   6.029  0.2871  0.3096 -0.6084
  109CHL1    O314255   2.477   5.663   6.210  0.6523  0.3815 -0.1506
  109CHL1   H3'14256   2.388   5.637   6.233 -0.1325 -0.1799 -3.4038
  109CHL1    C414257   2.470   5.790   5.993 -0.3447  0.2545  0.5912
  109CHL1   H4A14258   2.404   5.861   6.048  0.6428  0.2028  1.8982
  109CHL1   H4B14259   2.573   5.825   6.015 -0.3527 -0.0814  1.1885
  109CHL1    C514260   2.438   5.786   5.844  0.0659  0.1667 -1.0806
  109CHL1    C614261   2.519   5.840   5.754 -0.1123  0.3691 -0.4969
  109CHL1    H614262   2.614   5.892   5.770  0.1790  0.3763 -2.0495
  109CHL1    C714263   2.494   5.842   5.605  0.4327 -0.0304  0.2467
  109CHL1   H7A14264   2.511   5.941   5.558 -0.0265 -0.6932 -1.4146
  109CHL1   H7B14265   2.564   5.776   5.550 -0.5650 -1.1837  0.3126
  109CHL1    C814266   2.343   5.818   5.576  0.7074  0.2440 -0.2146
  109CHL1    H814267   2.289   5.914   5.591 -1.8638 -1.2992  1.2054
  109CHL1   C1414268   2.325   5.777   5.427 -0.8143 -0.3164 -0.5164
  109CHL1   H1414269   2.382   5.682   5.415  0.2815  0.4902 -2.1852
  109CHL1   C1514270   2.387   5.876   5.331 -0.5649 -0.9363 -0.0554
  109CHL1  H15A14271   2.351   5.973   5.370 -0.7597 -0.2053 -1.9579
  109CHL1  H15B14272   2.497   5.861   5.334 -0.2792 -0.8036 -4.0795
  109CHL1   C1614273   2.315   5.836   5.201 -0.2551 -0.0454  0.2476
  109CHL1  H16A14274   2.264   5.933   5.183 -2.5547 -0.7945  2.1288
  109CHL1  H16B14275   2.377   5.816   5.111 -0.6320  0.6884 -0.1872
  109CHL1   C1714276   2.220   5.719   5.233 -0.2422  0.3317 -0.6229
  109CHL1   H1714277   2.273   5.622   5.228  1.9889  1.5337 -2.4745
  109CHL1   C1314278   2.186   5.738   5.384 -0.0153  0.0159  0.0632
  109CHL1   C1814279   2.086   5.856   5.409 -0.3889  0.0495  0.0885
  109CHL1  H18A14280   2.095   5.891   5.514  1.5872  0.4952 -0.1905
  109CHL1  H18B14281   2.111   5.943   5.345  0.4068 -1.6239 -2.0273
  109CHL1  H18C14282   1.984   5.821   5.380 -0.6260 -0.2299  1.2216
  109CHL1   C1214283   2.141   5.610   5.464  0.2154  1.2624 -0.1651
  109CHL1  H12A14284   2.041   5.572   5.434  0.9959 -0.9141 -0.1820
  109CHL1  H12B14285   2.207   5.524   5.441 -1.8475 -0.1578 -1.1188
  109CHL1   C1114286   2.147   5.642   5.614  0.2444 -0.3384  0.6930
  109CHL1  H11A14287   2.066   5.712   5.643 -0.0489 -1.5848  3.1593
  109CHL1  H11B14288   2.132   5.543   5.662  0.4781 -0.8464 -0.2519
  109CHL1    C914289   2.287   5.700   5.658 -0.1636  0.2175  0.4693
  109CHL1    H914290   2.356   5.618   5.629 -1.3026  0.1444 -2.3779
  109CHL1   C1014291   2.311   5.716   5.807 -0.4105  0.2928 -0.5063
  109CHL1   C1914292   2.185   5.796   5.855 -0.4376 -0.4932 -0.0805
  109CHL1  H19A14293   2.187   5.826   5.962  0.4169 -2.8375  0.6479
  109CHL1  H19B14294   2.156   5.883   5.794 -1.0238 -0.1185  0.7069
  109CHL1  H19C14295   2.097   5.728   5.850 -1.7752  1.1631  0.2766
  109CHL1    C114296   2.321   5.581   5.881 -0.4059 -0.8598 -0.3765
  109CHL1   H1A14297   2.226   5.527   5.863 -0.7563 -0.5770  0.5728
  109CHL1   H1B14298   2.406   5.525   5.837  2.8543  1.8367  1.9548
  109CHL1    C214299   2.335   5.587   6.033 -0.3121  0.6283  0.0698
  109CHL1   H2A14300   2.336   5.485   6.078  0.9645 -0.4507 -2.2242
  109CHL1   H2B14301   2.260   5.656   6.077 -1.2400 -0.0166 -0.4545
  109CHL1   C2014302   2.107   5.703   5.133 -0.3384  1.0381 -0.1697
  109CHL1   H2014303   2.025   5.776   5.150 -1.5687  0.0366 -1.5609
  109CHL1   C2114304   2.041   5.566   5.149 -0.2090  0.3105  0.1976
  109CHL1  H21A14305   1.967   5.549   5.068 -1.3971 -1.7365  1.6168
  109CHL1  H21B14306   1.991   5.561   5.247  2.2959 -0.9160  1.5114
  109CHL1  H21C14307   2.113   5.481   5.151 -0.4271  0.1498  1.6421
  109CHL1   C2214308   2.158   5.713   4.994  0.4408  0.5648 -0.6318
  109CHL1  H22A14309   2.068   5.701   4.930 -0.1494  2.9085 -0.3484
  109CHL1  H22B14310   2.193   5.817   4.978  1.5273  0.4384  0.7153
  109CHL1   C2314311   2.271   5.614   4.958  0.0121 -0.3181  0.8168
  109CHL1  H23A14312   2.361   5.628   5.022  0.9620  1.5160 -0.8166
  109CHL1  H23B14313   2.238   5.509   4.975 -0.4001 -0.6376 -1.5462
  109CHL1   C2414314   2.322   5.627   4.811 -0.1250 -0.4176 -0.8767
  109CHL1  H24A14315   2.244   5.595   4.739 -1.6954  0.6281  0.3026
  109CHL1  H24B14316   2.352   5.733   4.792  1.2259 -0.7523 -0.7295
  109CHL1   C2514317   2.452   5.550   4.778 -0.0873 -0.3507  0.1557
  109CHL1   H2514318   2.527   5.578   4.854 -0.7656  0.1264  0.6610
  109CHL1   C2614319   2.419   5.398   4.781  0.5593  0.3201  0.0824
  109CHL1  H26A14320   2.342   5.375   4.705  1.6112 -0.8373 -0.6633
  109CHL1  H26B14321   2.504   5.331   4.758  0.9225  0.9542 -0.4591
  109CHL1  H26C14322   2.371   5.374   4.879 -1.1761  0.6049 -0.6601
  109CHL1   C2714323   2.509   5.585   4.632 -0.2342  0.4723 -0.0885
  109CHL1  H27A14324   2.609   5.538   4.615 -0.1276  0.3573  0.8163
  109CHL1  H27B14325   2.445   5.533   4.557 -0.6651 -1.4915  1.5611
  109CHL1  H27C14326   2.513   5.693   4.608  0.6937  0.0006 -2.3849
  110CHL1    C314327   1.535   5.167   6.514  0.4273 -0.0319 -0.9432
  110CHL1    H314328   1.458   5.094   6.545 -0.6181  1.8292  1.1116
  110CHL1    O314329   1.580   5.231   6.633  0.2620 -0.0126  0.5646
  110CHL1   H3'14330   1.656   5.284   6.606  0.4015 -1.2385 -1.7399
  110CHL1    C414331   1.658   5.098   6.444 -0.0581 -0.1319 -0.8191
  110CHL1   H4A14332   1.735   5.178   6.440 -0.4505  0.4833  1.9870
  110CHL1   H4B14333   1.703   5.020   6.509  2.5078  0.4694 -1.7659
  110CHL1    C514334   1.628   5.051   6.301  0.3231 -0.5876  0.0629
  110CHL1    C614335   1.650   4.926   6.275  0.1655 -0.0310  0.7845
  110CHL1    H614336   1.694   4.854   6.346  0.0940 -0.6809  0.1762
  110CHL1    C714337   1.637   4.864   6.139 -0.1048  0.0137  0.1102
  110CHL1   H7A14338   1.720   4.798   6.105 -2.0559 -1.8016 -1.4024
  110CHL1   H7B14339   1.547   4.798   6.144 -0.9882  1.0175 -1.6309
  110CHL1    C814340   1.605   4.966   6.028 -0.6014 -0.0040 -0.1293
  110CHL1    H814341   1.702   5.016   6.005 -0.2313 -1.8277 -3.0566
  110CHL1   C1414342   1.548   4.891   5.903 -0.1023  0.6379 -0.1824
  110CHL1   H1414343   1.456   4.841   5.939  0.3523 -0.0746  0.0124
  110CHL1   C1514344   1.628   4.776   5.841 -0.4174  0.8838 -0.1749
  110CHL1  H15A14345   1.736   4.798   5.848 -0.1725  0.0062 -0.9525
  110CHL1  H15B14346   1.608   4.676   5.885 -0.0079  0.4243 -1.0082
  110CHL1   C1614347   1.585   4.771   5.695 -0.7921  0.0434 -0.1152
  110CHL1  H16A14348   1.671   4.805   5.634  0.4884 -0.4867  1.3423
  110CHL1  H16B14349   1.552   4.672   5.656 -1.8931  0.3134  0.0815
  110CHL1   C1714350   1.475   4.873   5.675 -0.3703  0.1601 -0.2289
  110CHL1   H1714351   1.380   4.825   5.707  0.1772 -1.2304 -0.6420
  110CHL1   C1314352   1.503   4.977   5.790 -0.1092 -0.1540  0.0804
  110CHL1   C1814353   1.627   5.056   5.744  0.4912 -0.0924  0.0000
  110CHL1  H18A14354   1.589   5.130   5.671  1.9118 -1.2356 -1.9677
  110CHL1  H18B14355   1.687   5.108   5.823  0.3743 -0.7755  0.5493
  110CHL1  H18C14356   1.699   4.990   5.692  0.7220 -0.8108  1.1765
  110CHL1   C1214357   1.395   5.076   5.844  0.5453 -0.4139  0.0942
  110CHL1  H12A14358   1.375   5.155   5.768  1.4676 -0.2317  0.0206
  110CHL1  H12B14359   1.301   5.022   5.865  1.3549 -2.3650 -1.0349
  110CHL1   C1114360   1.449   5.158   5.967  0.1313 -0.3392 -0.1508
  110CHL1  H11A14361   1.527   5.229   5.932 -0.2949  0.7153  0.9731
  110CHL1  H11B14362   1.365   5.217   6.008  0.9503  1.3929 -0.8176
  110CHL1    C914363   1.505   5.064   6.078 -0.9039 -0.3890 -0.4013
  110CHL1    H914364   1.418   5.005   6.115 -1.0141 -0.2727 -0.4741
  110CHL1   C1014365   1.561   5.145   6.206  0.1669 -0.0545  0.4412
  110CHL1   C1914366   1.649   5.251   6.157  0.3368 -0.4628 -0.1826
  110CHL1  H19A14367   1.718   5.226   6.074 -0.8435 -2.0659 -0.7202
  110CHL1  H19B14368   1.593   5.339   6.118  2.3666  0.5766 -0.9176
  110CHL1  H19C14369   1.725   5.297   6.224  1.0908  0.3255 -1.5171
  110CHL1    C114370   1.443   5.205   6.287 -0.4025  0.1093  0.0990
  110CHL1   H1A14371   1.391   5.280   6.224 -0.2663 -0.6342 -0.9296
  110CHL1   H1B14372   1.372   5.122   6.304  1.9989 -1.7837  1.5990
  110CHL1    C214373   1.483   5.272   6.418  0.6435 -0.2231  0.4055
  110CHL1   H2A14374   1.389   5.308   6.464  0.1546 -0.4539 -0.3899
  110CHL1   H2B14375   1.560   5.351   6.408 -0.5131  0.8118 -0.5587
  110CHL1   C2014376   1.453   4.925   5.526 -0.3032 -0.0562 -0.4908
  110CHL1   H2014377   1.544   4.986   5.503  0.8374 -0.8683  1.5845
  110CHL1   C2114378   1.322   4.999   5.518  0.0592  0.3667 -0.0762
  110CHL1  H21A14379   1.317   5.094   5.575  1.5769  1.3881 -1.5379
  110CHL1  H21B14380   1.243   4.932   5.558 -0.4700  0.1164 -1.4681
  110CHL1  H21C14381   1.286   5.020   5.415 -1.2570 -0.8826  0.1091
  110CHL1   C2214382   1.450   4.807   5.430  0.5470 -0.4412 -0.2278
  110CHL1  H22A14383   1.552   4.765   5.447  1.7742  2.4870  0.2244
  110CHL1  H22B14384   1.372   4.734   5.461 -0.0059  1.0931  2.3212
  110CHL1   C2314385   1.426   4.839   5.285  0.2639 -1.0941  0.2314
  110CHL1  H23A14386   1.318   4.857   5.264  0.1968 -0.6348  0.9556
  110CHL1  H23B14387   1.470   4.938   5.263 -1.2405 -0.4016  0.1839
  110CHL1   C2414388   1.477   4.735   5.188 -0.2061 -0.1647  0.3706
  110CHL1  H24A14389   1.588   4.731   5.189 -0.0662  2.0673  0.0820
  110CHL1  H24B14390   1.451   4.634   5.225 -0.2042 -0.1583  0.3894
  110CHL1   C2514391   1.423   4.746   5.039 -0.4485 -0.7526  0.2496
  110CHL1   H2514392   1.312   4.752   5.046 -0.6089 -2.2044 -0.7338
  110CHL1   C2614393   1.479   4.880   4.980  0.3435 -0.0658 -0.7136
  110CHL1  H26A14394   1.444   4.970   5.035  0.3929  0.5769 -1.7046
  110CHL1  H26B14395   1.589   4.890   4.981  0.2481  1.0863  0.1925
  110CHL1  H26C14396   1.441   4.887   4.875 -1.2992  1.3742 -0.0776
  110CHL1   C2714397   1.450   4.629   4.949 -0.3766 -0.1490  1.0300
  110CHL1  H27A14398   1.402   4.639   4.850  0.0602 -1.9173  0.6156
  110CHL1  H27B14399   1.559   4.621   4.931 -0.0659  1.8990  1.7137
  110CHL1  H27C14400   1.422   4.533   4.997 -2.4666  0.0405  0.3157
  111CHL1    C314401   2.057   7.090   6.710  0.1707  0.0696  0.7008
  111CHL1    H314402   2.094   6.991   6.675  1.9341  1.4379 -1.4801
  111CHL1    O314403   2.033   7.075   6.849 -0.0250 -0.3237  0.8847
  111CHL1   H3'14404   1.988   6.990   6.852  1.1260 -1.0148 -0.4991
  111CHL1    C414405   2.156   7.199   6.685 -0.5938 -0.7244  0.3097
  111CHL1   H4A14406   2.108   7.296   6.712 -0.8177 -0.9259  0.6451
  111CHL1   H4B14407   2.245   7.180   6.748  0.4004 -0.9947 -1.1331
  111CHL1    C514408   2.205   7.207   6.542 -0.3737  0.3277 -0.4138
  111CHL1    C614409   2.334   7.199   6.499 -0.3480  0.1731 -0.1650
  111CHL1    H614410   2.419   7.199   6.569 -1.5098  0.6867  1.2835
  111CHL1    C714411   2.372   7.203   6.352 -0.9666 -0.3764  0.1001
  111CHL1   H7A14412   2.461   7.269   6.345 -0.4811 -1.1588 -1.5686
  111CHL1   H7B14413   2.403   7.102   6.316 -1.1763 -1.0625  1.7466
  111CHL1    C814414   2.257   7.259   6.256  0.5143  0.5920  0.5716
  111CHL1    H814415   2.239   7.368   6.270 -1.0304  0.5918 -1.1269
  111CHL1   C1414416   2.284   7.229   6.109  0.1869  0.0898  0.3633
  111CHL1   H1414417   2.296   7.120   6.093  0.2187 -0.2058  2.1980
  111CHL1   C1514418   2.412   7.290   6.048 -0.3065  0.1667  0.1120
  111CHL1  H15A14419   2.438   7.394   6.076  1.7280 -0.2165 -0.2205
  111CHL1  H15B14420   2.499   7.233   6.086 -2.9656 -3.0809  1.8600
  111CHL1   C1614421   2.387   7.283   5.897 -0.0600  0.5121 -0.0449
  111CHL1  H16A14422   2.408   7.380   5.847  2.6921 -0.3799 -0.7980
  111CHL1  H16B14423   2.444   7.206   5.841 -0.6847 -0.2705  0.3777
  111CHL1   C1714424   2.240   7.238   5.875  0.2483 -0.0369 -0.4006
  111CHL1   H1714425   2.245   7.127   5.864  3.1678  0.0682 -0.8321
  111CHL1   C1314426   2.178   7.276   6.012  0.2317 -0.1592 -0.3587
  111CHL1   C1814427   2.170   7.434   6.021  0.7126  0.5442 -0.2583
  111CHL1  H18A14428   2.266   7.489   6.029 -0.5983  2.7550  1.5281
  111CHL1  H18B14429   2.110   7.473   5.936 -1.7609 -0.7667  0.7759
  111CHL1  H18C14430   2.123   7.481   6.110 -0.2590 -0.0724 -0.4297
  111CHL1   C1214431   2.049   7.211   6.043  0.1426 -0.0251 -0.1381
  111CHL1  H12A14432   1.966   7.262   5.990  0.4918  2.0632  1.1974
  111CHL1  H12B14433   2.050   7.105   6.008 -0.1971 -0.2381  0.4769
  111CHL1   C1114434   2.011   7.238   6.191  0.4923  0.0467 -0.2232
  111CHL1  H11A14435   1.978   7.342   6.209 -0.0334 -0.5001  2.5577
  111CHL1  H11B14436   1.916   7.184   6.212 -1.9408  4.3579  1.0082
  111CHL1    C914437   2.123   7.193   6.295  0.0845  0.7670 -0.5267
  111CHL1    H914438   2.138   7.084   6.278 -0.2466  0.7991 -1.0406
  111CHL1   C1014439   2.084   7.217   6.443  0.0191 -0.2955  0.6573
  111CHL1   C1914440   2.032   7.364   6.459 -0.0385  0.5561  0.7142
  111CHL1  H19A14441   1.927   7.368   6.422 -0.3138 -1.3994  1.1388
  111CHL1  H19B14442   2.018   7.389   6.566 -1.9207  0.4398  0.5279
  111CHL1  H19C14443   2.103   7.436   6.413  1.1933 -0.9470  0.1642
  111CHL1    C114444   1.974   7.115   6.486  0.6369 -0.8344 -0.0183
  111CHL1   H1A14445   1.887   7.136   6.420  0.4439 -1.4199  0.0435
  111CHL1   H1B14446   2.005   7.010   6.466  0.9408 -0.5695 -1.0093
  111CHL1    C214447   1.931   7.117   6.632  0.3026 -0.0639 -0.0530
  111CHL1   H2A14448   1.852   7.040   6.641 -0.1913  0.1413 -2.1265
  111CHL1   H2B14449   1.887   7.217   6.654  0.6065 -0.1359  0.9289
  111CHL1   C2014450   2.184   7.289   5.738 -0.2890  0.3742  0.2250
  111CHL1   H2014451   2.191   7.399   5.750  0.0300  0.3021  0.7188
  111CHL1   C2114452   2.043   7.228   5.702 -0.4567 -0.3056 -0.3943
  111CHL1  H21A14453   2.038   7.240   5.592  0.5223  2.2293 -0.2199
  111CHL1  H21B14454   1.957   7.274   5.756  0.7429  0.6788  0.7411
  111CHL1  H21C14455   2.034   7.119   5.724 -2.6258  0.2819  2.3033
  111CHL1   C2214456   2.283   7.262   5.617  0.5057 -0.4390 -0.5206
  111CHL1  H22A14457   2.243   7.319   5.531  3.4613  0.9678 -1.0827
  111CHL1  H22B14458   2.382   7.304   5.645 -0.0533  0.4658  0.1314
  111CHL1   C2314459   2.317   7.115   5.587  0.0363 -0.6413  0.2177
  111CHL1  H23A14460   2.385   7.084   5.670  0.5844  0.5946  0.2511
  111CHL1  H23B14461   2.228   7.049   5.591 -0.6376  0.0444 -1.9858
  111CHL1   C2414462   2.375   7.092   5.448 -0.2199  0.4084 -0.4561
  111CHL1  H24A14463   2.298   7.079   5.370 -0.9689 -0.0123  0.3332
  111CHL1  H24B14464   2.416   7.191   5.418 -0.6826  0.1991 -1.8580
  111CHL1   C2514465   2.476   6.974   5.440  0.4077 -0.7628 -0.2088
  111CHL1   H2514466   2.557   6.985   5.515  1.7215  1.0526 -1.7767
  111CHL1   C2614467   2.405   6.840   5.461  0.3748 -0.7160  0.8487
  111CHL1  H26A14468   2.344   6.851   5.554  0.0492  1.0097  0.4633
  111CHL1  H26B14469   2.341   6.822   5.372  0.3137  0.4963  0.6246
  111CHL1  H26C14470   2.485   6.765   5.477  1.1469  0.3946  2.5123
  111CHL1   C2714471   2.571   7.000   5.311  0.0182 -0.1502  1.0612
  111CHL1  H27A14472   2.498   7.025   5.231 -1.5229 -0.2541  2.3829
  111CHL1  H27B14473   2.621   7.098   5.328 -1.1804  0.7130 -0.0850
  111CHL1  H27C14474   2.627   6.908   5.284  1.3269  1.1199 -0.9045
  112CHL1    C314475   5.157   1.001   6.302  0.7558 -0.6358  0.2810
  112CHL1    H314476   5.071   0.941   6.265 -0.1873  0.3272  0.8386
  112CHL1    O314477   5.213   0.955   6.426 -0.0712  0.0796 -0.0415
  112CHL1   H3'14478   5.270   1.019   6.469  2.1914 -2.6304  1.2882
  112CHL1    C414479   5.265   1.003   6.195 -1.4964  0.1057  0.1047
  112CHL1   H4A14480   5.352   1.058   6.236  1.5527 -3.9154 -0.3899
  112CHL1   H4B14481   5.296   0.898   6.183 -2.3779 -0.1343 -0.1754
  112CHL1    C514482   5.216   1.056   6.063 -0.9529  0.4944 -0.3886
  112CHL1    C614483   5.227   0.980   5.958 -0.2425  0.2810  0.0559
  112CHL1    H614484   5.285   0.887   5.962  2.6558  1.9163 -0.7726
  112CHL1    C714485   5.178   1.021   5.826 -0.4476  0.4252  0.6308
  112CHL1   H7A14486   5.252   1.004   5.745 -0.6058  2.7060 -0.0517
  112CHL1   H7B14487   5.089   0.956   5.809  0.5563 -1.7561  2.9285
  112CHL1    C814488   5.137   1.171   5.810 -0.1607 -0.2631  0.8267
  112CHL1    H814489   5.230   1.231   5.797  1.2732 -2.7884 -1.3494
  112CHL1   C1414490   5.038   1.202   5.695  0.1161 -0.0149 -0.5045
  112CHL1   H1414491   4.942   1.157   5.728  0.0913  1.5382  1.8129
  112CHL1   C1514492   5.077   1.133   5.566  0.0279 -0.2636 -0.6136
  112CHL1  H15A14493   5.181   1.160   5.536 -0.2335  2.4501  0.6057
  112CHL1  H15B14494   5.058   1.023   5.565  0.8325 -0.4193  0.1498
  112CHL1   C1614495   4.974   1.199   5.471 -0.7153 -0.7615 -0.1924
  112CHL1  H16A14496   5.022   1.248   5.384 -1.2205 -1.0181 -0.6284
  112CHL1  H16B14497   4.900   1.136   5.416 -1.8057  1.9590 -2.0851
  112CHL1   C1714498   4.904   1.316   5.548 -0.4752  0.9248 -0.5525
  112CHL1   H1714499   4.812   1.271   5.590  0.1936 -0.7508 -0.7930
  112CHL1   C1314500   4.998   1.342   5.669 -0.7429 -0.5649  0.5971
  112CHL1   C1814501   5.113   1.440   5.646 -0.0995 -0.0019  0.6458
  112CHL1  H18A14502   5.164   1.464   5.742  1.5623 -1.0425  0.0615
  112CHL1  H18B14503   5.186   1.392   5.577  0.6245  1.0029  0.6970
  112CHL1  H18C14504   5.077   1.536   5.604 -1.6072 -1.1445 -0.8293
  112CHL1   C1214505   4.915   1.384   5.798 -0.7015  0.7177 -0.6021
  112CHL1  H12A14506   4.888   1.492   5.797 -1.3581  0.6579  1.9676
  112CHL1  H12B14507   4.825   1.319   5.807  0.4576 -0.7484  1.5662
  112CHL1   C1114508   4.996   1.344   5.925 -0.0914 -0.5605 -1.0823
  112CHL1  H11A14509   5.077   1.419   5.936  1.5881 -2.0142 -2.8355
  112CHL1  H11B14510   4.928   1.372   6.008 -1.7986  1.0717 -2.9103
  112CHL1    C914511   5.058   1.208   5.936 -0.2675 -0.0396 -0.1132
  112CHL1    H914512   4.975   1.135   5.925  0.6159 -0.7264 -3.3832
  112CHL1   C1014513   5.142   1.186   6.066  0.0556  0.0453  0.1575
  112CHL1   C1914514   5.259   1.286   6.081  0.5567  1.3389  0.6650
  112CHL1  H19A14515   5.320   1.291   5.988 -1.2843 -1.5328 -0.8764
  112CHL1  H19B14516   5.217   1.389   6.086  0.7762  1.4205  0.8521
  112CHL1  H19C14517   5.314   1.265   6.175 -1.7370 -0.8351  1.6699
  112CHL1    C114518   5.054   1.197   6.193  0.4141 -0.4178  0.1976
  112CHL1   H1A14519   5.022   1.303   6.204 -0.1174 -0.7713  2.8624
  112CHL1   H1B14520   4.959   1.148   6.166  0.1820 -0.0619  0.3620
  112CHL1    C214521   5.108   1.135   6.328  0.5210 -0.4180 -0.7348
  112CHL1   H2A14522   5.020   1.127   6.395  1.4448 -0.5658  0.4877
  112CHL1   H2B14523   5.187   1.198   6.374  1.2112 -0.3549 -1.9692
  112CHL1   C2014524   4.853   1.436   5.473  0.2346 -0.2323 -0.1145
  112CHL1   H2014525   4.833   1.516   5.547  0.3201  0.6438 -1.0209
  112CHL1   C2114526   4.711   1.405   5.424 -0.0196 -0.1307  0.2651
  112CHL1  H21A14527   4.626   1.454   5.476 -0.1102 -0.6259  0.5951
  112CHL1  H21B14528   4.691   1.296   5.411  1.8409 -0.4782  0.1033
  112CHL1  H21C14529   4.704   1.434   5.317 -2.8562  0.7572  0.5941
  112CHL1   C2214530   4.944   1.489   5.362 -0.7757  0.3051  0.1702
  112CHL1  H22A14531   5.051   1.491   5.389 -0.2908  4.5820 -1.3449
  112CHL1  H22B14532   4.940   1.426   5.271  1.7372 -0.2979  0.4322
  112CHL1   C2314533   4.907   1.634   5.323  0.2386 -0.1506  0.1701
  112CHL1  H23A14534   4.797   1.644   5.312  0.3981 -0.6612 -2.5714
  112CHL1  H23B14535   4.955   1.702   5.396 -0.9932  1.2897 -0.3055
  112CHL1   C2414536   4.958   1.672   5.183 -0.3911  0.2473  0.1731
  112CHL1  H24A14537   5.069   1.668   5.172 -0.2608  2.9966 -0.2708
  112CHL1  H24B14538   4.910   1.593   5.122  0.9295 -2.1308  1.9915
  112CHL1   C2514539   4.914   1.811   5.133  0.0138  0.0254 -0.1679
  112CHL1   H2514540   4.938   1.873   5.222 -2.2347 -0.4697  0.8484
  112CHL1   C2614541   4.989   1.855   5.015 -0.2227  0.0035  0.4995
  112CHL1  H26A14542   5.094   1.817   5.016 -0.1938  0.0269 -0.5771
  112CHL1  H26B14543   4.935   1.827   4.923  0.7945  0.2480 -0.1860
  112CHL1  H26C14544   5.002   1.965   5.004  0.4083 -0.2577 -1.9577
  112CHL1   C2714545   4.766   1.838   5.118  0.2702  0.6797  0.9587
  112CHL1  H27A14546   4.726   1.755   5.056  1.4193  0.0976  0.9618
  112CHL1  H27B14547   4.704   1.826   5.210  0.0687  0.2516  0.7696
  112CHL1  H27C14548   4.740   1.939   5.078 -0.0377  0.4783  0.6402
  113CHL1    C314549   0.789   4.900   6.272 -0.1369 -0.6919 -0.1488
  113CHL1    H314550   0.867   4.904   6.193  1.0222  1.4673  0.9959
  113CHL1    O314551   0.841   4.971   6.385 -0.0202 -0.1380  0.1251
  113CHL1   H3'14552   0.861   5.056   6.346  1.0033 -0.3303  0.1879
  113CHL1    C414553   0.655   4.978   6.226  0.1025 -0.4556  0.0876
  113CHL1   H4A14554   0.586   5.005   6.309  0.3507  1.0483 -0.1605
  113CHL1   H4B14555   0.704   5.076   6.204 -0.0218 -0.0371  1.5478
  113CHL1    C514556   0.577   4.907   6.109  0.2501 -0.1072  0.2558
  113CHL1    C614557   0.533   4.968   5.999  0.0856  0.0556  0.4967
  113CHL1    H614558   0.559   5.074   5.987  2.6903 -0.5257  0.5800
  113CHL1    C714559   0.460   4.907   5.887  0.1067  0.3607  0.8163
  113CHL1   H7A14560   0.380   4.977   5.857  0.0050  0.0476  0.3340
  113CHL1   H7B14561   0.520   4.901   5.793  1.6653  1.5324  1.6953
  113CHL1    C814562   0.401   4.770   5.921 -0.0435  0.1868  0.2953
  113CHL1    H814563   0.307   4.783   5.979 -0.3345  1.1085 -0.3494
  113CHL1   C1414564   0.361   4.699   5.790 -0.5621  0.3122 -0.5495
  113CHL1   H1414565   0.457   4.709   5.735 -0.0131  2.3227  0.7024
  113CHL1   C1514566   0.265   4.764   5.696  0.3802 -1.0361  0.3439
  113CHL1  H15A14567   0.169   4.794   5.743  0.2890  3.7381 -2.2856
  113CHL1  H15B14568   0.301   4.854   5.642 -0.5949 -0.8106  0.0419
  113CHL1   C1614569   0.250   4.648   5.594  0.0515 -0.5106  0.9817
  113CHL1  H16A14570   0.146   4.636   5.557  0.6832  0.1247 -1.1794
  113CHL1  H16B14571   0.324   4.657   5.511  0.6180 -0.4702  1.4899
  113CHL1   C1714572   0.298   4.518   5.665  0.3405  0.4542  0.0825
  113CHL1   H1714573   0.393   4.506   5.608  0.5304  0.0753  0.4719
  113CHL1   C1314574   0.322   4.550   5.807 -0.7462 -0.2744 -0.3916
  113CHL1   C1814575   0.188   4.543   5.887  0.0399  0.3899  0.6150
  113CHL1  H18A14576   0.179   4.435   5.911  2.2407 -0.3527 -1.4748
  113CHL1  H18B14577   0.193   4.603   5.981  0.2521  0.5045  0.5315
  113CHL1  H18C14578   0.096   4.575   5.833 -0.7237 -1.1887  0.9372
  113CHL1   C1214579   0.440   4.473   5.879  0.4847  0.4687 -0.2253
  113CHL1  H12A14580   0.419   4.364   5.882  2.2773 -0.0366 -2.9748
  113CHL1  H12B14581   0.529   4.479   5.812 -0.0984 -0.0956 -1.0679
  113CHL1   C1114582   0.455   4.540   6.011 -0.1722 -0.5137 -0.2389
  113CHL1  H11A14583   0.366   4.532   6.077 -1.1881  0.1177 -1.4985
  113CHL1  H11B14584   0.534   4.481   6.064  1.2892 -0.4315 -2.1878
  113CHL1    C914585   0.506   4.689   6.004  0.7195 -0.2763  0.0449
  113CHL1    H914586   0.594   4.683   5.936  1.0121  2.7656  0.0006
  113CHL1   C1014587   0.557   4.753   6.135  0.6404 -0.0079 -0.1481
  113CHL1   C1914588   0.448   4.744   6.246 -0.5074 -0.0507  0.1526
  113CHL1  H19A14589   0.353   4.798   6.227  0.2541  2.2348  2.2722
  113CHL1  H19B14590   0.434   4.634   6.250  1.8089 -0.6310 -3.2644
  113CHL1  H19C14591   0.486   4.779   6.345  0.7234 -0.6406 -0.0963
  113CHL1    C114592   0.692   4.692   6.177 -0.0370 -0.3265 -0.3526
  113CHL1   H1A14593   0.664   4.589   6.207  1.4580 -0.7391 -0.2855
  113CHL1   H1B14594   0.761   4.699   6.090  1.1032  1.6096  0.6615
  113CHL1    C214595   0.757   4.757   6.305 -0.3122 -0.1617 -0.3264
  113CHL1   H2A14596   0.850   4.703   6.331 -1.5775 -0.7764  3.5785
  113CHL1   H2B14597   0.687   4.750   6.391  0.7526 -0.2388  0.5488
  113CHL1   C2014598   0.217   4.393   5.628  0.1123  0.2318 -0.0894
  113CHL1   H2014599   0.124   4.388   5.688  0.0078 -2.3024 -0.3517
  113CHL1   C2114600   0.290   4.264   5.668 -0.1202  0.2180 -0.4319
  113CHL1  H21A14601   0.387   4.256   5.615 -0.7700  0.4319 -1.6872
  113CHL1  H21B14602   0.233   4.171   5.648 -1.8248  1.0034  0.5097
  113CHL1  H21C14603   0.299   4.268   5.779 -0.7224  0.7991 -0.3981
  113CHL1   C2214604   0.157   4.389   5.476 -0.5871  0.8773  0.4434
  113CHL1  H22A14605   0.070   4.457   5.474 -2.7368 -1.7145 -1.5739
  113CHL1  H22B14606   0.237   4.423   5.406 -0.7650 -0.3662 -0.4146
  113CHL1   C2314607   0.092   4.257   5.430  0.4037 -0.3274 -0.1524
  113CHL1  H23A14608   0.167   4.175   5.439  0.1496 -0.4119  1.7385
  113CHL1  H23B14609   0.014   4.234   5.506  2.4961 -1.1576  1.8761
  113CHL1   C2414610   0.046   4.262   5.285  0.3264  0.2228 -0.5437
  113CHL1  H24A14611  -0.026   4.347   5.277 -0.1689 -0.0934  0.4068
  113CHL1  H24B14612   0.138   4.293   5.230  1.4740 -2.1091 -0.0493
  113CHL1   C2514613  -0.024   4.139   5.223 -1.0116 -0.0731 -0.9727
  113CHL1   H2514614  -0.124   4.137   5.271 -1.0063  1.1253 -0.8825
  113CHL1   C2614615  -0.035   4.155   5.073  0.4209  0.1792  0.3596
  113CHL1  H26A14616  -0.084   4.254   5.061 -1.2516 -0.4720  1.3946
  113CHL1  H26B14617   0.059   4.156   5.013  1.1647  1.2495  1.5084
  113CHL1  H26C14618  -0.097   4.070   5.036  2.2852 -1.5457  1.0087
  113CHL1   C2714619   0.039   4.004   5.250  0.1369 -0.1937  0.0520
  113CHL1  H27A14620   0.041   3.977   5.357  0.6147  1.3783  0.4616
  113CHL1  H27B14621  -0.034   3.929   5.211 -1.1513 -0.2317  2.3965
  113CHL1  H27C14622   0.138   3.993   5.201  0.8767 -0.6955  1.6007
  114CHL1    C314623   4.881   7.022   6.417  0.5219  0.7459  0.6506
  114CHL1    H314624   4.949   7.102   6.455 -1.0935  1.7366  1.6005
  114CHL1    O314625   4.795   6.984   6.520  0.0240 -0.6394 -0.7430
  114CHL1   H3'14626   4.750   6.912   6.475  0.0537 -0.8714 -0.4016
  114CHL1    C414627   4.800   7.067   6.297 -0.7405 -0.5792 -0.0459
  114CHL1   H4A14628   4.734   6.981   6.273  0.4263 -1.3271 -0.6975
  114CHL1   H4B14629   4.744   7.157   6.331 -1.3051 -0.4143 -1.3545
  114CHL1    C514630   4.911   7.101   6.188  0.0260 -0.6896  0.7838
  114CHL1    C614631   4.923   7.227   6.134  0.3337  0.6028  0.2092
  114CHL1    H614632   4.851   7.304   6.167 -0.8878 -0.7250  0.7396
  114CHL1    C714633   5.019   7.259   6.027  0.3336  0.3842 -0.1656
  114CHL1   H7A14634   4.958   7.304   5.945  1.0141 -3.3372 -2.9595
  114CHL1   H7B14635   5.109   7.318   6.052  0.5765 -0.8453  2.0897
  114CHL1    C814636   5.085   7.137   5.963  0.1538 -0.0788 -0.0282
  114CHL1    H814637   5.012   7.084   5.897  0.0078  1.3388 -1.0521
  114CHL1   C1414638   5.201   7.182   5.877 -0.0329 -0.2841 -0.2762
  114CHL1   H1414639   5.277   7.213   5.952  1.0733  1.0013 -1.8426
  114CHL1   C1514640   5.185   7.304   5.782 -0.7431  0.1872  0.2875
  114CHL1  H15A14641   5.091   7.289   5.726 -0.8248 -1.1171  0.7494
  114CHL1  H15B14642   5.172   7.398   5.840  1.9577  0.4836  0.5546
  114CHL1   C1614643   5.306   7.283   5.688 -1.1835  0.2268  0.4186
  114CHL1  H16A14644   5.278   7.283   5.580  2.7568  0.2315 -0.7457
  114CHL1  H16B14645   5.381   7.364   5.696 -0.2061 -0.3819 -1.7352
  114CHL1   C1714646   5.379   7.142   5.727  0.2914 -0.1237  0.1501
  114CHL1   H1714647   5.448   7.190   5.800 -0.8264  1.8492 -0.0143
  114CHL1   C1314648   5.275   7.068   5.804 -0.2495  0.1712  0.9674
  114CHL1   C1814649   5.188   6.987   5.701  0.6410  0.1321 -0.8893
  114CHL1  H18A14650   5.146   7.057   5.625  0.5344  0.5694 -0.4323
  114CHL1  H18B14651   5.244   6.909   5.647  0.0930 -1.1878  0.3944
  114CHL1  H18C14652   5.100   6.944   5.753  0.8607 -0.3489 -0.9206
  114CHL1   C1214653   5.322   6.973   5.907  0.2906 -0.0367 -0.0705
  114CHL1  H12A14654   5.373   6.884   5.865 -0.6365 -1.8102  2.2671
  114CHL1  H12B14655   5.388   7.025   5.979  1.5410 -2.2826  0.5158
  114CHL1   C1114656   5.206   6.924   5.998 -0.3037  0.4182 -1.0490
  114CHL1  H11A14657   5.139   6.865   5.932  0.0246 -0.5706 -0.5088
  114CHL1  H11B14658   5.251   6.850   6.067  1.7647  3.3810  1.0279
  114CHL1    C914659   5.128   7.035   6.066 -0.1336  0.3802  0.1243
  114CHL1    H914660   5.197   7.085   6.137  0.1247  0.2750 -0.0528
  114CHL1   C1014661   5.006   6.987   6.151 -0.7787  0.6033  0.2130
  114CHL1   C1914662   4.926   6.874   6.089 -0.4864  0.1818  0.5304
  114CHL1  H19A14663   4.878   6.899   5.993 -0.0888 -0.0732  0.2625
  114CHL1  H19B14664   4.984   6.781   6.069 -1.7226 -0.3324 -0.8498
  114CHL1  H19C14665   4.844   6.843   6.158 -1.4108  2.2840  0.4549
  114CHL1    C114666   5.071   6.928   6.277 -0.3024 -0.3034  0.4804
  114CHL1   H1A14667   5.124   6.830   6.268  0.0969 -0.0094 -0.4645
  114CHL1   H1B14668   5.141   7.006   6.315 -0.1206 -1.1210  1.9079
  114CHL1    C214669   4.966   6.902   6.385  0.6119  0.1646  0.4920
  114CHL1   H2A14670   5.028   6.872   6.472  1.3128  1.8343  0.6130
  114CHL1   H2B14671   4.899   6.821   6.349 -0.6478  1.8894 -1.2558
  114CHL1   C2014672   5.460   7.072   5.620  0.4304  0.0872  0.1932
  114CHL1   H2014673   5.463   6.966   5.652 -2.3362  0.0435  0.5627
  114CHL1   C2114674   5.607   7.123   5.619  0.2782 -0.7315 -0.3833
  114CHL1  H21A14675   5.668   7.059   5.552  0.7033 -2.9296  1.9339
  114CHL1  H21B14676   5.661   7.099   5.713  3.2237  0.0339 -1.7634
  114CHL1  H21C14677   5.630   7.230   5.603  0.5287 -0.8544 -0.8659
  114CHL1   C2214678   5.405   7.085   5.475  0.0063 -0.1453 -0.9379
  114CHL1  H22A14679   5.296   7.073   5.456  0.3675 -1.5778 -2.2723
  114CHL1  H22B14680   5.446   7.185   5.448  1.7800 -1.1347 -2.0992
  114CHL1   C2314681   5.454   6.964   5.395 -0.7644 -0.3246 -0.1676
  114CHL1  H23A14682   5.563   6.973   5.410 -0.9820  2.0553  0.3978
  114CHL1  H23B14683   5.431   6.864   5.438  1.0732 -0.7020  0.0153
  114CHL1   C2414684   5.417   6.979   5.254  0.2576 -0.1075  0.2075
  114CHL1  H24A14685   5.307   6.970   5.245  0.2692 -2.1833  1.5385
  114CHL1  H24B14686   5.453   7.076   5.213  0.0982 -1.5124 -3.7575
  114CHL1   C2514687   5.487   6.878   5.166 -0.3028 -0.6700  0.0100
  114CHL1   H2514688   5.595   6.905   5.172 -0.3159 -0.5068 -0.4318
  114CHL1   C2614689   5.453   6.729   5.206 -0.0986 -0.3933 -0.0248
  114CHL1  H26A14690   5.478   6.702   5.311 -2.0056  2.0346  1.1637
  114CHL1  H26B14691   5.345   6.714   5.182 -0.2194  1.4898 -0.8426
  114CHL1  H26C14692   5.515   6.668   5.136  1.0218  2.0977 -1.3456
  114CHL1   C2714693   5.446   6.904   5.020  0.8894 -0.4008 -0.1837
  114CHL1  H27A14694   5.499   6.835   4.951  1.5760  0.6419 -0.7311
  114CHL1  H27B14695   5.335   6.895   5.017  0.8281  0.1438  0.2047
  114CHL1  H27C14696   5.477   7.003   4.980  0.3245 -0.1268  0.0397
  115CHL1    C314697   3.195   1.206   6.418  0.2326  0.4991  0.3207
  115CHL1    H314698   3.296   1.182   6.378  0.3835  1.1784  0.2939
  115CHL1    O314699   3.188   1.183   6.557  0.2918 -0.3108 -0.0717
  115CHL1   H3'14700   3.243   1.251   6.598  0.9042 -0.7871 -0.0909
  115CHL1    C414701   3.179   1.357   6.395  0.1596 -0.4702  0.3932
  115CHL1   H4A14702   3.081   1.376   6.443 -0.0950  1.5900 -0.8280
  115CHL1   H4B14703   3.254   1.412   6.455  0.2350  0.7109 -0.7547
  115CHL1    C514704   3.164   1.392   6.251 -0.0561  0.7965  0.4288
  115CHL1    C614705   3.249   1.480   6.199 -0.5113  1.4126 -0.5600
  115CHL1    H614706   3.335   1.512   6.260  0.2828 -1.8370  0.2334
  115CHL1    C714707   3.236   1.522   6.058 -0.0121  0.1970  0.7856
  115CHL1   H7A14708   3.241   1.632   6.042  1.3505 -0.0780 -1.0586
  115CHL1   H7B14709   3.325   1.482   6.004 -0.3311 -0.9017  1.0455
  115CHL1    C814710   3.106   1.473   5.978 -0.2686 -0.1874  0.1227
  115CHL1    H814711   3.018   1.526   6.018 -0.9484 -1.4784  0.3956
  115CHL1   C1414712   3.132   1.477   5.828 -0.0778  0.1662  0.6746
  115CHL1   H1414713   3.201   1.392   5.805 -1.5476 -0.5232 -1.5615
  115CHL1   C1514714   3.198   1.597   5.769 -0.1216 -0.3299 -0.0499
  115CHL1  H15A14715   3.152   1.684   5.820  1.5372  1.1507 -0.9522
  115CHL1  H15B14716   3.308   1.593   5.787 -0.0888  0.2962 -0.0683
  115CHL1   C1614717   3.158   1.610   5.615  0.4402  0.6322  0.0724
  115CHL1  H16A14718   3.104   1.706   5.601 -0.8557  0.2313  1.8593
  115CHL1  H16B14719   3.248   1.602   5.551 -0.6439 -0.7158 -1.3688
  115CHL1   C1714720   3.067   1.482   5.598  0.4989 -0.4454 -0.6278
  115CHL1   H1714721   3.141   1.404   5.570  0.5858 -0.5416 -0.1329
  115CHL1   C1314722   3.007   1.442   5.743 -0.0693 -0.1278 -0.0242
  115CHL1   C1814723   2.897   1.542   5.774  0.1932  0.4776  0.2053
  115CHL1  H18A14724   2.802   1.521   5.722  0.1679 -0.8127  0.7318
  115CHL1  H18B14725   2.865   1.546   5.881 -0.4016  3.2036  0.0131
  115CHL1  H18C14726   2.913   1.641   5.727 -1.4058 -0.0561 -1.5511
  115CHL1   C1214727   2.972   1.297   5.777 -0.7766 -0.6456  0.5224
  115CHL1  H12A14728   2.873   1.280   5.730 -0.4731 -0.1787 -0.3038
  115CHL1  H12B14729   3.045   1.225   5.734 -0.7660  0.3778 -1.2673
  115CHL1   C1114730   2.954   1.275   5.930 -1.0652 -0.5573 -0.2479
  115CHL1  H11A14731   2.858   1.328   5.943 -0.3470  0.5385  0.8182
  115CHL1  H11B14732   2.933   1.166   5.939  0.4091 -0.9072 -0.6289
  115CHL1    C914733   3.067   1.332   6.019 -0.3251  0.6527  0.2242
  115CHL1    H914734   3.144   1.259   5.986 -1.9231 -0.3928 -1.3581
  115CHL1   C1014735   3.051   1.316   6.174 -0.6768 -0.0306 -0.4165
  115CHL1   C1914736   2.916   1.389   6.217  0.0725  0.5069  0.6608
  115CHL1  H19A14737   2.925   1.497   6.193 -1.2119  0.5138  0.1592
  115CHL1  H19B14738   2.832   1.342   6.163  1.0198 -0.2056 -0.2247
  115CHL1  H19C14739   2.889   1.379   6.325  0.2669  0.9462  0.7520
  115CHL1    C114740   3.062   1.162   6.210 -0.0442 -0.2280  0.4825
  115CHL1   H1A14741   2.982   1.109   6.154  0.4934 -1.4892  0.8541
  115CHL1   H1B14742   3.149   1.115   6.158 -0.5066 -0.9042  0.2934
  115CHL1    C214743   3.076   1.133   6.362 -0.1042  1.0933 -0.3269
  115CHL1   H2A14744   3.085   1.023   6.379 -0.3790  0.2006 -4.7404
  115CHL1   H2B14745   2.985   1.170   6.413  0.4539  0.7510  0.9830
  115CHL1   C2014746   2.970   1.494   5.481  0.1769 -0.4956 -0.2917
  115CHL1   H2014747   2.887   1.562   5.510  0.1618 -0.9412  0.7738
  115CHL1   C2114748   2.884   1.362   5.477  0.4097  0.3101  0.6883
  115CHL1  H21A14749   2.834   1.359   5.378  2.4490 -0.0246 -0.3847
  115CHL1  H21B14750   2.803   1.368   5.553 -0.7400  0.5356 -0.5178
  115CHL1  H21C14751   2.949   1.275   5.498 -0.6450  0.1375  3.8346
  115CHL1   C2214752   3.031   1.535   5.347  0.0830 -0.3535 -0.2020
  115CHL1  H22A14753   2.952   1.544   5.269  0.9826  0.3890 -1.0634
  115CHL1  H22B14754   3.084   1.632   5.357  1.3739 -1.2387  2.2173
  115CHL1   C2314755   3.125   1.433   5.287  0.8188  0.0338 -0.9285
  115CHL1  H23A14756   3.201   1.404   5.362  0.1972 -2.3684 -1.1384
  115CHL1  H23B14757   3.069   1.340   5.264  0.7210  0.0935 -0.9326
  115CHL1   C2414758   3.198   1.478   5.157 -0.4232  0.1107  0.0548
  115CHL1  H24A14759   3.126   1.511   5.079  1.3623  1.3265 -1.1634
  115CHL1  H24B14760   3.257   1.568   5.182  2.7498 -2.2098  1.5442
  115CHL1   C2514761   3.292   1.375   5.101 -0.2775  0.0586  0.2695
  115CHL1   H2514762   3.229   1.284   5.090 -1.1327  0.6712 -0.0125
  115CHL1   C2614763   3.351   1.414   4.966  0.0777  0.0973  0.2041
  115CHL1  H26A14764   3.414   1.331   4.929  0.5474  1.7600 -3.0597
  115CHL1  H26B14765   3.274   1.432   4.887 -0.0636  1.6400  0.6451
  115CHL1  H26C14766   3.417   1.503   4.960 -1.3245  1.1908  0.1745
  115CHL1   C2714767   3.412   1.357   5.193 -0.6598  0.0143  0.5638
  115CHL1  H27A14768   3.384   1.301   5.285  1.5290  1.4337  2.1852
  115CHL1  H27B14769   3.491   1.305   5.135  0.2316  0.5069  1.3156
  115CHL1  H27C14770   3.453   1.455   5.225 -0.5807  0.2536 -0.2430
  116CHL1    C314771   2.249   6.189   6.329 -0.0688  1.0530  0.1337
  116CHL1    H314772   2.166   6.256   6.359 -1.2378 -0.7342  1.1266
  116CHL1    O314773   2.295   6.106   6.439  0.7819 -0.1213 -0.5479
  116CHL1   H3'14774   2.340   6.037   6.390  0.5214  0.8697 -2.2376
  116CHL1    C414775   2.195   6.083   6.230 -0.5007 -0.1404 -0.0053
  116CHL1   H4A14776   2.279   6.014   6.206 -0.1430  0.7122 -1.2904
  116CHL1   H4B14777   2.111   6.031   6.282 -0.0549 -1.7612 -0.8152
  116CHL1    C514778   2.159   6.147   6.098  0.0186 -0.1049  0.1755
  116CHL1    C614779   2.038   6.131   6.050 -0.0767 -0.1381  0.2058
  116CHL1    H614780   1.961   6.070   6.098 -2.0553  0.9842 -1.3762
  116CHL1    C714781   1.996   6.196   5.917 -0.0831 -0.4293 -0.0175
  116CHL1   H7A14782   1.934   6.129   5.854 -0.3716  0.8689 -1.1725
  116CHL1   H7B14783   1.939   6.287   5.945  1.4135  0.9202 -1.1725
  116CHL1    C814784   2.123   6.219   5.833 -0.2056  0.3515 -0.5792
  116CHL1    H814785   2.168   6.122   5.800 -1.3017  0.0046 -1.1050
  116CHL1   C1414786   2.074   6.298   5.706 -0.3775 -0.0181  0.0202
  116CHL1   H1414787   2.027   6.390   5.746 -0.4250  1.1648 -2.5411
  116CHL1   C1514788   1.964   6.234   5.623  0.1767  0.0221  0.9243
  116CHL1  H15A14789   1.983   6.125   5.624 -1.5742 -0.3171  0.9274
  116CHL1  H15B14790   1.863   6.244   5.668 -0.9794  0.7995 -1.6180
  116CHL1   C1614791   1.976   6.305   5.489 -0.6732 -0.3796 -0.2849
  116CHL1  H16A14792   1.988   6.228   5.410  3.3772 -1.8416  1.4700
  116CHL1  H16B14793   1.889   6.369   5.461 -1.0764  0.2995  2.2744
  116CHL1   C1714794   2.106   6.395   5.484 -0.2584 -0.6002  0.2846
  116CHL1   H1714795   2.068   6.495   5.515 -0.6092  0.5991 -3.4597
  116CHL1   C1314796   2.189   6.342   5.610 -0.1155 -0.1002 -0.7699
  116CHL1   C1814797   2.272   6.215   5.557  0.3923 -0.2907  0.2622
  116CHL1  H18A14798   2.334   6.167   5.636  0.0375 -3.0621 -1.0370
  116CHL1  H18B14799   2.209   6.136   5.511  0.6898 -0.0901 -0.5020
  116CHL1  H18C14800   2.342   6.250   5.479 -0.5432  0.0742 -0.4370
  116CHL1   C1214801   2.276   6.445   5.686 -0.1861 -0.1709 -0.0178
  116CHL1  H12A14802   2.368   6.478   5.632  0.7106  2.1420  2.6759
  116CHL1  H12B14803   2.224   6.537   5.721  0.3371 -0.1470  0.7127
  116CHL1   C1114804   2.325   6.379   5.818  0.2695 -0.9212  0.5840
  116CHL1  H11A14805   2.401   6.309   5.780  1.0280  0.1353  0.0885
  116CHL1  H11B14806   2.373   6.452   5.887  1.6583 -0.4752 -0.8058
  116CHL1    C914807   2.221   6.304   5.905  0.2968 -0.3465  0.6084
  116CHL1    H914808   2.154   6.380   5.952 -0.3615 -1.4462  1.5102
  116CHL1   C1014809   2.268   6.237   6.031  0.0040  0.2236 -0.0407
  116CHL1   C1914810   2.381   6.136   5.999  0.5530 -0.3987 -0.3987
  116CHL1  H19A14811   2.425   6.087   6.088  0.9123 -0.2009 -0.4646
  116CHL1  H19B14812   2.354   6.053   5.931 -0.5687  0.3313 -0.8770
  116CHL1  H19C14813   2.472   6.187   5.961  0.5377 -0.1618 -0.1168
  116CHL1    C114814   2.319   6.336   6.137 -0.1436  0.4675 -0.0234
  116CHL1   H1A14815   2.412   6.386   6.102  1.0308 -0.8526  1.0816
  116CHL1   H1B14816   2.247   6.418   6.154 -1.1304 -0.0155 -1.6427
  116CHL1    C214817   2.361   6.274   6.273 -0.0606 -0.3729  0.4769
  116CHL1   H2A14818   2.395   6.347   6.349  3.3031 -0.6399 -0.5893
  116CHL1   H2B14819   2.457   6.218   6.271 -0.4656 -1.0963  0.7783
  116CHL1   C2014820   2.163   6.404   5.338 -0.4875 -0.2342 -0.3772
  116CHL1   H2014821   2.207   6.306   5.309  0.4568 -0.9525  2.9960
  116CHL1   C2114822   2.289   6.499   5.337 -0.1547 -0.2327  0.4751
  116CHL1  H21A14823   2.321   6.506   5.230 -0.7008 -0.7598  0.2701
  116CHL1  H21B14824   2.367   6.457   5.405 -1.5047  1.4330  3.2099
  116CHL1  H21C14825   2.267   6.607   5.350  3.3529  0.8649 -1.3550
  116CHL1   C2214826   2.053   6.452   5.241  0.6724  0.3185  0.4436
  116CHL1  H22A14827   1.982   6.366   5.244  0.3286  0.6107  0.8606
  116CHL1  H22B14828   2.013   6.538   5.298 -1.1501 -1.2093  1.6250
  116CHL1   C2314829   2.084   6.487   5.091  0.5009  0.5698  0.1735
  116CHL1  H23A14830   2.159   6.569   5.096  1.1079 -0.0412  2.2680
  116CHL1  H23B14831   2.124   6.391   5.051 -0.7847  0.2751 -0.4344
  116CHL1   C2414832   1.959   6.530   5.030  0.2557 -0.0689  0.2264
  116CHL1  H24A14833   1.878   6.455   5.024 -0.2672  0.6162 -2.3938
  116CHL1  H24B14834   1.928   6.609   5.102  1.0716  0.1931  0.3071
  116CHL1   C2514835   1.970   6.573   4.881 -0.4446  0.1673 -0.0754
  116CHL1   H2514836   2.022   6.492   4.827  0.6510  1.0129 -0.3189
  116CHL1   C2614837   1.835   6.591   4.817 -0.4442 -0.7794 -0.2779
  116CHL1  H26A14838   1.834   6.603   4.707  1.1045  0.7039 -0.1673
  116CHL1  H26B14839   1.771   6.503   4.841  0.6236 -1.2157  1.0387
  116CHL1  H26C14840   1.772   6.675   4.855 -1.2970 -1.5159 -0.0278
  116CHL1   C2714841   2.043   6.704   4.862  0.0880  0.6106  0.4797
  116CHL1  H27A14842   1.984   6.792   4.896  0.1292  1.1157 -0.7003
  116CHL1  H27B14843   2.127   6.704   4.934 -0.9560  0.4443  1.7439
  116CHL1  H27C14844   2.077   6.709   4.757  1.2378  0.0536  0.8100
  117CHL1    C314845   4.956   0.577   6.320  0.2469  0.6243  0.4005
  117CHL1    H314846   4.869   0.553   6.255  0.8852 -0.4585 -0.0799
  117CHL1    O314847   4.908   0.661   6.418 -0.1309  0.1340 -0.2591
  117CHL1   H3'14848   4.816   0.635   6.429 -0.5653  0.5400 -2.4875
  117CHL1    C414849   5.026   0.454   6.377 -0.1532 -0.3494  0.5048
  117CHL1   H4A14850   5.100   0.489   6.453 -0.7440 -1.0211  1.4227
  117CHL1   H4B14851   4.951   0.399   6.438 -1.5021  0.6183 -0.2174
  117CHL1    C514852   5.093   0.376   6.261  0.6661  1.0123  0.6297
  117CHL1    C614853   5.057   0.244   6.248 -0.0227 -0.1622  0.5555
  117CHL1    H614854   4.985   0.198   6.316 -0.0422  0.3080  0.8600
  117CHL1    C714855   5.110   0.149   6.147 -0.0093  0.2370  0.5827
  117CHL1   H7A14856   5.134   0.048   6.185  1.5216  0.0924 -0.6651
  117CHL1   H7B14857   5.043   0.135   6.059  0.8217 -2.8811  0.3443
  117CHL1    C814858   5.242   0.214   6.087  0.2029 -0.1525  0.3135
  117CHL1    H814859   5.323   0.207   6.163  0.8685 -1.5832 -0.4710
  117CHL1   C1414860   5.283   0.136   5.969  0.0694  0.1564 -0.0241
  117CHL1   H1414861   5.199   0.139   5.896  0.2969 -4.0072 -0.6509
  117CHL1   C1514862   5.303  -0.012   5.993 -0.3215 -0.0789 -0.3106
  117CHL1  H15A14863   5.357  -0.032   6.088 -2.4160 -0.5729  0.8363
  117CHL1  H15B14864   5.200  -0.049   6.012 -0.9491  1.4441 -0.6439
  117CHL1   C1614865   5.375  -0.059   5.866 -0.0568 -0.4654 -0.1229
  117CHL1  H16A14866   5.460  -0.128   5.885  0.4087  0.7614  2.8114
  117CHL1  H16B14867   5.299  -0.102   5.797 -0.4953  1.4193 -0.8716
  117CHL1   C1714868   5.426   0.073   5.797  0.5951 -0.0882 -0.1262
  117CHL1   H1714869   5.362   0.109   5.714 -1.4343  0.8344  1.7372
  117CHL1   C1314870   5.403   0.183   5.896 -0.4056  0.4246  0.2644
  117CHL1   C1814871   5.527   0.192   5.996  0.1603  0.8452  0.9490
  117CHL1  H18A14872   5.565   0.090   6.017  0.0160  0.9320  1.6484
  117CHL1  H18B14873   5.603   0.249   5.937 -0.0982  0.0654 -0.1718
  117CHL1  H18C14874   5.501   0.245   6.090 -2.7028  1.2555  0.0332
  117CHL1   C1214875   5.378   0.320   5.838  0.1626  0.2184  0.5115
  117CHL1  H12A14876   5.461   0.370   5.784 -0.8537  0.4372 -0.9153
  117CHL1  H12B14877   5.292   0.323   5.767  0.8430  2.9682 -0.3454
  117CHL1   C1114878   5.338   0.417   5.953 -0.0889  0.4136 -0.5875
  117CHL1  H11A14879   5.433   0.438   6.006  1.3125 -2.4163 -1.7819
  117CHL1  H11B14880   5.303   0.512   5.909 -0.9227  0.9474  1.1510
  117CHL1    C914881   5.223   0.358   6.046  0.5883 -0.2161 -0.2593
  117CHL1    H914882   5.131   0.354   5.983 -0.0590 -1.4103  0.7116
  117CHL1   C1014883   5.190   0.445   6.168 -0.5166 -0.2402  0.1036
  117CHL1   C1914884   5.322   0.486   6.249  0.4026  0.2763  0.5535
  117CHL1  H19A14885   5.402   0.410   6.241 -1.5831 -1.9715  0.7758
  117CHL1  H19B14886   5.350   0.579   6.195  0.2674 -0.7032 -1.2943
  117CHL1  H19C14887   5.302   0.524   6.351 -0.6336 -0.9162  0.8305
  117CHL1    C114888   5.117   0.576   6.121 -0.2604 -0.3519 -0.2377
  117CHL1   H1A14889   5.189   0.635   6.059 -0.7415 -0.3345 -0.7887
  117CHL1   H1B14890   5.029   0.548   6.058 -0.8247 -0.7333  0.7065
  117CHL1    C214891   5.054   0.659   6.232 -0.1587  0.3149  0.0535
  117CHL1   H2A14892   4.996   0.745   6.191  1.1370  0.3722 -1.8091
  117CHL1   H2B14893   5.125   0.701   6.306 -1.6373  2.0753  0.5467
  117CHL1   C2014894   5.566   0.058   5.738 -0.0690 -0.3872  0.0502
  117CHL1   H2014895   5.630   0.057   5.829 -2.7141  0.9820  2.0733
  117CHL1   C2114896   5.611   0.189   5.660  0.1155  0.7857 -0.8295
  117CHL1  H21A14897   5.628   0.265   5.740 -1.2325  1.4631 -1.1567
  117CHL1  H21B14898   5.525   0.236   5.608 -0.6047 -0.7198 -1.0295
  117CHL1  H21C14899   5.695   0.164   5.592 -0.4070 -1.8651 -0.6017
  117CHL1   C2214900   5.591  -0.071   5.664  0.2135 -1.2027  1.0227
  117CHL1  H22A14901   5.685  -0.068   5.605  0.4647 -1.2197  1.4228
  117CHL1  H22B14902   5.590  -0.166   5.722  0.8822 -3.0330 -1.7401
  117CHL1   C2314903   5.481  -0.088   5.549 -0.0114  0.0983  0.5958
  117CHL1  H23A14904   5.381  -0.122   5.584  0.0977 -0.9985 -0.1149
  117CHL1  H23B14905   5.462   0.011   5.503 -1.4923 -1.1825 -1.7451
  117CHL1   C2414906   5.519  -0.167   5.433 -0.0463  0.2363 -0.1962
  117CHL1  H24A14907   5.623  -0.139   5.405  0.2230 -0.6684 -0.1281
  117CHL1  H24B14908   5.516  -0.272   5.471 -2.3988 -0.2323 -1.5449
  117CHL1   C2514909   5.427  -0.161   5.300 -0.2830  0.7421 -0.0234
  117CHL1   H2514910   5.407  -0.053   5.290 -1.0335  0.4852 -1.6098
  117CHL1   C2614911   5.508  -0.212   5.181  0.3063 -0.0293  0.2690
  117CHL1  H26A14912   5.435  -0.202   5.098  0.1501 -2.9841 -0.0349
  117CHL1  H26B14913   5.608  -0.170   5.156  0.6270  0.1228  1.7157
  117CHL1  H26C14914   5.522  -0.321   5.195  2.0445  0.2202  0.7742
  117CHL1   C2714915   5.289  -0.237   5.314  0.2523  0.8417 -0.5272
  117CHL1  H27A14916   5.226  -0.193   5.394  0.7692 -0.9854  0.9770
  117CHL1  H27B14917   5.229  -0.250   5.222 -0.1650  0.5465 -0.2152
  117CHL1  H27C14918   5.322  -0.339   5.343 -1.3894 -0.1582 -1.9943
  118CHL1    C314919   0.079   0.979   6.287  0.2422  0.4443 -0.9481
  118CHL1    H314920   0.091   1.089   6.298 -0.6741  0.5351 -0.7236
  118CHL1    O314921   0.059   0.920   6.418  0.5037  0.2520  0.1355
  118CHL1   H3'14922   0.059   0.825   6.401  1.9096  0.3788 -0.7482
  118CHL1    C414923  -0.043   0.948   6.196 -0.0548 -0.2512  0.1394
  118CHL1   H4A14924  -0.060   0.838   6.195 -1.7743 -0.0335  1.0527
  118CHL1   H4B14925  -0.131   0.984   6.254 -0.0457  0.4360 -0.2555
  118CHL1    C514926  -0.015   1.026   6.071  0.4867  0.4814 -0.4878
  118CHL1    C614927  -0.094   1.133   6.032  0.7040  0.0714  0.0340
  118CHL1    H614928  -0.176   1.169   6.096  1.2624  2.7209 -0.6213
  118CHL1    C714929  -0.078   1.196   5.899  0.8359 -0.2560  0.1853
  118CHL1   H7A14930  -0.179   1.206   5.855 -0.2373 -1.1308  2.3364
  118CHL1   H7B14931  -0.033   1.297   5.912  0.2232  0.0705 -0.1606
  118CHL1    C814932   0.004   1.114   5.798  0.3604 -0.1616 -0.5018
  118CHL1    H814933  -0.047   1.024   5.758  0.2226 -0.0928 -0.4809
  118CHL1   C1414934   0.042   1.205   5.679  0.2159 -0.0964  0.3544
  118CHL1   H1414935   0.117   1.283   5.703  1.7673 -0.6477 -2.3399
  118CHL1   C1514936  -0.072   1.280   5.602  0.2031 -0.8492 -0.3860
  118CHL1  H15A14937  -0.164   1.218   5.594 -0.0888 -0.3462 -1.0542
  118CHL1  H15B14938  -0.088   1.373   5.660  1.0834  0.1260 -1.6473
  118CHL1   C1614939  -0.016   1.298   5.462 -0.4766  0.4234 -0.0616
  118CHL1  H16A14940  -0.085   1.233   5.403 -0.9452  0.2541  0.6681
  118CHL1  H16B14941  -0.019   1.403   5.426 -2.1080  0.5223  0.2921
  118CHL1   C1714942   0.126   1.231   5.458  0.5315 -0.9030 -0.5403
  118CHL1   H1714943   0.201   1.308   5.487 -0.0633 -0.6111  0.2820
  118CHL1   C1314944   0.115   1.127   5.571 -1.0882  0.1970  0.0999
  118CHL1   C1814945   0.040   1.003   5.520 -0.3579 -0.1892 -0.6753
  118CHL1  H18A14946  -0.050   1.033   5.462  0.2377  0.4239 -1.3014
  118CHL1  H18B14947   0.092   0.940   5.446 -2.8640 -1.9791 -1.0468
  118CHL1  H18C14948  -0.003   0.934   5.595  2.8133 -1.4335  0.1500
  118CHL1   C1214949   0.245   1.089   5.642 -0.4949 -0.1259 -0.2643
  118CHL1  H12A14950   0.307   1.032   5.570 -1.0932 -2.1831  0.7566
  118CHL1  H12B14951   0.304   1.180   5.667  1.2628 -0.6274 -2.3108
  118CHL1   C1114952   0.237   1.002   5.769  0.0233 -0.1686  0.8870
  118CHL1  H11A14953   0.189   0.907   5.735 -0.2224  0.1468  0.3347
  118CHL1  H11B14954   0.337   0.994   5.817 -0.0168  2.5184  1.5646
  118CHL1    C914955   0.131   1.065   5.866  0.2771  0.5250  0.0193
  118CHL1    H914956   0.175   1.161   5.901  0.9913 -0.6178  2.4628
  118CHL1   C1014957   0.104   0.976   5.991  0.6121  0.6337  0.6522
  118CHL1   C1914958   0.071   0.827   5.953  0.1544 -0.9990 -0.1925
  118CHL1  H19A14959   0.157   0.786   5.895  1.6359  2.6152 -0.8331
  118CHL1  H19B14960   0.074   0.773   6.050  2.2961  2.2843  1.7779
  118CHL1  H19C14961  -0.026   0.814   5.900  0.1921  0.3226 -0.6302
  118CHL1    C114962   0.229   0.985   6.081 -0.1124 -0.4119 -0.3078
  118CHL1   H1A14963   0.314   0.933   6.032  2.2991  1.5188  1.5272
  118CHL1   H1B14964   0.253   1.089   6.115 -1.4492 -0.4106  0.7203
  118CHL1    C214965   0.209   0.921   6.223 -0.2793  0.4926  0.5760
  118CHL1   H2A14966   0.295   0.939   6.290  0.1956  0.0251  0.1086
  118CHL1   H2B14967   0.205   0.810   6.221  1.8769  0.3752  0.2263
  118CHL1   C2014968   0.167   1.179   5.315  0.6615 -0.0646  0.0070
  118CHL1   H2014969   0.099   1.098   5.283  0.3177 -0.6874  2.1528
  118CHL1   C2114970   0.312   1.127   5.320  0.0851 -1.2236  0.6345
  118CHL1  H21A14971   0.359   1.125   5.219 -0.7426  1.7104  0.0702
  118CHL1  H21B14972   0.314   1.023   5.357 -0.1836 -0.7040  2.1777
  118CHL1  H21C14973   0.370   1.196   5.385 -1.4009  0.6430  0.0857
  118CHL1   C2214974   0.148   1.298   5.211  0.2154 -0.0612  0.4949
  118CHL1  H22A14975   0.045   1.339   5.217  0.3240  1.1711 -3.3570
  118CHL1  H22B14976   0.217   1.378   5.246 -2.4731  2.2140  1.0043
  118CHL1   C2314977   0.173   1.261   5.059  0.5361 -0.1461  1.0630
  118CHL1  H23A14978   0.273   1.213   5.055  0.7201  0.0308  2.9408
  118CHL1  H23B14979   0.095   1.187   5.030  0.2964  1.3995 -2.8352
  118CHL1   C2414980   0.154   1.380   4.968  0.1569  0.1667 -0.3376
  118CHL1  H24A14981   0.051   1.418   4.987  0.6424  1.2875  0.1622
  118CHL1  H24B14982   0.220   1.463   5.002  0.1656 -0.2882  0.7904
  118CHL1   C2514983   0.170   1.360   4.817 -1.0850 -0.0804 -0.4067
  118CHL1   H2514984   0.131   1.259   4.790  1.5168 -1.4821  0.6709
  118CHL1   C2614985   0.103   1.476   4.742 -0.5288  0.5583  0.3128
  118CHL1  H26A14986   0.120   1.462   4.633 -0.7186 -0.7535  0.4370
  118CHL1  H26B14987  -0.008   1.470   4.755 -0.7356 -2.8233 -1.8291
  118CHL1  H26C14988   0.142   1.575   4.775  1.3301 -0.4581  1.2758
  118CHL1   C2714989   0.319   1.370   4.776 -0.1809  0.3268 -0.2193
  118CHL1  H27A14990   0.362   1.469   4.804 -1.2178  0.8652 -0.5043
  118CHL1  H27B14991   0.378   1.281   4.810 -0.4277  0.6119  1.0159
  118CHL1  H27C14992   0.318   1.370   4.665  2.3226 -1.9383 -0.3670
  119CHL1    C314993   0.795   7.294   6.035 -0.3290 -0.6870 -0.1316
  119CHL1    H314994   0.738   7.222   5.974 -0.0416 -0.1883 -1.0053
  119CHL1    O314995   0.869   7.226   6.139  0.2426  0.3890  0.4128
  119CHL1   H3'14996   0.807   7.176   6.192 -1.2244  0.2119 -1.3506
  119CHL1    C414997   0.892   7.374   5.944  0.1357  0.1788 -0.6033
  119CHL1   H4A14998   0.955   7.439   6.008  0.0598 -2.2736  2.1732
  119CHL1   H4B14999   0.958   7.299   5.896  1.8867  0.6983  0.8967
  119CHL1    C515000   0.819   7.458   5.837  0.8357  0.3259 -0.5897
  119CHL1    C615001   0.836   7.447   5.709  0.5036  1.0424  0.4209
  119CHL1    H615002   0.912   7.375   5.674  0.1488 -0.3269  2.2941
  119CHL1    C715003   0.756   7.527   5.602 -0.6707  0.7695 -0.8780
  119CHL1   H7A15004   0.838   7.541   5.528  0.9151 -0.8254  0.4769
  119CHL1   H7B15005   0.677   7.465   5.553 -2.0080  1.9353 -0.2773
  119CHL1    C815006   0.693   7.655   5.650 -0.1259  0.4253 -0.2140
  119CHL1    H815007   0.774   7.728   5.672  2.5270 -2.0455 -1.1401
  119CHL1   C1415008   0.598   7.704   5.553  0.4029  0.0103 -0.0261
  119CHL1   H1415009   0.514   7.631   5.557 -1.6942  2.3102  2.3314
  119CHL1   C1515010   0.661   7.724   5.414 -0.6094 -0.4087 -0.3201
  119CHL1  H15A15011   0.759   7.773   5.431 -0.5075 -0.7695  0.1268
  119CHL1  H15B15012   0.670   7.632   5.353  1.9954 -0.5259  0.1082
  119CHL1   C1615013   0.567   7.831   5.347 -0.0893 -0.2681  0.8339
  119CHL1  H16A15014   0.629   7.920   5.326  2.1212 -1.9409 -0.1540
  119CHL1  H16B15015   0.510   7.797   5.258 -0.8898 -0.3280  1.3510
  119CHL1   C1715016   0.459   7.862   5.461 -0.3539 -0.2313 -1.0941
  119CHL1   H1715017   0.376   7.790   5.446 -1.5248  1.3057 -2.3488
  119CHL1   C1315018   0.525   7.827   5.595  0.3232  1.0355 -0.1623
  119CHL1   C1815019   0.625   7.943   5.612 -0.0212  0.0562  0.6960
  119CHL1  H18A15020   0.699   7.927   5.693 -0.0589  0.8483  0.8891
  119CHL1  H18B15021   0.676   7.979   5.521  0.7740  2.7859  2.1287
  119CHL1  H18C15022   0.559   8.025   5.649 -1.0927 -0.7884  0.7221
  119CHL1   C1215023   0.437   7.793   5.713 -0.3975  0.8845 -0.3196
  119CHL1  H12A15024   0.398   7.891   5.750 -1.1228 -0.1333  1.7733
  119CHL1  H12B15025   0.357   7.721   5.684  0.1844  0.0891  0.0165
  119CHL1   C1115026   0.520   7.733   5.829 -0.1250 -0.3665 -0.0748
  119CHL1  H11A15027   0.578   7.820   5.868 -0.1204  0.9906 -2.8553
  119CHL1  H11B15028   0.463   7.696   5.917  1.2068 -0.4040  0.8058
  119CHL1    C915029   0.619   7.617   5.786  0.5272 -0.6121  0.6190
  119CHL1    H915030   0.550   7.534   5.761  0.1746 -0.6136  1.5672
  119CHL1   C1015031   0.707   7.552   5.895 -0.1114  1.0943  0.0494
  119CHL1   C1915032   0.781   7.670   5.975 -0.1591  0.7689 -0.6178
  119CHL1  H19A15033   0.833   7.735   5.901  0.1775  0.7776 -0.3788
  119CHL1  H19B15034   0.709   7.730   6.035  1.0272  2.1734 -0.5412
  119CHL1  H19C15035   0.857   7.632   6.047 -0.7320  1.2733  0.2744
  119CHL1    C115036   0.621   7.474   6.004  0.1095  0.4882  0.2844
  119CHL1   H1A15037   0.575   7.553   6.068  1.0365  1.0347  0.2911
  119CHL1   H1B15038   0.538   7.423   5.950  1.1665 -1.5588  0.5304
  119CHL1    C215039   0.699   7.385   6.099 -0.1514 -0.3385 -0.3117
  119CHL1   H2A15040   0.627   7.323   6.158  0.4282  1.2904  2.2686
  119CHL1   H2B15041   0.752   7.443   6.178 -1.1375 -0.9961  0.8772
  119CHL1   C2015042   0.394   7.993   5.441 -0.1888 -0.0914 -0.0358
  119CHL1   H2015043   0.473   8.072   5.441  0.8857 -1.1443  0.3185
  119CHL1   C2115044   0.294   8.036   5.556 -0.1772 -0.1855 -0.6966
  119CHL1  H21A15045   0.225   8.115   5.523  0.9187  0.2062 -2.1693
  119CHL1  H21B15046   0.347   8.072   5.648 -1.4897  1.3055 -0.4876
  119CHL1  H21C15047   0.230   7.950   5.585  0.2348  0.5213  2.8675
  119CHL1   C2215048   0.322   7.999   5.299 -0.2462 -0.2691 -0.0722
  119CHL1  H22A15049   0.407   7.991   5.227  0.9348 -2.0713  1.4067
  119CHL1  H22B15050   0.254   7.912   5.285  1.9930 -2.4089  1.3743
  119CHL1   C2315051   0.248   8.119   5.258 -0.0467 -0.8129 -0.4560
  119CHL1  H23A15052   0.211   8.101   5.155  1.6689  0.3721 -1.3298
  119CHL1  H23B15053   0.161   8.145   5.322 -0.1359  1.3288 -1.3371
  119CHL1   C2415054   0.337   8.243   5.248 -0.0224  0.9049 -0.1363
  119CHL1  H24A15055   0.381   8.250   5.350 -0.1393 -1.8859  0.1829
  119CHL1  H24B15056   0.413   8.227   5.168 -1.9145 -2.0672 -1.5056
  119CHL1   C2515057   0.266   8.369   5.210  0.0279  0.2814  0.3854
  119CHL1   H2515058   0.347   8.446   5.207  1.8267 -1.5217 -2.6624
  119CHL1   C2615059   0.209   8.346   5.070  0.4459  0.0551 -0.7370
  119CHL1  H26A15060   0.283   8.314   4.994 -0.5083 -2.3700 -0.7357
  119CHL1  H26B15061   0.130   8.268   5.077  1.7575 -1.1532  1.4527
  119CHL1  H26C15062   0.173   8.440   5.023 -0.5636  0.4427  0.7430
  119CHL1   C2715063   0.160   8.412   5.316 -0.8548 -0.4579  0.2282
  119CHL1  H27A15064   0.078   8.339   5.336 -0.0388 -1.5666 -0.3278
  119CHL1  H27B15065   0.218   8.424   5.410  0.3812 -2.0478 -0.2690
  119CHL1  H27C15066   0.131   8.514   5.285 -1.0718 -0.3247  0.8583
  120CHL1    C315067   6.633   0.138   6.321 -0.1298  0.9149 -0.4179
  120CHL1    H315068   6.742   0.117   6.312 -0.3718 -0.0387 -1.4346
  120CHL1    O315069   6.616   0.175   6.458  0.1908 -0.5675 -0.7835
  120CHL1   H3'15070   6.650   0.106   6.516 -0.9039 -1.0338 -0.6829
  120CHL1    C415071   6.598   0.237   6.209 -0.3101  0.6322  0.4855
  120CHL1   H4A15072   6.496   0.280   6.207  0.8725  3.7403 -1.0756
  120CHL1   H4B15073   6.659   0.328   6.231 -1.2573  1.2148  0.7863
  120CHL1    C515074   6.633   0.174   6.072  0.5935  0.1585 -0.5002
  120CHL1    C615075   6.720   0.232   5.984 -0.1620 -0.3242 -0.2164
  120CHL1    H615076   6.771   0.323   6.019  4.0778 -2.6473  0.3275
  120CHL1    C715077   6.749   0.176   5.849  0.0576 -0.2901  0.8033
  120CHL1   H7A15078   6.774   0.263   5.784 -1.6129  1.2566  2.1145
  120CHL1   H7B15079   6.840   0.113   5.860  0.3566  0.2904  1.7267
  120CHL1    C815080   6.641   0.072   5.799 -0.0692  0.6316  0.2326
  120CHL1    H815081   6.549   0.129   5.775  0.4575  1.1740 -0.5167
  120CHL1   C1415082   6.691  -0.004   5.674  0.3348 -0.1159 -0.4887
  120CHL1   H1415083   6.786  -0.054   5.704 -0.6449 -2.0412 -0.4012
  120CHL1   C1515084   6.724   0.086   5.551  0.6735 -0.0378 -0.6176
  120CHL1  H15A15085   6.643   0.161   5.540  0.1932 -0.6760 -1.6303
  120CHL1  H15B15086   6.813   0.142   5.587 -0.2083 -0.1513  1.9393
  120CHL1   C1615087   6.722  -0.013   5.440  0.0382  0.0981  0.6825
  120CHL1  H16A15088   6.643   0.017   5.368  0.2755 -1.5791 -0.3226
  120CHL1  H16B15089   6.818  -0.031   5.387 -0.9612 -1.0321 -0.8255
  120CHL1   C1715090   6.666  -0.146   5.498  0.3868  0.0462 -1.2622
  120CHL1   H1715091   6.761  -0.199   5.522  2.1752  3.4834 -0.1174
  120CHL1   C1315092   6.594  -0.111   5.631  0.5958  0.8586  0.7546
  120CHL1   C1815093   6.454  -0.056   5.586  0.7613  0.7853 -0.9928
  120CHL1  H18A15094   6.465   0.016   5.502  0.1479 -0.8658 -2.5553
  120CHL1  H18B15095   6.382  -0.134   5.552  1.3322  0.1283 -0.7338
  120CHL1  H18C15096   6.409   0.010   5.663  0.7313  0.6328 -0.8778
  120CHL1   C1215097   6.573  -0.213   5.736 -0.7229 -0.1789  0.3994
  120CHL1  H12A15098   6.496  -0.288   5.710 -2.6787  1.2322  1.8392
  120CHL1  H12B15099   6.674  -0.259   5.743  0.0117 -0.1761 -5.2888
  120CHL1   C1115100   6.526  -0.153   5.867  0.8521 -0.1926 -0.0106
  120CHL1  H11A15101   6.417  -0.144   5.850  1.1056  1.0178 -1.1357
  120CHL1  H11B15102   6.531  -0.224   5.952  0.1383  1.3119  1.3507
  120CHL1    C915103   6.608  -0.027   5.914 -0.3409  0.3730  0.1296
  120CHL1    H915104   6.706  -0.077   5.926  0.4808  1.6851 -0.8757
  120CHL1   C1015105   6.564   0.037   6.044  0.3858 -0.0824 -0.8530
  120CHL1   C1915106   6.412   0.065   6.034 -0.8476 -0.6411 -0.4951
  120CHL1  H19A15107   6.361  -0.033   6.044 -2.2812  0.2611  2.1869
  120CHL1  H19B15108   6.371   0.131   6.114 -0.2764 -0.1710 -0.5862
  120CHL1  H19C15109   6.383   0.100   5.933  0.1271 -0.1996 -0.6321
  120CHL1    C115110   6.590  -0.054   6.173  0.0675 -0.0268  0.6382
  120CHL1   H1A15111   6.531  -0.145   6.149  0.6411  0.0472 -1.2852
  120CHL1   H1B15112   6.697  -0.085   6.171 -0.0803 -0.6109  1.3891
  120CHL1    C215113   6.553   0.016   6.302 -0.7172 -0.3587 -0.3311
  120CHL1   H2A15114   6.560  -0.061   6.381  0.6824 -0.2533 -0.3247
  120CHL1   H2B15115   6.447   0.049   6.299 -1.0735 -1.2865  1.2490
  120CHL1   C2015116   6.587  -0.221   5.392 -0.6760  0.0479 -0.0947
  120CHL1   H2015117   6.483  -0.184   5.377 -0.7371  0.5901  1.5478
  120CHL1   C2115118   6.565  -0.367   5.428  0.3651  0.2730  0.3721
  120CHL1  H21A15119   6.661  -0.424   5.430 -0.3101 -0.9032  0.3623
  120CHL1  H21B15120   6.500  -0.414   5.352  3.0995  1.1310 -2.7009
  120CHL1  H21C15121   6.520  -0.379   5.529  1.8906  0.8632  1.1630
  120CHL1   C2215122   6.658  -0.223   5.255  0.3294  0.1139  1.5939
  120CHL1  H22A15123   6.675  -0.118   5.222 -1.2419 -0.2573 -0.6919
  120CHL1  H22B15124   6.750  -0.285   5.261 -0.2883 -0.7934  2.0713
  120CHL1   C2315125   6.567  -0.277   5.143  0.0535  0.1966 -0.3438
  120CHL1  H23A15126   6.637  -0.272   5.057  0.6006 -1.1774 -0.0062
  120CHL1  H23B15127   6.549  -0.386   5.149 -2.2431  0.4563 -1.4104
  120CHL1   C2415128   6.435  -0.213   5.118  1.0507 -0.2657 -0.4405
  120CHL1  H24A15129   6.363  -0.245   5.196  2.2037 -1.5366  0.1599
  120CHL1  H24B15130   6.449  -0.103   5.127 -1.0609  0.0490 -0.6288
  120CHL1   C2515131   6.377  -0.249   4.978  0.0373 -0.2491 -0.2093
  120CHL1   H2515132   6.451  -0.297   4.910 -0.0599 -1.3131  0.4164
  120CHL1   C2615133   6.269  -0.361   4.997 -0.2906  0.0107  1.2380
  120CHL1  H26A15134   6.313  -0.446   5.055  1.4747  1.1494  1.6813
  120CHL1  H26B15135   6.190  -0.321   5.064 -1.4654 -1.7067  0.9186
  120CHL1  H26C15136   6.232  -0.393   4.897 -1.8567 -1.2005  2.1529
  120CHL1   C2715137   6.313  -0.121   4.912  0.6356 -0.4710  0.1463
  120CHL1  H27A15138   6.258  -0.140   4.817  2.0814 -1.2746 -0.5631
  120CHL1  H27B15139   6.237  -0.074   4.978  0.5009  0.2544 -0.5198
  120CHL1  H27C15140   6.388  -0.044   4.884  0.7086 -0.9018 -0.8970
  121CHL1    C315141   5.970   4.308   3.846 -0.4668  0.0881  0.2701
  121CHL1    H315142   6.076   4.317   3.876 -0.5211 -1.0220  0.8470
  121CHL1    O315143   5.960   4.352   3.708 -0.0986 -0.2197  0.0829
  121CHL1   H3'15144   6.016   4.296   3.653  0.8529  0.7791  0.0093
  121CHL1    C415145   5.922   4.162   3.857  0.4770 -0.1415 -0.3249
  121CHL1   H4A15146   5.821   4.162   3.810 -0.1165  0.1999  0.9167
  121CHL1   H4B15147   5.989   4.099   3.795 -1.2174 -0.6139 -1.7719
  121CHL1    C515148   5.912   4.114   4.003  0.7719  0.1039  0.3064
  121CHL1    C615149   5.963   4.004   4.042 -0.1559 -0.1889  0.1365
  121CHL1    H615150   5.998   3.940   3.960  1.3253  3.3882 -2.2934
  121CHL1    C715151   5.939   3.954   4.184 -0.2905 -0.1553 -0.5396
  121CHL1   H7A15152   5.904   3.850   4.168  0.0643  0.0336 -3.1251
  121CHL1   H7B15153   6.037   3.967   4.234 -0.3524  4.7728 -1.1784
  121CHL1    C815154   5.829   4.022   4.264  0.2446  0.4114 -0.2194
  121CHL1    H815155   5.730   3.999   4.220 -0.1826  2.4264 -0.4411
  121CHL1   C1415156   5.849   3.988   4.414  0.4478 -0.2228  0.1300
  121CHL1   H1415157   5.949   4.031   4.431  0.4133  0.6874 -1.7583
  121CHL1   C1515158   5.856   3.845   4.447  0.4333  0.1899 -0.3196
  121CHL1  H15A15159   5.763   3.808   4.400 -0.8530  1.6861  0.9300
  121CHL1  H15B15160   5.949   3.793   4.418  1.9458  1.8258  1.3115
  121CHL1   C1615161   5.843   3.841   4.599  0.2968  0.3045 -0.7326
  121CHL1  H16A15162   5.759   3.777   4.634  3.0029 -2.3152  1.5340
  121CHL1  H16B15163   5.936   3.811   4.652  0.6874  0.3989 -1.3519
  121CHL1   C1715164   5.804   3.985   4.643 -0.0088 -0.4177 -0.3299
  121CHL1   H1715165   5.897   4.040   4.669  0.2615 -1.8436  2.1128
  121CHL1   C1315166   5.748   4.060   4.516 -0.3673  0.1705  1.1711
  121CHL1   C1815167   5.601   4.010   4.480 -0.3971  0.0784 -0.1967
  121CHL1  H18A15168   5.532   4.066   4.547 -0.1214 -0.4699  0.5644
  121CHL1  H18B15169   5.579   4.024   4.372 -0.7449  1.6837  0.0458
  121CHL1  H18C15170   5.601   3.901   4.500  1.2390  0.1930  0.6249
  121CHL1   C1215171   5.777   4.206   4.502  0.3252  0.2125 -0.1162
  121CHL1  H12A15172   5.719   4.270   4.572  0.7789  0.8859 -0.3477
  121CHL1  H12B15173   5.881   4.226   4.536 -0.4707  1.6335  1.6507
  121CHL1   C1115174   5.760   4.259   4.360 -0.4980  1.0712 -0.1199
  121CHL1  H11A15175   5.651   4.243   4.345 -0.2793 -2.8064  1.3605
  121CHL1  H11B15176   5.784   4.368   4.361 -0.7348  1.1861 -2.2331
  121CHL1    C915177   5.843   4.175   4.251 -0.4220 -0.6091  0.0246
  121CHL1    H915178   5.951   4.198   4.263 -0.5719  0.7634 -0.9449
  121CHL1   C1015179   5.831   4.209   4.100  0.1390 -0.6057 -0.1229
  121CHL1   C1915180   5.677   4.205   4.067 -0.4053  0.3925  0.6038
  121CHL1  H19A15181   5.667   4.235   3.961  0.4312 -0.0129  0.4027
  121CHL1  H19B15182   5.637   4.101   4.073  1.0657 -0.1087  2.6758
  121CHL1  H19C15183   5.605   4.274   4.116 -3.0385 -0.6793 -1.4921
  121CHL1    C115184   5.887   4.348   4.080 -0.1472 -0.1534 -0.1398
  121CHL1   H1A15185   5.823   4.425   4.129 -0.9203 -0.3598 -0.8031
  121CHL1   H1B15186   5.984   4.361   4.132 -0.3709  0.0307  0.2390
  121CHL1    C215187   5.888   4.402   3.939  0.4709  0.1736  0.4510
  121CHL1   H2A15188   5.929   4.505   3.926  0.4755  0.1083 -0.0930
  121CHL1   H2B15189   5.786   4.409   3.893  1.3233  2.8277 -1.3207
  121CHL1   C2015190   5.708   3.979   4.766  0.1568  0.3291 -0.3504
  121CHL1   H2015191   5.618   3.929   4.723  0.8317 -0.8712 -0.4196
  121CHL1   C2115192   5.658   4.119   4.813 -0.2214  0.5081  0.1033
  121CHL1  H21A15193   5.618   4.184   4.733  0.7988 -0.6932 -1.4247
  121CHL1  H21B15194   5.737   4.179   4.864  0.3901  0.8329 -1.2045
  121CHL1  H21C15195   5.578   4.106   4.890  0.6296  0.1824  0.9587
  121CHL1   C2215196   5.774   3.898   4.885  0.1022  0.4001  0.7048
  121CHL1  H22A15197   5.803   3.795   4.855 -1.1295  0.3834 -0.5239
  121CHL1  H22B15198   5.863   3.954   4.921 -0.4621  1.8082 -0.0075
  121CHL1   C2315199   5.678   3.884   5.003 -0.3304  0.4137 -0.3554
  121CHL1  H23A15200   5.647   3.984   5.041  3.3409  1.7851 -0.6047
  121CHL1  H23B15201   5.590   3.825   4.971  0.5629  0.8733 -4.0341
  121CHL1   C2415202   5.751   3.812   5.120 -0.0111 -0.0373 -0.0933
  121CHL1  H24A15203   5.799   3.724   5.073 -0.4342  0.1860 -0.9808
  121CHL1  H24B15204   5.832   3.875   5.162 -0.0301  0.7734 -1.2092
  121CHL1   C2515205   5.657   3.767   5.241 -0.6914  1.0727 -0.5502
  121CHL1   H2515206   5.594   3.856   5.265 -0.6023  0.5370  1.9576
  121CHL1   C2615207   5.582   3.638   5.196 -0.4824  0.9021 -0.3712
  121CHL1  H26A15208   5.651   3.566   5.147 -0.9266 -1.4583  2.1843
  121CHL1  H26B15209   5.533   3.585   5.281 -0.2854 -1.1394 -1.4678
  121CHL1  H26C15210   5.499   3.668   5.128 -1.6176  1.3288  1.1377
  121CHL1   C2715211   5.735   3.743   5.369 -0.1323  0.6956  0.4255
  121CHL1  H27A15212   5.672   3.753   5.460 -1.1963 -0.6316 -0.1367
  121CHL1  H27B15213   5.790   3.646   5.367 -0.9421  0.1855  1.5384
  121CHL1  H27C15214   5.801   3.832   5.378  1.0952  0.1906 -2.5526
  122CHL1    C315215   4.763   4.888   3.444  0.3476  0.6153 -0.4040
  122CHL1    H315216   4.859   4.942   3.461  0.1269  1.2813 -1.2219
  122CHL1    O315217   4.727   4.911   3.307 -0.0938 -1.1542  0.1107
  122CHL1   H3'15218   4.635   4.882   3.309  0.6262 -3.6951 -0.0445
  122CHL1    C415219   4.788   4.731   3.474 -0.6548  0.0650 -0.4844
  122CHL1   H4A15220   4.692   4.685   3.443 -0.6807 -0.8201  0.8263
  122CHL1   H4B15221   4.864   4.690   3.405  1.3793 -1.2668  2.3666
  122CHL1    C515222   4.816   4.696   3.620  0.5750 -0.1817  0.4946
  122CHL1    C615223   4.909   4.611   3.667  0.0672  0.0097  0.2574
  122CHL1    H615224   4.963   4.557   3.587  0.0888  2.4987 -1.5377
  122CHL1    C715225   4.937   4.588   3.808 -0.5171  0.5196  0.8632
  122CHL1   H7A15226   4.949   4.479   3.827  2.3040  0.0800 -2.4330
  122CHL1   H7B15227   5.032   4.642   3.828 -1.3315  1.1743  3.3508
  122CHL1    C815228   4.832   4.644   3.903  1.1372  0.3446 -0.3517
  122CHL1    H815229   4.747   4.573   3.905  0.0653  1.5380  2.4237
  122CHL1   C1415230   4.892   4.655   4.047  0.2258 -0.4602 -0.3673
  122CHL1   H1415231   4.948   4.750   4.032 -0.6321  0.0208 -0.6303
  122CHL1   C1515232   4.992   4.554   4.106  1.2227 -0.6417 -0.1293
  122CHL1  H15A15233   4.949   4.456   4.078  0.0325  0.1253 -1.0570
  122CHL1  H15B15234   5.093   4.586   4.071  0.4126  3.8450  0.9564
  122CHL1   C1615235   4.988   4.580   4.259 -0.0712 -0.3830 -0.7135
  122CHL1  H16A15236   4.962   4.489   4.319  4.8519  0.0262  2.6282
  122CHL1  H16B15237   5.089   4.604   4.298 -1.3569  1.1353  1.9721
  122CHL1   C1715238   4.892   4.699   4.278 -0.3623  0.4858  0.2682
  122CHL1   H1715239   4.948   4.794   4.269  0.5688  0.0691  1.4693
  122CHL1   C1315240   4.794   4.690   4.154 -0.8329 -0.0686 -0.8616
  122CHL1   C1815241   4.684   4.582   4.164 -0.2770  0.6316 -0.5928
  122CHL1  H18A15242   4.616   4.574   4.076 -1.6218  1.1940  0.3697
  122CHL1  H18B15243   4.729   4.480   4.158 -1.6021  0.0971 -3.2138
  122CHL1  H18C15244   4.624   4.605   4.254  0.1203 -1.8146  0.3875
  122CHL1   C1215245   4.734   4.827   4.113  0.3686 -0.3521  0.1291
  122CHL1  H12A15246   4.664   4.862   4.191 -0.4364  0.6661 -1.0262
  122CHL1  H12B15247   4.818   4.900   4.114 -1.4414  1.8442 -0.3915
  122CHL1   C1115248   4.671   4.830   3.975  0.2894  0.5920 -0.1559
  122CHL1  H11A15249   4.583   4.762   3.972  1.0178 -0.3680 -2.3028
  122CHL1  H11B15250   4.627   4.927   3.946  0.6295  0.9312  0.4638
  122CHL1    C915251   4.773   4.773   3.863 -0.4873  0.7037 -0.5227
  122CHL1    H915252   4.853   4.849   3.873  0.5112 -0.5239  1.8107
  122CHL1   C1015253   4.720   4.773   3.716 -0.4419 -0.1691 -0.5216
  122CHL1   C1915254   4.582   4.709   3.716  0.0843 -0.0097 -0.5961
  122CHL1  H19A15255   4.532   4.731   3.620  1.7518  1.2034 -1.2403
  122CHL1  H19B15256   4.578   4.599   3.729 -2.5443  0.1527  0.6473
  122CHL1  H19C15257   4.513   4.755   3.790 -0.5221  1.3790 -1.9746
  122CHL1    C115258   4.692   4.922   3.678  0.3540  0.1507 -0.2575
  122CHL1   H1A15259   4.606   4.955   3.742  0.0971 -1.5597  0.3165
  122CHL1   H1B15260   4.774   4.985   3.719 -0.0263  2.9650 -3.3808
  122CHL1    C215261   4.661   4.959   3.536 -0.9552 -0.2171 -0.2764
  122CHL1   H2A15262   4.667   5.067   3.511 -1.3870 -0.3623 -1.0538
  122CHL1   H2B15263   4.563   4.915   3.506 -1.5350 -0.4759  1.8362
  122CHL1   C2015264   4.822   4.690   4.416  0.3873 -0.1044  0.0551
  122CHL1   H2015265   4.765   4.595   4.419 -2.3839  1.4868  2.6388
  122CHL1   C2115266   4.727   4.809   4.440  0.4162  0.1416  0.3790
  122CHL1  H21A15267   4.634   4.801   4.380 -0.4836  1.7437  1.4753
  122CHL1  H21B15268   4.783   4.903   4.420  0.0731 -0.3557 -3.6002
  122CHL1  H21C15269   4.687   4.811   4.544  0.7873 -0.4728  0.5376
  122CHL1   C2215270   4.931   4.684   4.531  1.3108 -0.5410  0.3669
  122CHL1  H22A15271   5.016   4.617   4.505  1.5974  0.6310 -1.9942
  122CHL1  H22B15272   4.956   4.792   4.534 -2.7530  0.5653  0.3098
  122CHL1   C2315273   4.882   4.644   4.666 -0.1182  0.2671  0.0646
  122CHL1  H23A15274   4.801   4.707   4.709  1.3219  1.9418  0.4368
  122CHL1  H23B15275   4.827   4.550   4.646 -1.9845  1.1368  0.8753
  122CHL1   C2415276   4.996   4.629   4.767  0.2934 -0.6399  0.1935
  122CHL1  H24A15277   5.080   4.583   4.710  0.0888 -0.7348 -0.0305
  122CHL1  H24B15278   5.032   4.727   4.806  1.7536 -1.0759  0.0189
  122CHL1   C2515279   4.972   4.539   4.890  0.0315 -0.2661  0.4088
  122CHL1   H2515280   4.907   4.456   4.855  1.4906 -0.8743 -0.9591
  122CHL1   C2615281   5.095   4.459   4.938 -0.6734  0.2545  0.3174
  122CHL1  H26A15282   5.154   4.410   4.857 -1.2039  1.5820 -0.9049
  122CHL1  H26B15283   5.158   4.530   4.996  0.1919  0.8949 -1.3525
  122CHL1  H26C15284   5.059   4.373   4.999  0.4827 -1.3410 -1.1305
  122CHL1   C2715285   4.904   4.619   5.004 -0.6319  0.1889  0.0404
  122CHL1  H27A15286   4.907   4.559   5.097 -0.4016  1.1272  0.6435
  122CHL1  H27B15287   4.949   4.719   5.022 -0.4086 -0.0470  0.7937
  122CHL1  H27C15288   4.796   4.621   4.979 -0.3061  0.1128 -1.4608
  123CHL1    C315289   6.508   3.250   3.388 -0.2343 -0.0243 -0.2706
  123CHL1    H315290   6.443   3.337   3.410  0.0190  0.1125 -0.0456
  123CHL1    O315291   6.506   3.246   3.246 -0.6298  0.5160 -0.6609
  123CHL1   H3'15292   6.581   3.189   3.228 -0.2504 -0.3837  3.0376
  123CHL1    C415293   6.644   3.276   3.436 -0.0662  0.3053  0.0389
  123CHL1   H4A15294   6.716   3.197   3.405  1.1698  0.7542  1.6478
  123CHL1   H4B15295   6.692   3.364   3.388  0.9129 -0.1603  0.1237
  123CHL1    C515296   6.635   3.266   3.590  0.7032 -0.9166 -0.2114
  123CHL1    C615297   6.679   3.377   3.663  0.5463  0.1972  0.0248
  123CHL1    H615298   6.718   3.467   3.613 -1.3996  2.4300  2.2952
  123CHL1    C715299   6.668   3.394   3.818  0.2705 -0.4995  0.1278
  123CHL1   H7A15300   6.757   3.448   3.857  1.1695 -2.5187  0.9691
  123CHL1   H7B15301   6.573   3.439   3.853  0.7097 -1.6654  3.0604
  123CHL1    C815302   6.646   3.254   3.884  0.2223 -0.4700 -0.1039
  123CHL1    H815303   6.744   3.203   3.881 -0.2524 -1.5685  1.3844
  123CHL1   C1415304   6.594   3.278   4.026 -0.8180  0.3417 -0.1406
  123CHL1   H1415305   6.492   3.320   4.016 -0.3498  1.1143 -2.2229
  123CHL1   C1515306   6.664   3.369   4.120 -0.2685 -0.3967 -0.4590
  123CHL1  H15A15307   6.772   3.364   4.095 -0.2586  0.4785 -0.5970
  123CHL1  H15B15308   6.647   3.476   4.097  0.7482  0.1426  1.1393
  123CHL1   C1615309   6.636   3.331   4.265 -0.6559 -0.4625 -0.4077
  123CHL1  H16A15310   6.737   3.308   4.306 -0.2356  3.0178  0.8640
  123CHL1  H16B15311   6.591   3.419   4.317  1.3801  1.2240 -1.3428
  123CHL1   C1715312   6.542   3.202   4.252  0.3491 -0.5926  0.2754
  123CHL1   H1715313   6.440   3.244   4.239  0.4228  0.0244  1.5407
  123CHL1   C1315314   6.575   3.147   4.108 -0.4732  0.0305 -0.2576
  123CHL1   C1815315   6.703   3.064   4.116 -0.3619 -0.1804  0.0960
  123CHL1  H18A15316   6.788   3.115   4.167  0.1623  2.4743 -3.1202
  123CHL1  H18B15317   6.697   2.962   4.160  3.1686 -0.3357  0.5211
  123CHL1  H18C15318   6.740   3.045   4.013 -0.6688  1.5262 -0.3511
  123CHL1   C1215319   6.467   3.064   4.040  0.3493 -0.2233  0.6881
  123CHL1  H12A15320   6.455   2.967   4.093  0.0719  0.3045  1.6184
  123CHL1  H12B15321   6.368   3.115   4.039  0.5630  0.2225 -0.6925
  123CHL1   C1115322   6.501   3.038   3.891 -0.1111  0.3521  0.5485
  123CHL1  H11A15323   6.584   2.965   3.883 -0.7765 -0.4020  0.3963
  123CHL1  H11B15324   6.421   2.989   3.832 -0.0032  0.9932 -0.1501
  123CHL1    C915325   6.538   3.171   3.817 -0.3343  0.4150  0.5791
  123CHL1    H915326   6.450   3.239   3.814  0.5102  1.5165 -0.8581
  123CHL1   C1015327   6.572   3.144   3.663 -0.6729  0.3914  0.0121
  123CHL1   C1915328   6.675   3.032   3.639 -1.1981  0.7836 -0.0602
  123CHL1  H19A15329   6.632   2.937   3.675 -1.5974  0.5789 -1.0478
  123CHL1  H19B15330   6.686   3.012   3.531 -1.0542 -2.6937  0.5028
  123CHL1  H19C15331   6.773   3.053   3.688 -0.4632  0.9423 -1.5561
  123CHL1    C115332   6.442   3.114   3.592  0.3004 -0.3158  0.1290
  123CHL1   H1A15333   6.400   3.021   3.636  1.0282 -0.8749 -0.3344
  123CHL1   H1B15334   6.368   3.187   3.632 -0.5331 -1.6692  1.1279
  123CHL1    C215335   6.440   3.123   3.440 -0.0127  0.1669 -0.2988
  123CHL1   H2A15336   6.341   3.106   3.392  0.2880  0.9414 -1.2140
  123CHL1   H2B15337   6.509   3.045   3.401  1.6767  0.8622  1.1731
  123CHL1   C2015338   6.540   3.120   4.379  0.0353 -0.5695  0.1496
  123CHL1   H2015339   6.645   3.114   4.414 -0.1929 -1.5128  0.7222
  123CHL1   C2115340   6.484   2.975   4.368 -0.0251 -0.3191 -0.2904
  123CHL1  H21A15341   6.476   2.925   4.466  1.7449  0.0410  0.0901
  123CHL1  H21B15342   6.544   2.911   4.299 -0.2412  1.3112 -2.0996
  123CHL1  H21C15343   6.378   2.986   4.339  0.0695  1.1830 -0.1437
  123CHL1   C2215344   6.468   3.200   4.490 -0.5656 -0.6000  0.5575
  123CHL1  H22A15345   6.528   3.290   4.517 -1.2637 -0.2708  1.0578
  123CHL1  H22B15346   6.371   3.242   4.454  0.7260  0.3382 -2.0856
  123CHL1   C2315347   6.435   3.120   4.619 -0.0758  0.7446  0.1811
  123CHL1  H23A15348   6.353   3.169   4.674 -1.7696  0.0997 -1.6601
  123CHL1  H23B15349   6.381   3.028   4.587  1.4211 -1.1100  2.5603
  123CHL1   C2415350   6.561   3.085   4.699  0.0052 -0.0764  0.1873
  123CHL1  H24A15351   6.610   3.014   4.629  0.9640 -0.6755  1.4382
  123CHL1  H24B15352   6.630   3.168   4.723  0.5105 -0.4619  0.0902
  123CHL1   C2515353   6.514   3.006   4.831 -0.2171 -0.6588  0.2098
  123CHL1   H2515354   6.451   3.073   4.894  0.6862  0.1711  0.2627
  123CHL1   C2615355   6.437   2.886   4.797  0.1970  1.2464 -0.2441
  123CHL1  H26A15356   6.432   2.814   4.881 -0.7286  0.7121 -0.7333
  123CHL1  H26B15357   6.331   2.918   4.783 -0.4982 -1.2570 -1.3034
  123CHL1  H26C15358   6.463   2.838   4.700 -1.3074  0.2944 -0.2080
  123CHL1   C2715359   6.638   2.977   4.921  0.1487  0.5095  0.7336
  123CHL1  H27A15360   6.711   2.927   4.854 -1.5089  1.3649 -1.8951
  123CHL1  H27B15361   6.690   3.071   4.950  2.2252  0.0305 -1.1811
  123CHL1  H27C15362   6.605   2.917   5.008 -0.5934 -1.0587 -0.5665
  124CHL1    C315363   5.210   6.401   3.510 -0.1452  0.1169  1.0775
  124CHL1    H315364   5.305   6.344   3.521  1.6689  2.4882 -1.1215
  124CHL1    O315365   5.204   6.436   3.369 -0.3882 -0.0069  0.3704
  124CHL1   H3'15366   5.150   6.514   3.364 -0.8968 -0.1510  2.6089
  124CHL1    C415367   5.077   6.328   3.552  0.2052 -0.0221  0.0930
  124CHL1   H4A15368   4.988   6.391   3.530  1.1729  0.9352 -1.2620
  124CHL1   H4B15369   5.075   6.245   3.479  1.9884  0.8165 -0.9723
  124CHL1    C515370   5.082   6.290   3.703  0.2556  0.8222 -0.8199
  124CHL1    C615371   5.073   6.162   3.736  0.3018  0.3637 -0.1490
  124CHL1    H615372   5.044   6.091   3.657 -0.5546  1.5416 -0.9288
  124CHL1    C715373   5.081   6.105   3.875 -0.0030  0.1845 -0.1371
  124CHL1   H7A15374   5.009   6.024   3.899  0.3267 -0.9722 -2.6861
  124CHL1   H7B15375   5.181   6.059   3.888 -0.1985 -0.5120 -0.9405
  124CHL1    C815376   5.074   6.215   3.985 -0.5785  0.1809 -0.6909
  124CHL1    H815377   4.974   6.262   3.997 -0.7044 -0.3517  0.4325
  124CHL1   C1415378   5.135   6.162   4.119 -0.1555 -0.1008 -0.0519
  124CHL1   H1415379   5.244   6.149   4.100  0.8265  3.4684  2.2371
  124CHL1   C1515380   5.087   6.026   4.179 -0.2231 -0.5805  0.1907
  124CHL1  H15A15381   4.976   6.023   4.179 -0.3829  2.0690 -0.8860
  124CHL1  H15B15382   5.117   5.932   4.128 -1.9781 -2.1377  1.8543
  124CHL1   C1615383   5.130   6.021   4.330  0.2762 -0.4817  0.5081
  124CHL1  H16A15384   5.035   6.009   4.386 -0.4303  0.4633 -0.4691
  124CHL1  H16B15385   5.200   5.936   4.347 -2.3476 -3.1315 -0.8826
  124CHL1   C1715386   5.197   6.164   4.360 -0.7330  0.4731  0.3909
  124CHL1   H1715387   5.304   6.153   4.332 -0.4084  5.2140 -0.9723
  124CHL1   C1315388   5.143   6.257   4.240  0.2094  0.2046 -0.7075
  124CHL1   C1815389   5.007   6.312   4.271 -0.4613 -0.5411 -0.1257
  124CHL1  H18A15390   4.961   6.363   4.184  1.6296  0.3584 -0.7809
  124CHL1  H18B15391   4.947   6.225   4.307 -0.9978  0.2405  0.9150
  124CHL1  H18C15392   4.996   6.382   4.356  0.5814 -2.3230  1.5868
  124CHL1   C1215393   5.235   6.372   4.193  0.5339 -0.3289  0.0452
  124CHL1  H12A15394   5.219   6.454   4.267 -1.2734 -0.1083 -0.5543
  124CHL1  H12B15395   5.339   6.334   4.187  0.5042 -0.3262 -0.6025
  124CHL1   C1115396   5.192   6.434   4.057 -0.0534  0.6441 -0.1434
  124CHL1  H11A15397   5.096   6.483   4.084 -0.0923  1.5825 -1.7925
  124CHL1  H11B15398   5.264   6.512   4.023  0.9137 -0.0927  0.1778
  124CHL1    C915399   5.167   6.331   3.941  0.6286  0.0925 -0.0796
  124CHL1    H915400   5.271   6.294   3.934  0.4174 -0.1889 -3.9702
  124CHL1   C1015401   5.125   6.393   3.803 -0.1922  0.7006 -0.3664
  124CHL1   C1915402   5.003   6.489   3.825 -0.2580  0.2956  0.0150
  124CHL1  H19A15403   4.915   6.423   3.839 -0.2332  0.4313  0.8752
  124CHL1  H19B15404   5.018   6.554   3.914  0.7980  0.9866 -0.6524
  124CHL1  H19C15405   4.977   6.548   3.734 -2.1569 -2.4313 -1.3579
  124CHL1    C115406   5.241   6.479   3.746  0.4560 -0.8234  0.1782
  124CHL1   H1A15407   5.241   6.568   3.812 -0.7767  0.2199 -1.1766
  124CHL1   H1B15408   5.334   6.417   3.749 -0.2199 -1.8253  1.1873
  124CHL1    C215409   5.226   6.523   3.599 -0.0272 -0.3798 -0.0916
  124CHL1   H2A15410   5.310   6.585   3.561  0.1284  0.3019  1.3129
  124CHL1   H2B15411   5.132   6.582   3.592 -1.0640 -1.9739 -0.2767
  124CHL1   C2015412   5.182   6.201   4.508 -0.0790  0.3925  0.0515
  124CHL1   H2015413   5.082   6.230   4.546  0.7218  1.2868  1.5911
  124CHL1   C2115414   5.262   6.331   4.531 -0.0603 -0.0391 -0.0742
  124CHL1  H21A15415   5.256   6.362   4.637  0.3773  0.1869 -0.1140
  124CHL1  H21B15416   5.202   6.404   4.473 -0.6303 -0.0033  0.5498
  124CHL1  H21C15417   5.367   6.320   4.495 -0.1846  2.5078 -1.4097
  124CHL1   C2215418   5.216   6.084   4.604  0.4542  0.2358  0.1125
  124CHL1  H22A15419   5.136   6.007   4.603 -0.3855  1.0797 -0.2590
  124CHL1  H22B15420   5.314   6.038   4.583 -0.0329 -1.8530  2.0686
  124CHL1   C2315421   5.231   6.127   4.751 -0.3826  0.8908  0.2438
  124CHL1  H23A15422   5.321   6.193   4.754 -1.0017  1.7550 -0.0615
  124CHL1  H23B15423   5.145   6.183   4.792 -0.7294  0.4364  0.1370
  124CHL1   C2415424   5.261   6.002   4.841 -0.2605 -0.1827  0.0500
  124CHL1  H24A15425   5.193   5.922   4.804  0.4492 -0.9016  0.2532
  124CHL1  H24B15426   5.365   5.967   4.822 -0.2257  0.1177 -0.3186
  124CHL1   C2515427   5.242   6.026   4.995 -0.5387 -0.3860  0.2609
  124CHL1   H2515428   5.137   6.015   5.028 -0.1553 -0.3327  1.5646
  124CHL1   C2615429   5.312   5.918   5.073 -0.6700  0.1940 -0.0947
  124CHL1  H26A15430   5.252   5.826   5.087  0.7599 -0.3621  3.3267
  124CHL1  H26B15431   5.402   5.872   5.025 -0.0754  0.1230  1.0526
  124CHL1  H26C15432   5.333   5.949   5.177 -1.9610  0.0403  0.2298
  124CHL1   C2715433   5.288   6.163   5.045  0.2940 -0.0149  0.4118
  124CHL1  H27A15434   5.239   6.250   4.996  1.2818 -0.1445 -0.8373
  124CHL1  H27B15435   5.271   6.167   5.155  0.2533  0.3440  0.3942
  124CHL1  H27C15436   5.397   6.178   5.037  0.0482  2.0449  0.3107
  125CHL1    C315437   5.358   5.415   3.840  0.3367  0.3887  0.1075
  125CHL1    H315438   5.251   5.445   3.851  1.0284  3.3361 -0.5905
  125CHL1    O315439   5.398   5.393   3.704 -0.2361  0.2229 -0.5094
  125CHL1   H3'15440   5.390   5.471   3.649  3.2142 -0.6447 -2.5093
  125CHL1    C415441   5.436   5.536   3.903 -0.3517 -0.1955 -0.0190
  125CHL1   H4A15442   5.540   5.521   3.865 -0.6903 -4.2566  0.1639
  125CHL1   H4B15443   5.399   5.629   3.855 -1.3321 -0.6074 -0.0762
  125CHL1    C515444   5.436   5.556   4.052 -0.1464  0.4056  0.1309
  125CHL1    C615445   5.409   5.675   4.110  0.2763 -0.2181  0.2233
  125CHL1    H615446   5.394   5.765   4.050 -4.9771 -0.2335  1.0764
  125CHL1    C715447   5.410   5.685   4.260  0.9343  0.0125 -0.3591
  125CHL1   H7A15448   5.451   5.784   4.290 -0.1877  0.2137  0.5763
  125CHL1   H7B15449   5.307   5.703   4.298  1.2375  0.6982  0.1701
  125CHL1    C815450   5.454   5.565   4.345 -0.1647  0.2225 -0.1702
  125CHL1    H815451   5.563   5.577   4.358 -0.0333 -1.7512  1.0196
  125CHL1   C1415452   5.399   5.563   4.484 -0.2301 -0.2088 -0.2183
  125CHL1   H1415453   5.290   5.541   4.477 -0.2091  0.1412 -2.2282
  125CHL1   C1515454   5.414   5.700   4.555  0.1703 -0.5448  0.0711
  125CHL1  H15A15455   5.512   5.747   4.533 -0.0622 -0.0750  0.0322
  125CHL1  H15B15456   5.334   5.772   4.528  0.3355 -1.0211 -1.8114
  125CHL1   C1615457   5.398   5.669   4.704  0.3213  0.2456 -0.5439
  125CHL1  H16A15458   5.484   5.719   4.755  1.3016 -2.8782  1.1688
  125CHL1  H16B15459   5.301   5.706   4.741 -0.0250  0.6458 -1.8345
  125CHL1   C1715460   5.405   5.509   4.723  0.1698 -0.0074  0.0827
  125CHL1   H1715461   5.296   5.486   4.732  0.0533  0.1590 -0.7832
  125CHL1   C1315462   5.448   5.459   4.586 -0.2810  1.0143 -0.5311
  125CHL1   C1815463   5.613   5.461   4.591 -0.1152 -0.2429  0.7077
  125CHL1  H18A15464   5.661   5.440   4.493  0.2017 -1.3279  1.0818
  125CHL1  H18B15465   5.654   5.551   4.640 -0.7514 -0.0296  0.8518
  125CHL1  H18C15466   5.647   5.372   4.648  0.1381  0.1756  1.2049
  125CHL1   C1215467   5.393   5.330   4.531  0.1153 -0.4245  0.4750
  125CHL1  H12A15468   5.431   5.236   4.578  0.5517 -2.3404 -3.3589
  125CHL1  H12B15469   5.282   5.328   4.532  0.1073 -0.9311 -0.3582
  125CHL1   C1115470   5.434   5.313   4.378 -0.7751 -0.1758 -0.2336
  125CHL1  H11A15471   5.545   5.300   4.371 -1.0562 -2.6207 -1.3175
  125CHL1  H11B15472   5.391   5.218   4.340  2.7572 -1.3709 -1.7203
  125CHL1    C915473   5.413   5.434   4.281 -0.2246  0.3128 -0.0380
  125CHL1    H915474   5.302   5.427   4.269 -0.1960 -0.1661 -0.0074
  125CHL1   C1015475   5.452   5.422   4.128  0.3884  0.0650 -0.0053
  125CHL1   C1915476   5.605   5.397   4.118  0.0744  0.0755 -0.0495
  125CHL1  H19A15477   5.654   5.488   4.160 -3.0998  1.4580  0.9124
  125CHL1  H19B15478   5.628   5.313   4.187  1.1615  0.4378  0.0508
  125CHL1  H19C15479   5.637   5.380   4.012  1.6785  2.3419  0.0123
  125CHL1    C115480   5.365   5.305   4.068  0.6804 -0.5292 -0.0341
  125CHL1   H1A15481   5.388   5.216   4.130  0.9592 -0.9965 -0.7910
  125CHL1   H1B15482   5.255   5.317   4.078  0.8636  1.1278  0.2661
  125CHL1    C215483   5.390   5.289   3.923 -0.1648  0.5414  0.0173
  125CHL1   H2A15484   5.328   5.204   3.885  2.0023 -0.8865 -0.5113
  125CHL1   H2B15485   5.497   5.265   3.906 -0.5448 -1.6250  0.3454
  125CHL1   C2015486   5.472   5.459   4.858  0.2080  0.7116 -0.3013
  125CHL1   H2015487   5.572   5.507   4.859  0.9447 -0.7765  0.2883
  125CHL1   C2115488   5.477   5.307   4.853 -0.3208  0.2699 -0.4142
  125CHL1  H21A15489   5.547   5.271   4.774 -0.1174 -0.1389 -0.0540
  125CHL1  H21B15490   5.379   5.258   4.837  0.3588 -0.9875 -0.8180
  125CHL1  H21C15491   5.515   5.275   4.953  0.0687 -1.2343 -1.0180
  125CHL1   C2215492   5.395   5.513   4.980  0.4587  0.0324 -0.8310
  125CHL1  H22A15493   5.361   5.618   4.966 -0.6878 -0.1503  0.4086
  125CHL1  H22B15494   5.298   5.460   4.991  0.3620  0.1055 -1.3018
  125CHL1   C2315495   5.473   5.511   5.109 -0.0930 -0.2015 -0.6929
  125CHL1  H23A15496   5.488   5.407   5.143 -2.0845 -0.4597 -0.4800
  125CHL1  H23B15497   5.565   5.571   5.097  0.3945 -0.9897 -0.9511
  125CHL1   C2415498   5.401   5.582   5.226  0.2879 -0.3388 -0.7104
  125CHL1  H24A15499   5.363   5.681   5.196 -1.3354 -0.5955  0.3578
  125CHL1  H24B15500   5.308   5.534   5.266  1.9428 -1.0517  2.6914
  125CHL1   C2515501   5.498   5.610   5.349 -0.1759 -0.1483  0.6988
  125CHL1   H2515502   5.576   5.532   5.362  1.5902  1.4327  0.0221
  125CHL1   C2615503   5.569   5.747   5.330  0.0752  0.3317  0.3280
  125CHL1  H26A15504   5.496   5.826   5.305  1.2247  0.8767 -1.6090
  125CHL1  H26B15505   5.627   5.774   5.421 -1.7612  1.6390  1.1503
  125CHL1  H26C15506   5.638   5.742   5.242 -1.2454 -0.4688 -0.7090
  125CHL1   C2715507   5.422   5.617   5.473  0.2218  0.3665 -1.3447
  125CHL1  H27A15508   5.365   5.524   5.496  0.8395 -0.0829 -1.5959
  125CHL1  H27B15509   5.484   5.647   5.559 -1.4702  0.1142  0.0246
  125CHL1  H27C15510   5.345   5.696   5.460  1.1658  1.0180 -3.4081
  126CHL1    C315511   2.574   4.692   3.363  0.5564  0.2955  0.0793
  126CHL1    H315512   2.657   4.657   3.428  1.3489 -0.2248 -1.1791
  126CHL1    O315513   2.623   4.684   3.224  0.2232 -0.2749 -0.3263
  126CHL1   H3'15514   2.552   4.722   3.172  0.0905 -1.0257 -0.6977
  126CHL1    C415515   2.455   4.592   3.376  0.5502 -0.2646 -0.1899
  126CHL1   H4A15516   2.376   4.630   3.308  0.6031  2.0633  0.9371
  126CHL1   H4B15517   2.493   4.496   3.334  2.6827  0.7870 -0.8494
  126CHL1    C515518   2.398   4.582   3.517  0.1539 -0.0011 -0.0526
  126CHL1    C615519   2.400   4.464   3.591  0.7379 -0.5389  0.3131
  126CHL1    H615520   2.449   4.377   3.543  1.3441 -0.0571  0.0513
  126CHL1    C715521   2.359   4.457   3.730 -0.2246  1.1028 -0.4571
  126CHL1   H7A15522   2.318   4.356   3.752 -0.2266  1.0741 -0.5930
  126CHL1   H7B15523   2.446   4.470   3.797 -3.0108  2.9090  3.2222
  126CHL1    C815524   2.271   4.573   3.777  0.3640  0.2550  0.0848
  126CHL1    H815525   2.166   4.571   3.739 -0.0465 -0.4614  1.2036
  126CHL1   C1415526   2.249   4.574   3.930  0.4827 -0.3607 -0.2930
  126CHL1   H1415527   2.355   4.575   3.963  0.1730  1.4383  0.7534
  126CHL1   C1515528   2.188   4.455   3.998 -0.2694  0.5483  0.1763
  126CHL1  H15A15529   2.096   4.424   3.942 -1.2525  0.5989  1.7088
  126CHL1  H15B15530   2.268   4.380   4.009  0.6503  0.9447 -2.7822
  126CHL1   C1615531   2.140   4.498   4.133  0.4873 -0.0983 -0.0925
  126CHL1  H16A15532   2.029   4.492   4.137  0.2001  1.0306 -3.3040
  126CHL1  H16B15533   2.184   4.443   4.219 -0.4351  0.1864  0.5706
  126CHL1   C1715534   2.185   4.651   4.144  0.1013 -0.2509  0.3187
  126CHL1   H1715535   2.293   4.646   4.168 -0.2143  1.6870  2.5267
  126CHL1   C1315536   2.186   4.698   3.998  0.0568 -0.6298  0.3922
  126CHL1   C1815537   2.031   4.711   3.962 -0.1670  0.1727  0.5617
  126CHL1  H18A15538   1.971   4.622   3.990  0.4682 -0.7272 -0.8481
  126CHL1  H18B15539   1.984   4.792   4.022 -0.2936  1.4133 -1.1504
  126CHL1  H18C15540   2.031   4.728   3.853  2.2657 -1.5231  0.2259
  126CHL1   C1215541   2.258   4.825   3.953 -0.3200  0.1086 -0.1669
  126CHL1  H12A15542   2.199   4.906   3.999 -0.3209 -0.0704  0.1461
  126CHL1  H12B15543   2.362   4.837   3.990 -0.6169  0.3700  0.5969
  126CHL1   C1115544   2.263   4.831   3.793 -0.8007 -0.3015 -0.5329
  126CHL1  H11A15545   2.166   4.840   3.739 -0.0746  0.2420 -1.7827
  126CHL1  H11B15546   2.326   4.920   3.773  0.6919 -1.1564  0.2190
  126CHL1    C915547   2.335   4.710   3.730  0.1369  0.3355  0.2075
  126CHL1    H915548   2.439   4.697   3.768 -0.7506 -0.7820  2.3824
  126CHL1   C1015549   2.357   4.724   3.583 -0.0646 -0.0206  0.6021
  126CHL1   C1915550   2.225   4.770   3.517  0.2761  0.4166 -0.4668
  126CHL1  H19A15551   2.213   4.880   3.529 -0.3757  0.2847  0.1889
  126CHL1  H19B15552   2.209   4.738   3.412 -1.7674  0.0462 -0.0769
  126CHL1  H19C15553   2.138   4.717   3.562 -0.7824  1.1298 -1.6230
  126CHL1    C115554   2.460   4.835   3.546 -0.0534 -0.8524  0.2006
  126CHL1   H1A15555   2.424   4.938   3.567  1.2029 -0.6790  1.7774
  126CHL1   H1B15556   2.544   4.822   3.617 -1.1984  0.9763  2.0140
  126CHL1    C215557   2.524   4.833   3.404  0.0287 -0.2365 -0.1544
  126CHL1   H2A15558   2.608   4.905   3.394  0.4167 -0.4669  1.2384
  126CHL1   H2B15559   2.457   4.857   3.319  2.1190  0.0714 -1.7971
  126CHL1   C2015560   2.131   4.739   4.255  0.0330 -0.2998  0.3904
  126CHL1   H2015561   2.131   4.847   4.226 -2.2325 -0.1736  0.6847
  126CHL1   C2115562   2.235   4.740   4.365  0.3155  0.4119  0.0836
  126CHL1  H21A15563   2.197   4.795   4.454 -0.9795  1.4886 -1.0991
  126CHL1  H21B15564   2.329   4.791   4.335 -1.4011  2.9437 -1.3769
  126CHL1  H21C15565   2.255   4.638   4.402  1.6114  0.8153  0.5851
  126CHL1   C2215566   1.985   4.711   4.303 -0.3645  0.0111  0.3341
  126CHL1  H22A15567   1.917   4.697   4.217  0.0201  2.1801 -0.3782
  126CHL1  H22B15568   1.993   4.615   4.358 -0.4478 -0.6490 -0.7846
  126CHL1   C2315569   1.916   4.821   4.385 -0.2856  0.2850  0.1066
  126CHL1  H23A15570   1.994   4.861   4.454  0.4731  0.4211 -0.8107
  126CHL1  H23B15571   1.877   4.899   4.317  1.6834 -1.1932 -2.9226
  126CHL1   C2415572   1.801   4.761   4.465  0.0813 -0.6260  0.0227
  126CHL1  H24A15573   1.722   4.736   4.391  0.2571  0.1180 -0.4256
  126CHL1  H24B15574   1.851   4.680   4.522 -1.2600  0.7571  3.4311
  126CHL1   C2515575   1.731   4.853   4.564 -0.3147 -0.1679 -0.7860
  126CHL1   H2515576   1.726   4.950   4.510 -0.2738 -0.0336 -0.5483
  126CHL1   C2615577   1.590   4.802   4.610  1.2197 -0.4467  0.4764
  126CHL1  H26A15578   1.523   4.823   4.524  1.0479 -0.1474  0.6782
  126CHL1  H26B15579   1.595   4.694   4.636  2.2569 -1.0124 -1.8686
  126CHL1  H26C15580   1.556   4.866   4.695  1.3372  0.7403 -0.3466
  126CHL1   C2715581   1.819   4.879   4.686 -0.7081  0.9877  0.5741
  126CHL1  H27A15582   1.918   4.923   4.660 -0.5905  2.4805  3.1341
  126CHL1  H27B15583   1.775   4.941   4.767  0.1959 -0.0190  1.8710
  126CHL1  H27C15584   1.842   4.778   4.724 -1.4191 -1.3732 -4.4712
  127CHL1    C315585   3.618   6.292   3.557  0.4482  0.5748  0.1351
  127CHL1    H315586   3.708   6.358   3.553  1.5042 -0.8643 -1.2814
  127CHL1    O315587   3.644   6.204   3.443  0.1174  0.1217  0.1204
  127CHL1   H3'15588   3.596   6.255   3.376  0.1636 -1.5586 -1.2630
  127CHL1    C415589   3.624   6.201   3.672 -0.0989 -0.3131 -1.0536
  127CHL1   H4A15590   3.554   6.116   3.656 -1.8720  0.5934  1.2974
  127CHL1   H4B15591   3.722   6.149   3.676 -0.2778 -0.5881  0.8896
  127CHL1    C515592   3.586   6.279   3.798  0.0673 -0.5785 -0.1458
  127CHL1    C615593   3.672   6.283   3.900  0.0537  0.4131 -0.6447
  127CHL1    H615594   3.768   6.232   3.886  0.5141  1.2237 -0.5081
  127CHL1    C715595   3.638   6.340   4.034  0.2576 -0.9077  0.1873
  127CHL1   H7A15596   3.666   6.272   4.117 -0.9378 -2.5909 -0.7181
  127CHL1   H7B15597   3.690   6.437   4.039 -0.2176 -0.6742  0.6746
  127CHL1    C815598   3.484   6.367   4.048 -0.1259  0.2511 -0.1707
  127CHL1    H815599   3.427   6.274   4.066  0.6469  0.0453  1.4030
  127CHL1   C1415600   3.470   6.452   4.173 -0.0388  0.3035  1.1560
  127CHL1   H1415601   3.537   6.538   4.149 -0.4011  0.0223 -1.0708
  127CHL1   C1515602   3.515   6.406   4.313 -0.3902 -0.0804 -0.5985
  127CHL1  H15A15603   3.468   6.309   4.342 -0.6454  0.0650 -0.5220
  127CHL1  H15B15604   3.626   6.400   4.313 -0.4528 -3.2064 -1.3218
  127CHL1   C1615605   3.465   6.519   4.405  0.1031 -0.4459  0.2105
  127CHL1  H16A15606   3.421   6.478   4.498 -0.3214 -0.8279 -0.1523
  127CHL1  H16B15607   3.552   6.579   4.440 -0.5879 -0.1311  1.4534
  127CHL1   C1715608   3.364   6.611   4.316 -0.6921 -0.1382 -0.1918
  127CHL1   H1715609   3.421   6.699   4.281  1.7695 -1.3216  0.5785
  127CHL1   C1315610   3.331   6.525   4.192 -0.2516  0.3447  0.4212
  127CHL1   C1815611   3.222   6.421   4.226 -0.2933  0.3163 -0.2082
  127CHL1  H18A15612   3.217   6.401   4.335  2.2582 -1.2056 -0.2802
  127CHL1  H18B15613   3.122   6.464   4.203  0.5030  1.4662 -1.6893
  127CHL1  H18C15614   3.226   6.322   4.174 -1.0194 -0.4867  1.2095
  127CHL1   C1215615   3.287   6.596   4.062 -0.1354  0.4163  0.0040
  127CHL1  H12A15616   3.186   6.638   4.079  0.1787  0.5540  1.6457
  127CHL1  H12B15617   3.357   6.680   4.045  0.2842  0.0591 -0.0601
  127CHL1   C1115618   3.282   6.491   3.948  0.1346 -0.2714 -0.2284
  127CHL1  H11A15619   3.212   6.409   3.973 -0.9431  1.0475  1.3200
  127CHL1  H11B15620   3.254   6.535   3.850 -2.6681 -2.6452 -0.6229
  127CHL1    C915621   3.427   6.433   3.926 -0.3622 -0.4450  0.8831
  127CHL1    H915622   3.494   6.521   3.915  0.9836 -1.2436  2.3007
  127CHL1   C1015623   3.441   6.342   3.798 -0.4902 -0.5636  0.8007
  127CHL1   C1915624   3.334   6.233   3.793  0.2304  0.2395  0.6798
  127CHL1  H19A15625   3.231   6.271   3.811  0.8725  3.3636 -1.3336
  127CHL1  H19B15626   3.335   6.185   3.693  1.4137  2.7402 -0.6170
  127CHL1  H19C15627   3.347   6.152   3.867 -1.8931  1.6432  2.7361
  127CHL1    C115628   3.431   6.431   3.670 -0.1622  1.3232  0.2794
  127CHL1   H1A15629   3.325   6.459   3.651 -0.0638  1.9829  0.6486
  127CHL1   H1B15630   3.481   6.527   3.695  3.0317 -0.1797  0.1757
  127CHL1    C215631   3.495   6.377   3.544 -0.8081 -0.6520 -0.1558
  127CHL1   H2A15632   3.522   6.457   3.473 -2.4826 -0.3470 -0.5050
  127CHL1   H2B15633   3.418   6.320   3.487  0.0320 -1.5374 -0.4406
  127CHL1   C2015634   3.249   6.677   4.397 -0.0564  0.1044 -0.3216
  127CHL1   H2015635   3.164   6.606   4.392  1.4071 -2.0199  2.5244
  127CHL1   C2115636   3.214   6.809   4.330  0.3870  0.3034  0.2494
  127CHL1  H21A15637   3.165   6.774   4.236  0.7317  1.5097 -0.4048
  127CHL1  H21B15638   3.298   6.876   4.302 -0.1315  0.2136 -1.6992
  127CHL1  H21C15639   3.148   6.867   4.398  2.7324  0.4675  2.5298
  127CHL1   C2215640   3.283   6.714   4.544 -0.8439  1.0516  0.0600
  127CHL1  H22A15641   3.199   6.777   4.579 -0.4162  1.5379  0.2404
  127CHL1  H22B15642   3.292   6.628   4.613 -0.4709  1.1207  0.1030
  127CHL1   C2315643   3.408   6.806   4.567  0.3874  0.0157 -0.3016
  127CHL1  H23A15644   3.500   6.752   4.534  2.2633  3.0267 -0.3800
  127CHL1  H23B15645   3.401   6.903   4.513  1.2066  0.7417  0.8391
  127CHL1   C2415646   3.426   6.821   4.718 -0.1715 -0.5541 -0.1216
  127CHL1  H24A15647   3.344   6.891   4.740  0.9972  0.8484 -0.0732
  127CHL1  H24B15648   3.415   6.726   4.775 -1.6339  0.3553  1.2040
  127CHL1   C2515649   3.559   6.893   4.759  0.1582  0.0300 -0.8384
  127CHL1   H2515650   3.570   6.965   4.674  0.6289  1.2543  0.2262
  127CHL1   C2615651   3.544   6.962   4.900  0.5896 -0.3947  0.2567
  127CHL1  H26A15652   3.446   7.013   4.911 -0.0200 -1.4935  0.0589
  127CHL1  H26B15653   3.550   6.886   4.981  1.1604 -2.0993 -1.3051
  127CHL1  H26C15654   3.626   7.032   4.928  1.5391 -0.5232 -1.9608
  127CHL1   C2715655   3.683   6.799   4.746  0.2814 -0.2719 -0.1115
  127CHL1  H27A15656   3.778   6.857   4.752  1.3146 -1.9597  0.5713
  127CHL1  H27B15657   3.678   6.713   4.815 -5.0086 -0.2094  0.0113
  127CHL1  H27C15658   3.687   6.760   4.642  0.1434  1.2827 -0.7282
  128CHL1    C315659   3.691   2.762   3.655 -0.0299  0.0471  0.1631
  128CHL1    H315660   3.799   2.747   3.633  0.6952  3.8222  0.3128
  128CHL1    O315661   3.632   2.844   3.559 -0.0321 -0.5627  0.2642
  128CHL1   H3'15662   3.545   2.852   3.600  1.2341  0.2670  3.0259
  128CHL1    C415663   3.609   2.632   3.658 -0.4128 -0.0605 -0.0305
  128CHL1   H4A15664   3.500   2.653   3.669 -0.4984 -0.5164  0.0251
  128CHL1   H4B15665   3.613   2.582   3.559 -1.0720 -2.4806  1.0878
  128CHL1    C515666   3.645   2.541   3.771  0.9828  1.1160 -0.1002
  128CHL1    C615667   3.666   2.411   3.743  0.5453 -0.4841 -0.4509
  128CHL1    H615668   3.646   2.375   3.641 -0.3378 -2.8076  0.4681
  128CHL1    C715669   3.699   2.307   3.839 -0.4907  0.0179  0.2689
  128CHL1   H7A15670   3.642   2.213   3.822 -0.4296 -0.7699  3.6593
  128CHL1   H7B15671   3.809   2.297   3.828 -0.6081  0.8519 -2.0335
  128CHL1    C815672   3.677   2.365   3.988  0.4308 -0.3934  0.2225
  128CHL1    H815673   3.569   2.380   4.006  0.5836  0.6621  0.2999
  128CHL1   C1415674   3.719   2.264   4.089  0.0074  0.0483 -1.5096
  128CHL1   H1415675   3.829   2.267   4.076  0.2920  0.7601  0.6080
  128CHL1   C1515676   3.681   2.110   4.077  0.1789 -0.0652  0.5987
  128CHL1  H15A15677   3.572   2.105   4.059  0.4239  2.4936 -2.5415
  128CHL1  H15B15678   3.729   2.061   3.990 -0.9402  0.3403 -0.2628
  128CHL1   C1615679   3.738   2.062   4.212 -0.2898  0.0316 -0.0034
  128CHL1  H16A15680   3.654   2.003   4.253  0.0878 -0.2042  0.4411
  128CHL1  H16B15681   3.835   2.011   4.193 -1.8529 -2.5149 -1.7778
  128CHL1   C1715682   3.767   2.185   4.303 -0.8736  0.2305 -0.0588
  128CHL1   H1715683   3.877   2.202   4.300 -0.8338 -0.1209 -2.0461
  128CHL1   C1315684   3.700   2.309   4.243 -0.1032 -0.2198 -0.0128
  128CHL1   C1815685   3.550   2.319   4.280 -0.3789  0.5745 -0.0592
  128CHL1  H18A15686   3.540   2.368   4.379 -2.6664  0.5515 -0.2428
  128CHL1  H18B15687   3.493   2.380   4.206 -0.2288  0.9944  0.1650
  128CHL1  H18C15688   3.498   2.221   4.285  3.1292 -1.3842  2.3570
  128CHL1   C1215689   3.768   2.450   4.257  0.6620  0.0845  0.3984
  128CHL1  H12A15690   3.760   2.485   4.362  1.1219 -2.0855  1.2124
  128CHL1  H12B15691   3.876   2.423   4.250  0.9068  0.5900  1.8518
  128CHL1   C1115692   3.724   2.549   4.157  0.2110  0.4933  0.1849
  128CHL1  H11A15693   3.617   2.574   4.177 -0.3354 -1.0334 -0.6656
  128CHL1  H11B15694   3.791   2.637   4.169  1.3523 -0.3501  0.2017
  128CHL1    C915695   3.737   2.505   4.010  0.5994 -0.3156  0.1046
  128CHL1    H915696   3.843   2.502   3.978  0.5763  2.0546 -0.3740
  128CHL1   C1015697   3.664   2.607   3.911 -1.0988 -0.3512 -0.1835
  128CHL1   C1915698   3.530   2.656   3.962 -0.2117 -0.4458 -0.4545
  128CHL1  H19A15699   3.531   2.741   4.033 -0.3347  0.5843 -1.6412
  128CHL1  H19B15700   3.462   2.701   3.886 -1.5133  1.4705  1.7252
  128CHL1  H19C15701   3.467   2.576   4.007  0.1302  0.9133  2.6568
  128CHL1    C115702   3.759   2.727   3.881 -0.6367  0.2591 -0.3402
  128CHL1   H1A15703   3.775   2.778   3.979  1.0301 -2.1450  0.7476
  128CHL1   H1B15704   3.854   2.677   3.851 -1.1629 -0.2049 -1.2510
  128CHL1    C215705   3.703   2.832   3.785  0.2533 -0.8303  0.2863
  128CHL1   H2A15706   3.774   2.917   3.772  0.0244 -0.8642 -1.4679
  128CHL1   H2B15707   3.604   2.871   3.815  0.7920  0.8136  0.0419
  128CHL1   C2015708   3.735   2.152   4.450 -0.3082  0.2347  0.6482
  128CHL1   H2015709   3.625   2.136   4.452 -0.0427 -2.9877 -2.0632
  128CHL1   C2115710   3.770   2.260   4.550 -0.3990  0.0170 -0.3161
  128CHL1  H21A15711   3.718   2.356   4.530 -0.2782  0.3560  0.9216
  128CHL1  H21B15712   3.874   2.297   4.561 -0.9520  1.8320 -0.7437
  128CHL1  H21C15713   3.740   2.225   4.651  2.8691 -0.5881  0.5728
  128CHL1   C2215714   3.792   2.012   4.492 -0.0718  0.3142 -0.6279
  128CHL1  H22A15715   3.769   2.005   4.600  1.5843 -0.9371 -0.3139
  128CHL1  H22B15716   3.755   1.924   4.436  0.6986 -1.1118  1.0428
  128CHL1   C2315717   3.951   2.017   4.479  0.5262 -0.1350  0.0977
  128CHL1  H23A15718   3.972   2.030   4.371 -1.9032  1.2677 -0.2682
  128CHL1  H23B15719   3.986   2.109   4.532  1.0992 -0.0659 -0.3970
  128CHL1   C2415720   4.022   1.892   4.534  0.2728  0.3359  0.4167
  128CHL1  H24A15721   3.972   1.868   4.630  0.4478 -0.8853  0.2245
  128CHL1  H24B15722   4.006   1.815   4.455  0.6155  2.4317 -1.8112
  128CHL1   C2515723   4.170   1.899   4.550 -0.3061 -0.0718 -0.0169
  128CHL1   H2515724   4.195   2.001   4.589 -1.3654 -0.3111  1.3436
  128CHL1   C2615725   4.216   1.805   4.653 -0.3782  0.4061  0.0051
  128CHL1  H26A15726   4.152   1.801   4.744  1.7459  1.7567  1.6564
  128CHL1  H26B15727   4.236   1.701   4.617 -1.9785  0.6049 -1.5732
  128CHL1  H26C15728   4.308   1.839   4.706 -1.1807  0.3380  1.4924
  128CHL1   C2715729   4.252   1.874   4.419 -0.0992 -0.2740  1.0035
  128CHL1  H27A15730   4.247   1.764   4.402 -1.1740 -0.0638 -0.1354
  128CHL1  H27B15731   4.195   1.924   4.338 -2.3412  0.6846  3.0539
  128CHL1  H27C15732   4.360   1.903   4.419  0.2117 -1.1226 -1.7581
  129CHL1    C315733   4.823   0.003   3.419 -0.0498  0.1459 -0.5120
  129CHL1    H315734   4.839   0.108   3.453  1.2319 -0.4831  0.9318
  129CHL1    O315735   4.755   0.015   3.294 -0.2381 -0.0847  0.3338
  129CHL1   H3'15736   4.744  -0.078   3.270  0.9804  0.0348 -0.7525
  129CHL1    C415737   4.964  -0.062   3.413 -0.0635 -0.1280 -0.7902
  129CHL1   H4A15738   4.948  -0.162   3.367  0.3341 -0.6265  0.1295
  129CHL1   H4B15739   5.034  -0.003   3.349 -1.0328  1.0994 -0.7597
  129CHL1    C515740   5.025  -0.080   3.555 -0.3740 -1.0161  0.5012
  129CHL1    C615741   5.148  -0.036   3.582  0.2874  0.5608  0.0480
  129CHL1    H615742   5.205   0.010   3.500  0.8807 -0.4711 -0.1451
  129CHL1    C715743   5.227  -0.049   3.706  0.2810  0.7561 -0.8122
  129CHL1   H7A15744   5.321  -0.102   3.680  1.1087  0.3651  2.5379
  129CHL1   H7B15745   5.255   0.043   3.761  1.9294  0.2311 -0.7060
  129CHL1    C815746   5.139  -0.134   3.807 -0.1453  0.0818 -1.0731
  129CHL1    H815747   5.158  -0.240   3.781  0.3762 -0.6101  1.7833
  129CHL1   C1415748   5.185  -0.138   3.954 -0.2998  0.0466  0.0120
  129CHL1   H1415749   5.159  -0.036   3.988 -1.6282 -0.6687  1.2538
  129CHL1   C1515750   5.340  -0.148   3.990 -0.2708  0.0061  0.3077
  129CHL1  H15A15751   5.408  -0.208   3.926  0.5453 -1.2633  2.2464
  129CHL1  H15B15752   5.388  -0.048   3.983  1.9116 -1.0433 -0.7127
  129CHL1   C1615753   5.344  -0.207   4.130 -0.6796 -0.7041 -0.5190
  129CHL1  H16A15754   5.384  -0.311   4.134  1.2831  0.0484  2.4561
  129CHL1  H16B15755   5.413  -0.150   4.194 -2.3734  0.2895  0.4914
  129CHL1   C1715756   5.194  -0.220   4.183  1.2058 -0.0932  0.5215
  129CHL1   H1715757   5.166  -0.118   4.216  1.3043 -0.3774  1.5337
  129CHL1   C1315758   5.115  -0.237   4.044 -0.5842  0.6987  0.4184
  129CHL1   C1815759   5.134  -0.386   3.999 -0.8604  1.1931 -0.1775
  129CHL1  H18A15760   5.239  -0.423   3.999 -1.4569 -0.6230  0.2789
  129CHL1  H18B15761   5.079  -0.451   4.070  1.7773 -1.2018 -0.1617
  129CHL1  H18C15762   5.085  -0.405   3.901 -0.6207  1.5303 -0.3639
  129CHL1   C1215763   4.964  -0.204   4.049 -0.3522  0.0170  0.3937
  129CHL1  H12A15764   4.899  -0.268   4.112 -0.0158 -0.3265  0.3934
  129CHL1  H12B15765   4.957  -0.105   4.099 -0.2749  1.0921 -1.6219
  129CHL1   C1115766   4.903  -0.194   3.911 -0.0727  0.6533 -0.9633
  129CHL1  H11A15767   4.889  -0.300   3.881 -1.3554  0.2077  1.0603
  129CHL1  H11B15768   4.799  -0.156   3.916 -0.4646 -0.5408  0.9992
  129CHL1    C915769   4.986  -0.128   3.798 -0.4606 -0.9952 -0.6306
  129CHL1    H915770   4.970  -0.019   3.813  0.3854 -1.0484  0.8454
  129CHL1   C1015771   4.933  -0.148   3.655  0.2080 -0.3770 -0.3848
  129CHL1   C1915772   4.933  -0.297   3.616 -0.5938  0.9720  0.1279
  129CHL1  H19A15773   5.035  -0.340   3.608  0.0205  2.3800  0.2297
  129CHL1  H19B15774   4.882  -0.359   3.693 -1.5048  2.7031  0.9569
  129CHL1  H19C15775   4.875  -0.323   3.524 -1.3973  3.1656 -0.0485
  129CHL1    C115776   4.787  -0.097   3.649  0.2825  0.2348  0.6067
  129CHL1   H1A15777   4.721  -0.159   3.714 -0.4523  0.7551  0.3714
  129CHL1   H1B15778   4.793   0.006   3.690  1.9053  0.4905 -0.1927
  129CHL1    C215779   4.733  -0.071   3.510  0.8829  0.1942 -0.3993
  129CHL1   H2A15780   4.641  -0.012   3.530 -0.3328 -1.8068  0.2024
  129CHL1   H2B15781   4.701  -0.170   3.470  1.2848  0.7338 -2.1773
  129CHL1   C2015782   5.180  -0.323   4.297 -0.3432 -0.5074  0.0863
  129CHL1   H2015783   5.218  -0.423   4.266  1.6224  0.5800 -1.2418
  129CHL1   C2115784   5.026  -0.333   4.332 -0.4026  0.3258 -0.5783
  129CHL1  H21A15785   5.016  -0.405   4.416  1.1357  0.8624  0.1168
  129CHL1  H21B15786   4.965  -0.388   4.258 -0.9143 -1.5546  1.1250
  129CHL1  H21C15787   4.995  -0.230   4.359 -0.2015  0.3797 -0.5489
  129CHL1   C2215788   5.250  -0.290   4.431 -0.0467  0.4704  0.4377
  129CHL1  H22A15789   5.271  -0.181   4.438  1.2007  0.2538  0.3995
  129CHL1  H22B15790   5.191  -0.311   4.523  0.0127  1.9782  0.8525
  129CHL1   C2315791   5.388  -0.363   4.443  0.5885 -0.4193  0.0483
  129CHL1  H23A15792   5.360  -0.470   4.437 -2.3895  0.2729 -0.0288
  129CHL1  H23B15793   5.455  -0.317   4.367  0.3980  2.6547  1.5956
  129CHL1   C2415794   5.456  -0.337   4.584  0.1501  0.2916  0.0780
  129CHL1  H24A15795   5.548  -0.399   4.579  0.4894  0.7477  0.4921
  129CHL1  H24B15796   5.489  -0.231   4.594 -0.6444  0.8010 -2.2710
  129CHL1   C2515797   5.373  -0.377   4.706  0.0797  0.3346 -0.0837
  129CHL1   H2515798   5.264  -0.357   4.695  0.2040  0.7205 -0.6286
  129CHL1   C2615799   5.388  -0.524   4.748  0.1683 -0.0570  0.5596
  129CHL1  H26A15800   5.303  -0.561   4.809  0.8212 -1.5307  0.6164
  129CHL1  H26B15801   5.383  -0.593   4.661  2.8562 -1.1226  1.1280
  129CHL1  H26C15802   5.480  -0.544   4.808 -0.8227 -0.0000  2.1598
  129CHL1   C2715803   5.410  -0.288   4.824 -0.5120 -0.4401 -0.4121
  129CHL1  H27A15804   5.518  -0.293   4.849 -0.5408 -0.6652 -0.3302
  129CHL1  H27B15805   5.381  -0.182   4.808 -2.9062 -1.3066 -2.6585
  129CHL1  H27C15806   5.367  -0.326   4.919  1.5860 -0.6150  0.5088
  130CHL1    C315807   3.102   7.496   3.761 -0.0616 -0.1099  0.3201
  130CHL1    H315808   3.212   7.498   3.778 -0.2728  0.9257  1.7139
  130CHL1    O315809   3.081   7.504   3.621  0.0763  0.0947  0.1592
  130CHL1   H3'15810   2.989   7.480   3.610  0.5305 -1.2853 -0.9392
  130CHL1    C415811   3.060   7.355   3.801 -0.0999  0.6523  0.0470
  130CHL1   H4A15812   2.952   7.353   3.775 -0.2936  0.0906  0.8591
  130CHL1   H4B15813   3.109   7.278   3.737  2.2498  1.7835  0.3620
  130CHL1    C515814   3.084   7.330   3.952 -0.3766  0.3788 -0.9065
  130CHL1    C615815   3.150   7.228   4.005  0.3783  0.1710 -0.0692
  130CHL1    H615816   3.202   7.173   3.925 -0.2729 -0.9916  0.2759
  130CHL1    C715817   3.186   7.202   4.149 -0.0286  0.3425 -0.0699
  130CHL1   H7A15818   3.190   7.091   4.160 -0.7204  0.3532  0.3575
  130CHL1   H7B15819   3.283   7.252   4.169 -0.4996  1.1307  0.2821
  130CHL1    C815820   3.091   7.285   4.230  0.5520  0.2630 -1.1199
  130CHL1    H815821   2.994   7.231   4.228  1.4389 -1.7407  1.9860
  130CHL1   C1415822   3.135   7.279   4.375 -0.1195 -0.0382  0.2114
  130CHL1   H1415823   3.233   7.330   4.366  0.5926 -1.7381 -3.2353
  130CHL1   C1515824   3.166   7.151   4.441 -0.5790 -0.2073 -0.7097
  130CHL1  H15A15825   3.087   7.077   4.417 -1.9974  0.0049  2.6500
  130CHL1  H15B15826   3.264   7.105   4.416 -1.0886 -2.0234  0.4428
  130CHL1   C1615827   3.180   7.183   4.592 -0.6773 -0.1521 -0.8493
  130CHL1  H16A15828   3.111   7.117   4.649 -0.4733  0.8907  0.6752
  130CHL1  H16B15829   3.283   7.176   4.633 -0.9952 -0.2003 -0.0432
  130CHL1   C1715830   3.124   7.326   4.596 -0.5452  0.0346  0.3905
  130CHL1   H1715831   3.218   7.382   4.580 -0.4491 -0.0559  0.6408
  130CHL1   C1315832   3.047   7.359   4.472  0.4541  0.1535  0.2606
  130CHL1   C1815833   2.905   7.304   4.481 -0.9026 -0.2651  0.7719
  130CHL1  H18A15834   2.851   7.351   4.566  0.7832  1.9412  0.6852
  130CHL1  H18B15835   2.838   7.327   4.395  1.7923 -2.0339 -1.9985
  130CHL1  H18C15836   2.899   7.195   4.504 -1.4239 -0.9283 -2.0966
  130CHL1   C1215837   3.050   7.510   4.437  0.6816 -0.1381  0.4560
  130CHL1  H12A15838   2.980   7.564   4.505  1.5881  1.6279  0.0422
  130CHL1  H12B15839   3.144   7.568   4.451 -0.0788  0.5057  3.8585
  130CHL1   C1115840   3.007   7.521   4.291  0.2993  0.3460 -0.0429
  130CHL1  H11A15841   2.898   7.502   4.287 -0.1941  1.9098  3.2963
  130CHL1  H11B15842   3.022   7.626   4.258  0.5862 -0.0078 -1.0724
  130CHL1    C915843   3.074   7.431   4.188 -0.9636  0.5918 -0.2543
  130CHL1    H915844   3.177   7.472   4.184 -0.9694  0.5448 -1.0224
  130CHL1   C1015845   3.017   7.442   4.044 -0.2502  0.1021  0.3237
  130CHL1   C1915846   2.860   7.416   4.046  0.3936 -0.0128 -0.2999
  130CHL1  H19A15847   2.809   7.496   4.104 -2.3498 -1.1479 -1.0172
  130CHL1  H19B15848   2.805   7.439   3.952 -2.0165 -0.8857  0.8200
  130CHL1  H19C15849   2.832   7.320   4.095 -0.1890 -0.3021 -1.1855
  130CHL1    C115850   3.050   7.583   3.985  0.6461 -0.4730  0.6208
  130CHL1   H1A15851   2.989   7.660   4.039  0.2615 -0.7944  0.6517
  130CHL1   H1B15852   3.146   7.625   4.022 -0.6980  1.7077  1.8680
  130CHL1    C215853   3.029   7.599   3.836  0.6498 -0.2327 -0.6865
  130CHL1   H2A15854   3.078   7.695   3.810 -1.9339  1.4962  0.4100
  130CHL1   H2B15855   2.922   7.596   3.808  0.5586  0.9953 -0.5036
  130CHL1   C2015856   3.062   7.378   4.726 -0.3858  0.3027 -0.4295
  130CHL1   H2015857   2.983   7.453   4.702 -1.0353 -0.7231 -1.5644
  130CHL1   C2115858   3.171   7.478   4.790  0.8125 -0.2385  0.3894
  130CHL1  H21A15859   3.254   7.428   4.845  1.9012  0.1317 -0.8637
  130CHL1  H21B15860   3.121   7.548   4.860 -0.8024  0.6170 -1.5293
  130CHL1  H21C15861   3.222   7.555   4.727  2.5898 -0.4506  1.5119
  130CHL1   C2215862   3.003   7.275   4.824 -0.4758  0.1959 -0.1432
  130CHL1  H22A15863   2.949   7.188   4.781 -0.3375 -0.8759  1.7326
  130CHL1  H22B15864   3.096   7.231   4.867 -0.7527  1.1581  1.5146
  130CHL1   C2315865   2.908   7.329   4.939  0.5126 -0.1573  0.6467
  130CHL1  H23A15866   2.898   7.243   5.008  1.2101  0.2657  1.2822
  130CHL1  H23B15867   2.952   7.423   4.978 -0.5306  1.2215 -1.2997
  130CHL1   C2415868   2.774   7.384   4.886  0.6449  1.2490 -0.2694
  130CHL1  H24A15869   2.789   7.484   4.841  0.4857  1.9806  1.2569
  130CHL1  H24B15870   2.738   7.308   4.813  1.4097  2.2078 -1.7017
  130CHL1   C2515871   2.669   7.390   4.998 -0.6644 -0.2100  0.2211
  130CHL1   H2515872   2.705   7.464   5.073 -0.0777  1.1824 -1.3707
  130CHL1   C2615873   2.540   7.458   4.947 -0.3582  0.3654  0.1518
  130CHL1  H26A15874   2.489   7.523   5.021  0.3399  0.3247  0.6815
  130CHL1  H26B15875   2.561   7.537   4.872  1.4698  0.1158  0.3696
  130CHL1  H26C15876   2.481   7.381   4.894 -1.6554  1.9352 -0.7923
  130CHL1   C2715877   2.627   7.264   5.075  0.0913  0.3697 -0.4482
  130CHL1  H27A15878   2.588   7.189   5.002  0.3086  0.5099 -0.7091
  130CHL1  H27B15879   2.717   7.218   5.120 -0.7074 -0.2403  0.5626
  130CHL1  H27C15880   2.547   7.290   5.147 -0.8494  0.8979 -1.6391
  131CHL1    C315881   1.181   6.909   3.867  0.7424  0.2221  1.0414
  131CHL1    H315882   1.220   6.979   3.943 -1.7905  2.0885  0.7727
  131CHL1    O315883   1.070   6.969   3.801 -0.5764  0.0708 -0.2999
  131CHL1   H3'15884   1.047   6.907   3.731 -1.4758 -0.0657  0.1064
  131CHL1    C415885   1.290   6.865   3.762 -0.5428  0.2698  0.3949
  131CHL1   H4A15886   1.228   6.808   3.689 -0.8719  0.5167  0.4799
  131CHL1   H4B15887   1.338   6.951   3.710  1.7096 -0.9614  0.2793
  131CHL1    C515888   1.389   6.772   3.826 -0.2549  0.2070  0.0416
  131CHL1    C615889   1.521   6.802   3.817 -0.8781 -0.0319  0.2749
  131CHL1    H615890   1.541   6.898   3.767  0.6669 -1.6028 -2.3403
  131CHL1    C715891   1.628   6.727   3.890 -0.3329 -0.1170 -0.6705
  131CHL1   H7A15892   1.704   6.693   3.816 -0.0132 -2.5263  0.6687
  131CHL1   H7B15893   1.676   6.791   3.967 -1.4308  1.5680 -1.3354
  131CHL1    C815894   1.584   6.586   3.947  0.3186 -0.3954 -0.3102
  131CHL1    H815895   1.579   6.511   3.865 -1.2478 -1.9335  1.1103
  131CHL1   C1415896   1.689   6.538   4.047  0.1711 -0.6693  0.5512
  131CHL1   H1415897   1.684   6.617   4.125 -0.5053 -1.0917  0.9527
  131CHL1   C1515898   1.840   6.524   4.015  1.3545  0.0689 -0.6827
  131CHL1  H15A15899   1.844   6.483   3.912  1.8394 -0.0512 -0.6191
  131CHL1  H15B15900   1.893   6.622   4.012 -0.6073  1.2635  0.5975
  131CHL1   C1615901   1.896   6.442   4.135  0.7481 -0.6087  0.0194
  131CHL1  H16A15902   1.964   6.361   4.101 -0.3823 -1.1250 -1.0857
  131CHL1  H16B15903   1.952   6.507   4.206  1.7458 -0.6030 -0.7664
  131CHL1   C1715904   1.775   6.398   4.230 -0.4137  0.1410  0.9294
  131CHL1   H1715905   1.765   6.484   4.299  3.3233  1.6080 -0.1082
  131CHL1   C1315906   1.654   6.413   4.131  0.5428  0.4954 -0.3346
  131CHL1   C1815907   1.651   6.292   4.042  0.4962 -0.3627  0.2153
  131CHL1  H18A15908   1.598   6.205   4.088  2.2253 -1.2471  0.6480
  131CHL1  H18B15909   1.600   6.317   3.946  2.7272  1.7329 -0.5251
  131CHL1  H18C15910   1.754   6.258   4.017 -0.9200 -2.5157 -3.5903
  131CHL1   C1215911   1.523   6.450   4.200  1.0091  0.1213  0.2353
  131CHL1  H12A15912   1.497   6.362   4.263  0.0694 -0.4913 -0.9580
  131CHL1  H12B15913   1.534   6.536   4.269 -1.2242  0.6295  0.0429
  131CHL1   C1115914   1.410   6.481   4.095  0.0636  0.1371 -0.4574
  131CHL1  H11A15915   1.385   6.392   4.034 -1.5295  0.0130  0.3358
  131CHL1  H11B15916   1.316   6.489   4.154 -0.0749  2.2499 -0.8941
  131CHL1    C915917   1.447   6.606   4.015  0.1345  0.8152  0.1811
  131CHL1    H915918   1.464   6.686   4.090 -0.9384 -0.9358  2.4196
  131CHL1   C1015919   1.339   6.662   3.921 -0.3758 -1.0108 -0.5069
  131CHL1   C1915920   1.290   6.552   3.817 -0.6073 -0.1519  0.0868
  131CHL1  H19A15921   1.211   6.585   3.746 -0.7809 -1.9391 -0.6008
  131CHL1  H19B15922   1.367   6.522   3.744  0.1909 -2.9291  1.9326
  131CHL1  H19C15923   1.232   6.463   3.850 -1.1306 -0.4904 -1.6632
  131CHL1    C115924   1.215   6.702   4.007 -0.3855  0.6466 -0.0728
  131CHL1   H1A15925   1.158   6.614   4.042 -1.9162  2.0538  1.1653
  131CHL1   H1B15926   1.250   6.765   4.092 -2.3108  3.2538 -1.0719
  131CHL1    C215927   1.115   6.789   3.935 -0.0503 -0.4637 -0.9786
  131CHL1   H2A15928   1.037   6.826   4.004 -1.0776  0.9776 -2.8296
  131CHL1   H2B15929   1.071   6.724   3.856  0.4004  1.8205 -3.2480
  131CHL1   C2015930   1.793   6.273   4.313 -0.3451  0.7506  0.0476
  131CHL1   H2015931   1.697   6.223   4.337  1.1715 -2.4336  0.0404
  131CHL1   C2115932   1.858   6.311   4.445  0.3052 -0.4220  0.0950
  131CHL1  H21A15933   1.902   6.220   4.489  0.4558 -0.7029 -0.6314
  131CHL1  H21B15934   1.775   6.344   4.511  1.2896 -1.9358  2.1898
  131CHL1  H21C15935   1.939   6.386   4.435  1.1681 -1.2701  0.6263
  131CHL1   C2215936   1.869   6.151   4.253  0.3071  0.1670 -0.2966
  131CHL1  H22A15937   1.866   6.130   4.144  0.5422 -0.6988 -0.1466
  131CHL1  H22B15938   1.976   6.182   4.251  0.4508 -0.3378 -0.8104
  131CHL1   C2315939   1.839   6.012   4.313  0.5394  0.4027 -0.4337
  131CHL1  H23A15940   1.859   6.008   4.422  3.1776  1.6523 -0.7895
  131CHL1  H23B15941   1.730   5.994   4.306  0.4650  0.5938  0.2452
  131CHL1   C2415942   1.931   5.900   4.247  0.3481 -0.4662  0.0926
  131CHL1  H24A15943   1.898   5.878   4.143 -0.1729 -0.6071  0.2832
  131CHL1  H24B15944   2.036   5.935   4.240  0.6836 -1.5316 -0.4179
  131CHL1   C2515945   1.931   5.763   4.319  0.2458  0.2096 -0.7673
  131CHL1   H2515946   1.826   5.740   4.347  0.7124 -0.8083  0.2521
  131CHL1   C2615947   2.005   5.660   4.232  0.4674  0.0959  0.5224
  131CHL1  H26A15948   1.968   5.656   4.127  2.9144 -0.4701 -0.3852
  131CHL1  H26B15949   2.114   5.677   4.226  0.2501  1.6704  0.6755
  131CHL1  H26C15950   1.993   5.558   4.273  2.3849 -0.7373 -0.8363
  131CHL1   C2715951   2.006   5.755   4.455  0.4557  0.3615 -0.0799
  131CHL1  H27A15952   2.015   5.649   4.484  1.7484  0.6928  0.8014
  131CHL1  H27B15953   2.109   5.797   4.449  0.2640  0.6992 -1.4185
  131CHL1  H27C15954   1.951   5.806   4.536  0.2573 -2.9571  2.0272
  132CHL1    C315955   4.355   0.308   3.459 -0.1249 -0.0242 -0.0328
  132CHL1    H315956   4.245   0.317   3.468 -0.1030 -0.8904  1.4385
  132CHL1    O315957   4.388   0.311   3.321  0.1924  0.2044  0.0778
  132CHL1   H3'15958   4.480   0.282   3.316  0.2595  0.4717 -0.2708
  132CHL1    C415959   4.419   0.430   3.529 -0.5798  0.2383  0.5511
  132CHL1   H4A15960   4.526   0.433   3.498 -0.7420 -0.9707 -0.1955
  132CHL1   H4B15961   4.375   0.519   3.479  1.2224  0.3447 -0.9766
  132CHL1    C515962   4.405   0.417   3.683 -0.2049 -0.1673 -0.0037
  132CHL1    C615963   4.364   0.530   3.750  0.6888  0.2756  0.5653
  132CHL1    H615964   4.355   0.621   3.690 -1.5124 -1.9439 -2.8243
  132CHL1    C715965   4.344   0.521   3.896 -0.0175 -0.0922 -0.1479
  132CHL1   H7A15966   4.381   0.616   3.941 -0.9204  1.0756 -1.7846
  132CHL1   H7B15967   4.234   0.511   3.903 -0.4652  2.5417 -1.7855
  132CHL1    C815968   4.401   0.403   3.972 -0.5482  1.0353  0.9104
  132CHL1    H815969   4.511   0.414   3.975 -0.0335 -2.9064  1.2402
  132CHL1   C1415970   4.335   0.397   4.112 -0.4189  0.8807 -0.2165
  132CHL1   H1415971   4.230   0.369   4.088 -0.5960  0.1169  1.3371
  132CHL1   C1515972   4.322   0.515   4.212  0.6296  0.1648 -0.4330
  132CHL1  H15A15973   4.421   0.566   4.215  0.4136  0.5622  2.7813
  132CHL1  H15B15974   4.240   0.581   4.175 -0.7013 -1.5967 -0.7398
  132CHL1   C1615975   4.280   0.453   4.346 -0.5401  0.1474 -0.8518
  132CHL1  H16A15976   4.346   0.484   4.430 -0.4226  2.5929 -1.7892
  132CHL1  H16B15977   4.176   0.480   4.373 -0.8811  0.2740 -2.2218
  132CHL1   C1715978   4.290   0.300   4.321 -0.5133  0.0052  0.0810
  132CHL1   H1715979   4.192   0.267   4.281  0.6590 -1.8154 -1.4329
  132CHL1   C1315980   4.387   0.284   4.195 -0.0445  0.6332 -0.0263
  132CHL1   C1815981   4.532   0.302   4.238  0.2365 -0.5624  0.3579
  132CHL1  H18A15982   4.604   0.301   4.153  0.7907  2.6271  0.6725
  132CHL1  H18B15983   4.533   0.403   4.283 -0.7221 -0.3914  0.0222
  132CHL1  H18C15984   4.572   0.232   4.315  2.6684  1.6901  1.2854
  132CHL1   C1215985   4.364   0.152   4.123 -0.4185 -0.1274 -0.2789
  132CHL1  H12A15986   4.408   0.069   4.183  0.8584  1.5963  1.2840
  132CHL1  H12B15987   4.255   0.133   4.116 -0.6653  1.0810 -0.0090
  132CHL1   C1115988   4.425   0.152   3.979 -0.4394  0.0051 -0.4183
  132CHL1  H11A15989   4.535   0.156   3.995 -0.3996  2.1776 -0.9259
  132CHL1  H11B15990   4.404   0.056   3.927  2.5123 -0.1430 -1.5353
  132CHL1    C915991   4.372   0.270   3.894 -0.2965 -0.1294 -0.8633
  132CHL1    H915992   4.262   0.254   3.881 -0.9911  2.1327  1.4633
  132CHL1   C1015993   4.427   0.280   3.752 -0.5544 -0.5907  0.3296
  132CHL1   C1915994   4.578   0.248   3.750  0.8823  1.1303 -0.3648
  132CHL1  H19A15995   4.626   0.272   3.653 -2.4554  1.4437 -2.0876
  132CHL1  H19B15996   4.626   0.304   3.833  1.6234 -3.0141  2.2881
  132CHL1  H19C15997   4.584   0.140   3.774 -0.0854  0.9446 -0.9029
  132CHL1    C115998   4.361   0.169   3.664  0.4678 -0.2056  0.1893
  132CHL1   H1A15999   4.389   0.075   3.717  1.2249 -0.4307 -0.5696
  132CHL1   H1B16000   4.251   0.175   3.672  0.0601 -1.0690 -3.2379
  132CHL1    C216001   4.401   0.172   3.519 -0.6888 -0.3808 -0.1037
  132CHL1   H2A16002   4.363   0.082   3.466 -2.5225  0.1943  0.1608
  132CHL1   H2B16003   4.512   0.178   3.516 -0.7374  3.2390  0.1366
  132CHL1   C2016004   4.313   0.213   4.442 -0.0223  0.0839 -0.2675
  132CHL1   H2016005   4.332   0.111   4.402  0.1727  0.3766 -0.9432
  132CHL1   C2116006   4.175   0.220   4.517 -0.2824  0.4952 -0.0609
  132CHL1  H21A16007   4.184   0.151   4.604 -0.7116  1.5577  0.8389
  132CHL1  H21B16008   4.091   0.180   4.456 -0.3409  0.1112  0.2668
  132CHL1  H21C16009   4.155   0.323   4.553  0.4894  0.7603 -0.3561
  132CHL1   C2216010   4.425   0.251   4.536 -0.6235 -0.1121 -0.4587
  132CHL1  H22A16011   4.505   0.310   4.485 -0.7830  3.1499  2.6347
  132CHL1  H22B16012   4.397   0.326   4.613  0.4854  2.1018 -2.0845
  132CHL1   C2316013   4.489   0.128   4.610 -0.0585 -0.1793 -0.9116
  132CHL1  H23A16014   4.417   0.071   4.672  1.5322 -1.6762 -0.3549
  132CHL1  H23B16015   4.528   0.062   4.530  1.4268  0.7237 -0.9610
  132CHL1   C2416016   4.625   0.160   4.690 -0.2527 -0.0467 -0.2432
  132CHL1  H24A16017   4.667   0.059   4.708 -0.4266  0.3697  3.0905
  132CHL1  H24B16018   4.687   0.222   4.622 -1.4739  1.7070  0.1745
  132CHL1   C2516019   4.601   0.237   4.823 -0.1788  0.5598 -0.2614
  132CHL1   H2516020   4.540   0.327   4.799  1.3256  2.0233  1.0946
  132CHL1   C2616021   4.522   0.144   4.912  0.5242 -0.6848  0.4395
  132CHL1  H26A16022   4.526   0.163   5.022  0.0215 -0.5222  0.4312
  132CHL1  H26B16023   4.415   0.138   4.885  0.4165 -0.6763  0.8530
  132CHL1  H26C16024   4.566   0.043   4.896  1.4335  0.0435 -2.0349
  132CHL1   C2716025   4.728   0.287   4.894 -0.2921  0.2302  0.8826
  132CHL1  H27A16026   4.693   0.327   4.991 -1.5919  2.2955 -0.3742
  132CHL1  H27B16027   4.804   0.210   4.921  2.7701  2.1978 -1.4171
  132CHL1  H27C16028   4.774   0.366   4.831 -1.1786  0.5625  0.6410
  133CHL1    C316029   2.710   2.664   3.913  0.3347  0.3265 -0.3636
  133CHL1    H316030   2.609   2.712   3.910  1.0344  1.8436 -1.2110
  133CHL1    O316031   2.758   2.664   3.782  0.5448  0.0483  0.5707
  133CHL1   H3'16032   2.706   2.594   3.742  0.2908 -1.6886  3.6398
  133CHL1    C416033   2.799   2.745   4.007  0.0956  0.6892  0.3418
  133CHL1   H4A16034   2.904   2.709   4.000 -0.4389 -1.1814  1.2152
  133CHL1   H4B16035   2.787   2.849   3.969 -2.0250  0.2795 -0.2464
  133CHL1    C516036   2.765   2.735   4.154 -0.3865 -0.0202  0.1029
  133CHL1    C616037   2.755   2.843   4.230  0.7293 -0.4841 -0.3400
  133CHL1    H616038   2.765   2.943   4.185  0.7910  0.7138  2.1511
  133CHL1    C716039   2.733   2.840   4.377  0.1942 -0.0634 -0.7884
  133CHL1   H7A16040   2.795   2.911   4.436  1.4529  0.5974 -2.7836
  133CHL1   H7B16041   2.626   2.863   4.396 -0.1334 -1.9496 -0.1303
  133CHL1    C816042   2.755   2.695   4.441 -0.5918  0.0914 -0.3612
  133CHL1    H816043   2.864   2.676   4.449 -0.6818  0.2577  1.9341
  133CHL1   C1416044   2.698   2.697   4.584  0.5907 -0.0028 -0.4197
  133CHL1   H1416045   2.591   2.724   4.573  0.4215 -1.1661 -2.0130
  133CHL1   C1516046   2.744   2.800   4.687  0.1890  0.2551 -0.9419
  133CHL1  H15A16047   2.855   2.790   4.693  0.0731 -0.3654  0.8988
  133CHL1  H15B16048   2.707   2.895   4.644  0.0623 -0.3913 -2.3359
  133CHL1   C1616049   2.696   2.738   4.821 -0.4316  0.5081 -0.1431
  133CHL1  H16A16050   2.791   2.714   4.873 -0.8123  0.2987  0.4742
  133CHL1  H16B16051   2.642   2.801   4.894 -0.8772 -2.3338  2.1706
  133CHL1   C1716052   2.629   2.601   4.794  0.3348  0.6695  0.7269
  133CHL1   H1716053   2.522   2.618   4.768  0.2969 -0.8382 -0.2343
  133CHL1   C1316054   2.692   2.558   4.659  0.4373  0.2645  0.1559
  133CHL1   C1816055   2.836   2.510   4.695 -0.5181  0.0646 -0.0235
  133CHL1  H18A16056   2.893   2.516   4.599 -2.4453  0.9392 -1.1616
  133CHL1  H18B16057   2.887   2.567   4.775 -2.6484 -1.3276  2.4472
  133CHL1  H18C16058   2.827   2.403   4.723  0.2104 -0.0012 -0.0114
  133CHL1   C1216059   2.617   2.450   4.563 -0.5517 -0.4050  0.2330
  133CHL1  H12A16060   2.617   2.354   4.619 -0.1523 -0.0635  0.8282
  133CHL1  H12B16061   2.513   2.487   4.549 -0.4734 -0.0254  0.6398
  133CHL1   C1116062   2.688   2.447   4.430 -0.4632  0.2250  0.6050
  133CHL1  H11A16063   2.790   2.412   4.455 -0.3258 -0.3225 -0.6014
  133CHL1  H11B16064   2.635   2.370   4.369 -1.4492  0.5311  1.0633
  133CHL1    C916065   2.687   2.586   4.356  0.3892  0.1968 -0.5242
  133CHL1    H916066   2.579   2.611   4.357 -0.0983 -1.7121 -0.1383
  133CHL1   C1016067   2.736   2.592   4.210  0.2299  0.9404 -0.0935
  133CHL1   C1916068   2.869   2.518   4.217  0.6736 -0.0442 -0.6000
  133CHL1  H19A16069   2.844   2.411   4.233  0.1366  0.2265  0.4274
  133CHL1  H19B16070   2.923   2.525   4.120  1.7154  3.3576  0.0904
  133CHL1  H19C16071   2.940   2.568   4.287 -0.2615  1.4872 -0.6960
  133CHL1    C116072   2.646   2.518   4.117 -0.1007 -0.1415  0.5500
  133CHL1   H1A16073   2.632   2.411   4.146  0.5202 -0.1529  0.8340
  133CHL1   H1B16074   2.548   2.570   4.123 -0.6998 -1.2777  1.0382
  133CHL1    C216075   2.694   2.522   3.967 -0.1185  0.4170  0.1060
  133CHL1   H2A16076   2.610   2.482   3.906 -0.1018  0.4453  0.0640
  133CHL1   H2B16077   2.785   2.461   3.951 -0.8286 -1.0224  1.3543
  133CHL1   C2016078   2.638   2.505   4.916 -0.2394  0.4301 -0.4022
  133CHL1   H2016079   2.742   2.479   4.942 -0.8892 -3.1798 -0.9595
  133CHL1   C2116080   2.552   2.371   4.883 -0.6568  0.4277 -0.4298
  133CHL1  H21A16081   2.548   2.310   4.976  0.9213 -0.4081 -0.8722
  133CHL1  H21B16082   2.585   2.307   4.799 -3.1199 -0.1744 -1.0051
  133CHL1  H21C16083   2.450   2.413   4.870 -1.3168 -0.9106  0.2994
  133CHL1   C2216084   2.577   2.569   5.039 -0.5570 -0.0739  0.2389
  133CHL1  H22A16085   2.617   2.670   5.059 -1.3883  0.2262  0.4329
  133CHL1  H22B16086   2.466   2.581   5.040 -0.7205 -1.4759  1.0476
  133CHL1   C2316087   2.616   2.502   5.176  0.0674  0.9937  0.9274
  133CHL1  H23A16088   2.603   2.392   5.168  1.6505  0.9183 -2.0393
  133CHL1  H23B16089   2.725   2.506   5.198  0.0180 -1.5983  2.0078
  133CHL1   C2416090   2.526   2.551   5.290 -0.1060  0.3655 -0.7306
  133CHL1  H24A16091   2.541   2.661   5.302 -2.7135  0.6927  0.1637
  133CHL1  H24B16092   2.418   2.534   5.271  0.0882 -2.3306  0.1272
  133CHL1   C2516093   2.559   2.476   5.430 -0.4949 -0.3954 -0.3371
  133CHL1   H2516094   2.664   2.501   5.457 -0.1893 -0.6205 -1.2942
  133CHL1   C2616095   2.465   2.537   5.537 -0.2773  0.1071 -0.3152
  133CHL1  H26A16096   2.460   2.483   5.634 -1.1941  2.0580  0.7964
  133CHL1  H26B16097   2.499   2.637   5.571  0.2211  0.4467 -1.7578
  133CHL1  H26C16098   2.362   2.551   5.497  0.0960  0.0802 -1.2885
  133CHL1   C2716099   2.536   2.316   5.431  0.4041  0.0105  0.1377
  133CHL1  H27A16100   2.550   2.275   5.533  0.7276 -1.3476 -0.4308
  133CHL1  H27B16101   2.437   2.289   5.390  0.5453 -0.1400 -0.1113
  133CHL1  H27C16102   2.604   2.271   5.354 -2.2673 -1.3664 -1.5765
  134CHL1    C316103   7.547   2.639   3.652 -0.1129  0.6872 -0.2613
  134CHL1    H316104   7.576   2.536   3.622 -2.3951 -0.5588  1.4843
  134CHL1    O316105   7.578   2.713   3.536  0.5642  0.4533 -0.2119
  134CHL1   H3'16106   7.518   2.788   3.535 -1.5616 -1.1303  1.0031
  134CHL1    C416107   7.400   2.641   3.679  0.2498  0.1935 -0.2713
  134CHL1   H4A16108   7.366   2.747   3.672 -1.6046 -0.3538 -0.2723
  134CHL1   H4B16109   7.358   2.591   3.589 -1.4138  1.4681 -0.2638
  134CHL1    C516110   7.356   2.578   3.810  0.6286 -1.2378 -0.3754
  134CHL1    C616111   7.255   2.487   3.808  0.1271 -0.2534  0.3043
  134CHL1    H616112   7.194   2.471   3.717  1.5505 -2.7908 -0.2962
  134CHL1    C716113   7.211   2.414   3.934  0.1586 -0.3768  0.0813
  134CHL1   H7A16114   7.101   2.427   3.944  0.2861  2.2814 -0.9574
  134CHL1   H7B16115   7.232   2.306   3.922 -0.6169 -0.5423  0.1374
  134CHL1    C816116   7.272   2.471   4.066 -0.3432  0.1963 -0.4914
  134CHL1    H816117   7.219   2.564   4.097  0.7476 -0.2607  3.3836
  134CHL1   C1416118   7.258   2.366   4.181  0.1096  0.4076  0.1452
  134CHL1   H1416119   7.331   2.284   4.165 -0.5274 -0.2698  0.6280
  134CHL1   C1516120   7.121   2.295   4.196  0.1975 -0.1789  0.1501
  134CHL1  H15A16121   7.041   2.371   4.183 -1.9751 -2.3719 -0.1906
  134CHL1  H15B16122   7.113   2.216   4.118  2.0198  0.0548 -0.3229
  134CHL1   C1616123   7.134   2.244   4.343 -0.5045 -0.6251  0.0224
  134CHL1  H16A16124   7.036   2.244   4.395  0.1360 -0.0728  1.2685
  134CHL1  H16B16125   7.163   2.137   4.335 -0.8009 -0.9092  2.3061
  134CHL1   C1716126   7.255   2.314   4.420  0.1742 -0.0507  1.1041
  134CHL1   H1716127   7.336   2.239   4.432 -0.3193 -0.8970 -0.5681
  134CHL1   C1316128   7.303   2.420   4.322 -0.5933  0.0639  0.6234
  134CHL1   C1816129   7.218   2.553   4.357  0.0257 -0.2005 -0.0638
  134CHL1  H18A16130   7.250   2.642   4.298  2.0592 -0.3788  0.6894
  134CHL1  H18B16131   7.108   2.538   4.353  0.2802 -1.9818 -2.2625
  134CHL1  H18C16132   7.246   2.596   4.455 -0.5111  0.7176 -0.2927
  134CHL1   C1216133   7.455   2.445   4.305  0.3093  0.8265  0.6065
  134CHL1  H12A16134   7.504   2.483   4.397  1.3401  0.4073  0.2427
  134CHL1  H12B16135   7.513   2.352   4.286  0.8636  1.3334 -0.2367
  134CHL1   C1116136   7.485   2.539   4.184  0.0472 -0.3821 -0.0303
  134CHL1  H11A16137   7.449   2.636   4.226  0.4604 -1.0772  2.0588
  134CHL1  H11B16138   7.594   2.539   4.161 -0.4996  0.4654 -3.0965
  134CHL1    C916139   7.420   2.505   4.049  0.0652 -0.4643 -0.3755
  134CHL1    H916140   7.469   2.413   4.012 -1.9669 -1.3649 -0.9656
  134CHL1   C1016141   7.448   2.604   3.936  0.3090  0.3155  0.4947
  134CHL1   C1916142   7.397   2.746   3.986 -0.0647  0.1869  0.3424
  134CHL1  H19A16143   7.411   2.826   3.910 -2.0223  0.7862  0.5549
  134CHL1  H19B16144   7.294   2.753   4.027  0.0033  1.3394  0.3536
  134CHL1  H19C16145   7.465   2.775   4.069 -0.3963  0.5040  0.5017
  134CHL1    C116146   7.594   2.602   3.894 -0.1735 -0.4657  0.4791
  134CHL1   H1A16147   7.649   2.654   3.976  2.1425  1.9259 -2.3828
  134CHL1   H1B16148   7.633   2.499   3.887  1.1136 -0.0846  1.5488
  134CHL1    C216149   7.630   2.686   3.770 -0.1148 -0.5561 -0.1421
  134CHL1   H2A16150   7.739   2.678   3.753  0.1914  1.2619  0.7440
  134CHL1   H2B16151   7.599   2.793   3.774  0.7979 -0.2579 -0.6608
  134CHL1   C2016152   7.224   2.358   4.562  0.1643  0.1890  0.6500
  134CHL1   H2016153   7.143   2.434   4.556 -0.6426 -0.6979 -0.0040
  134CHL1   C2116154   7.358   2.407   4.627 -1.0415  0.2137  0.1172
  134CHL1  H21A16155   7.345   2.426   4.735 -0.5325 -2.2921  0.6660
  134CHL1  H21B16156   7.386   2.497   4.567 -2.1953  1.4807  1.4051
  134CHL1  H21C16157   7.437   2.329   4.621 -0.1928  1.0293  0.5205
  134CHL1   C2216158   7.173   2.244   4.646  0.8439 -0.7349 -0.2337
  134CHL1  H22A16159   7.114   2.168   4.590 -0.8030  0.6532 -0.4707
  134CHL1  H22B16160   7.263   2.195   4.689  0.5370 -0.7370  0.4163
  134CHL1   C2316161   7.082   2.289   4.763  0.9536 -0.3740  0.2136
  134CHL1  H23A16162   7.122   2.380   4.813  1.3248 -0.1592 -0.4614
  134CHL1  H23B16163   6.988   2.319   4.712  1.9658  2.2264 -0.3003
  134CHL1   C2416164   7.077   2.176   4.869 -0.4603  0.2118  0.4815
  134CHL1  H24A16165   7.057   2.080   4.816  1.2159 -0.6568  1.3541
  134CHL1  H24B16166   7.174   2.167   4.920 -0.9945  0.3147  1.5379
  134CHL1   C2516167   6.974   2.194   4.981  0.2631  0.1087  0.5281
  134CHL1   H2516168   6.992   2.105   5.045 -2.1495 -0.4766  0.4735
  134CHL1   C2616169   6.987   2.325   5.064 -0.3445  0.1095  0.1006
  134CHL1  H26A16170   7.083   2.317   5.119 -2.0906  0.1542  3.4063
  134CHL1  H26B16171   6.994   2.408   4.990 -0.6324 -0.4048 -0.5172
  134CHL1  H26C16172   6.905   2.340   5.137  0.9566  0.9347  1.4395
  134CHL1   C2716173   6.825   2.173   4.942  0.1192 -0.5226 -0.0696
  134CHL1  H27A16174   6.754   2.164   5.026  2.7650 -1.1546  2.2401
  134CHL1  H27B16175   6.792   2.257   4.878  0.3564  1.5780  2.4252
  134CHL1  H27C16176   6.818   2.078   4.884 -0.0022 -0.9623  0.6488
  135CHL1    C316177   0.621   3.239   3.556  0.2250  0.2559 -0.4775
  135CHL1    H316178   0.524   3.274   3.599  0.1528  1.0924 -1.2751
  135CHL1    O316179   0.602   3.233   3.412 -0.2610  0.1506 -0.1769
  135CHL1   H3'16180   0.670   3.175   3.375  0.3313  1.4964 -1.3044
  135CHL1    C416181   0.735   3.334   3.597 -0.3324 -0.3076  0.4418
  135CHL1   H4A16182   0.829   3.294   3.552 -0.0009  3.0055 -2.2551
  135CHL1   H4B16183   0.722   3.433   3.548  2.2154  0.5081  1.2346
  135CHL1    C516184   0.751   3.358   3.743  0.1870 -0.6347  0.0967
  135CHL1    C616185   0.731   3.477   3.812 -0.3155 -0.1718 -0.2282
  135CHL1    H616186   0.693   3.559   3.750  3.5923  1.7863 -0.3675
  135CHL1    C716187   0.745   3.496   3.960  0.0142 -0.2347  0.6502
  135CHL1   H7A16188   0.800   3.590   3.985  0.7514 -0.7544  1.0378
  135CHL1   H7B16189   0.645   3.513   4.005 -0.3279  0.0348 -0.1980
  135CHL1    C816190   0.820   3.377   4.024  0.1865 -0.2257 -0.2277
  135CHL1    H816191   0.927   3.382   3.996  0.2878 -2.0921 -0.2598
  135CHL1   C1416192   0.808   3.386   4.176  0.5377  0.2437  0.0115
  135CHL1   H1416193   0.701   3.362   4.194  0.3888  0.2400 -0.8714
  135CHL1   C1516194   0.836   3.521   4.247 -0.4891  0.4767  0.5825
  135CHL1  H15A16195   0.925   3.568   4.198 -1.2837  0.1320 -1.2979
  135CHL1  H15B16196   0.744   3.582   4.242 -1.2987 -0.5479  2.2586
  135CHL1   C1616197   0.862   3.479   4.392 -1.0253  0.2584  0.3727
  135CHL1  H16A16198   0.965   3.513   4.420  0.9305 -3.6735 -1.2225
  135CHL1  H16B16199   0.785   3.515   4.464 -0.7258  0.6718  0.4929
  135CHL1   C1716200   0.846   3.326   4.396  0.3177 -0.2240  0.2379
  135CHL1   H1716201   0.739   3.300   4.403  1.1758 -4.0300  1.4585
  135CHL1   C1316202   0.889   3.282   4.251  0.0769 -0.3948 -0.4860
  135CHL1   C1816203   1.041   3.300   4.226 -0.0350 -0.2572 -0.0806
  135CHL1  H18A16204   1.082   3.199   4.246  0.3204 -0.9218 -3.5641
  135CHL1  H18B16205   1.079   3.315   4.123  1.4061  0.0152  0.4735
  135CHL1  H18C16206   1.083   3.362   4.307 -0.1429  1.0116 -0.9625
  135CHL1   C1216207   0.842   3.147   4.200 -0.6982  0.1176  0.0166
  135CHL1  H12A16208   0.910   3.067   4.236  0.6815  1.6476  0.9600
  135CHL1  H12B16209   0.740   3.133   4.242 -1.0148  0.9686 -0.4525
  135CHL1   C1116210   0.856   3.141   4.052 -0.2539 -0.0801  0.1345
  135CHL1  H11A16211   0.966   3.141   4.035 -0.2197 -2.0890  0.1297
  135CHL1  H11B16212   0.818   3.046   4.010  2.9025 -0.4521 -2.2250
  135CHL1    C916213   0.771   3.243   3.977 -0.0644 -0.2899  0.7657
  135CHL1    H916214   0.666   3.229   4.008  0.0352 -1.9814  0.4788
  135CHL1   C1016215   0.774   3.231   3.817 -0.6423 -0.8496 -0.4352
  135CHL1   C1916216   0.921   3.195   3.776 -0.0236  0.9004  0.5891
  135CHL1  H19A16217   0.943   3.098   3.825 -0.9673  0.7564  0.7519
  135CHL1  H19B16218   0.933   3.170   3.669  0.4681 -1.9975  1.2279
  135CHL1  H19C16219   0.997   3.264   3.817  0.2450  0.1692  1.3516
  135CHL1    C116220   0.677   3.113   3.770  0.0227 -0.4778  0.6566
  135CHL1   H1A16221   0.718   3.020   3.815 -0.2434 -0.6336  0.5867
  135CHL1   H1B16222   0.577   3.146   3.807 -0.1618 -1.5963  1.1933
  135CHL1    C216223   0.650   3.106   3.616 -0.1433 -0.5059  0.0631
  135CHL1   H2A16224   0.559   3.044   3.602 -1.0122  0.5450  0.9681
  135CHL1   H2B16225   0.734   3.054   3.564  1.1320  1.1284  0.4132
  135CHL1   C2016226   0.917   3.252   4.508  0.3870 -0.6138 -0.2114
  135CHL1   H2016227   1.025   3.265   4.489  0.9697 -2.0182  1.7596
  135CHL1   C2116228   0.895   3.094   4.519  0.3602 -0.7951  0.0128
  135CHL1  H21A16229   0.786   3.074   4.517  0.3818 -1.4181  2.4876
  135CHL1  H21B16230   0.922   3.058   4.620 -1.1865  1.0752  1.1748
  135CHL1  H21C16231   0.950   3.034   4.444  2.3422 -0.4494  1.1250
  135CHL1   C2216232   0.885   3.313   4.650 -0.5691 -0.2316 -0.1207
  135CHL1  H22A16233   0.951   3.247   4.711  0.0337 -0.8179 -1.3580
  135CHL1  H22B16234   0.919   3.418   4.664 -0.8684 -0.3670  1.8242
  135CHL1   C2316235   0.741   3.301   4.710 -0.0357  0.5145 -0.0338
  135CHL1  H23A16236   0.664   3.352   4.648 -1.8922 -0.2273  1.5846
  135CHL1  H23B16237   0.721   3.192   4.706  3.0759 -0.3617  3.4184
  135CHL1   C2416238   0.718   3.354   4.852 -0.4547 -0.5110 -0.4550
  135CHL1  H24A16239   0.704   3.464   4.857  0.7488 -0.3509 -0.3541
  135CHL1  H24B16240   0.619   3.316   4.885 -1.4738  0.7729 -1.8943
  135CHL1   C2516241   0.818   3.300   4.958 -1.0937 -0.8732  0.0104
  135CHL1   H2516242   0.919   3.312   4.915 -0.2422 -1.1768  1.8349
  135CHL1   C2616243   0.799   3.391   5.080 -1.0277  0.3756  0.8158
  135CHL1  H26A16244   0.695   3.382   5.118 -1.3686 -0.3396 -0.2394
  135CHL1  H26B16245   0.870   3.374   5.164  1.9116  1.4307 -1.2794
  135CHL1  H26C16246   0.822   3.496   5.056  1.0455  0.1452  1.5664
  135CHL1   C2716247   0.783   3.151   4.998 -0.6289  0.0447 -0.1538
  135CHL1  H27A16248   0.864   3.105   5.059  0.5568  2.1983 -0.0297
  135CHL1  H27B16249   0.690   3.139   5.058 -1.1647 -0.8649 -1.1351
  135CHL1  H27C16250   0.780   3.086   4.908  3.3595 -0.4589 -0.1101
  136CHL1    C316251   5.659   1.202   3.024  0.1033  0.6875  0.0661
  136CHL1    H316252   5.720   1.114   3.053 -0.7302  0.8794  2.6552
  136CHL1    O316253   5.605   1.177   2.895  0.2402 -0.2192 -0.2694
  136CHL1   H3'16254   5.556   1.094   2.894  1.4425 -0.9534  0.1812
  136CHL1    C416255   5.554   1.207   3.136 -0.2947  0.2490 -0.3856
  136CHL1   H4A16256   5.500   1.300   3.110  0.2545  0.4132 -0.9564
  136CHL1   H4B16257   5.481   1.123   3.131 -0.7489  0.7072 -2.0160
  136CHL1    C516258   5.606   1.226   3.275 -0.8508  0.3277 -0.4956
  136CHL1    C616259   5.586   1.131   3.375 -0.1729  0.5526  0.0579
  136CHL1    H616260   5.526   1.041   3.355  1.7945 -0.9616  0.6399
  136CHL1    C716261   5.619   1.153   3.518  0.4083 -0.0467  0.2719
  136CHL1   H7A16262   5.531   1.134   3.582  1.0005  0.4523  1.2510
  136CHL1   H7B16263   5.698   1.083   3.553  2.0104  1.3744 -0.3831
  136CHL1    C816264   5.669   1.300   3.543  0.0026  0.5478  0.3510
  136CHL1    H816265   5.581   1.367   3.528 -0.5583 -0.6270 -2.1779
  136CHL1   C1416266   5.731   1.312   3.682  0.0880  0.2514  0.9630
  136CHL1   H1416267   5.807   1.231   3.681 -1.4340 -1.2186  0.9056
  136CHL1   C1516268   5.636   1.281   3.798  0.4867  0.0841 -0.2485
  136CHL1  H15A16269   5.539   1.332   3.786 -0.2338 -1.1412  0.1506
  136CHL1  H15B16270   5.617   1.171   3.804  0.2786  0.1285 -0.1095
  136CHL1   C1616271   5.715   1.331   3.919  0.4892 -0.4081  0.2434
  136CHL1  H16A16272   5.647   1.392   3.982 -2.2003 -0.4134 -2.4089
  136CHL1  H16B16273   5.749   1.253   3.990  0.2788 -1.0688 -0.3699
  136CHL1   C1716274   5.837   1.409   3.860  0.0845  0.1941  0.1228
  136CHL1   H1716275   5.925   1.341   3.850  0.7455  1.0329  0.1079
  136CHL1   C1316276   5.795   1.437   3.712  0.5275  0.5760 -0.4431
  136CHL1   C1816277   5.688   1.557   3.713  0.1320 -0.1280 -0.3810
  136CHL1  H18A16278   5.613   1.549   3.794  1.5899  0.5567  1.1279
  136CHL1  H18B16279   5.735   1.656   3.731  2.1187 -0.9401 -0.8294
  136CHL1  H18C16280   5.645   1.561   3.611  0.0879 -0.0355 -0.3594
  136CHL1   C1216281   5.911   1.468   3.608  0.4815  0.3285  0.5029
  136CHL1  H12A16282   5.952   1.571   3.613 -0.8971  1.1952 -2.9856
  136CHL1  H12B16283   5.988   1.391   3.630  0.1880  0.0216  0.4659
  136CHL1   C1116284   5.860   1.460   3.462 -0.0924  0.2731 -0.0587
  136CHL1  H11A16285   5.791   1.547   3.457 -0.5168  0.0284  1.1427
  136CHL1  H11B16286   5.942   1.478   3.390 -0.0192 -0.0308 -0.0534
  136CHL1    C916287   5.767   1.341   3.431 -0.7673  0.3630 -0.3014
  136CHL1    H916288   5.828   1.249   3.419 -1.3575 -0.3418  1.7527
  136CHL1   C1016289   5.702   1.348   3.294 -0.0481 -0.3483  0.7695
  136CHL1   C1916290   5.620   1.479   3.274  0.5323 -0.0295  0.3972
  136CHL1  H19A16291   5.556   1.481   3.183 -0.0689 -3.0752  0.6654
  136CHL1  H19B16292   5.537   1.488   3.348 -1.1618 -2.1187 -1.1045
  136CHL1  H19C16293   5.683   1.570   3.288  0.1004  0.7100 -1.9899
  136CHL1    C116294   5.807   1.336   3.175 -0.1026 -0.8259 -0.5979
  136CHL1   H1A16295   5.877   1.423   3.174 -1.1138  0.0124 -0.7914
  136CHL1   H1B16296   5.875   1.249   3.183  1.5353  0.1872 -2.3284
  136CHL1    C216297   5.750   1.323   3.033  0.2227  0.2402 -0.0415
  136CHL1   H2A16298   5.840   1.299   2.973  0.1716 -1.7598  0.5720
  136CHL1   H2B16299   5.693   1.412   2.999  2.5310  1.7988 -0.0469
  136CHL1   C2016300   5.866   1.525   3.953  0.3045 -0.0636 -0.1831
  136CHL1   H2016301   5.779   1.594   3.964  1.6407  1.8258 -1.0390
  136CHL1   C2116302   5.981   1.605   3.895 -0.3461  0.7714 -0.4016
  136CHL1  H21A16303   6.068   1.542   3.866 -0.1800  0.1281  1.3662
  136CHL1  H21B16304   6.022   1.683   3.962  0.2555  1.8925 -1.9990
  136CHL1  H21C16305   5.955   1.653   3.798 -1.9415  1.8992  0.5548
  136CHL1   C2216306   5.909   1.479   4.099 -0.1450 -0.4930  0.3439
  136CHL1  H22A16307   5.913   1.574   4.156 -5.1664 -0.0144  0.3571
  136CHL1  H22B16308   5.825   1.427   4.151 -1.6668  0.9969 -0.5027
  136CHL1   C2316309   6.030   1.392   4.103 -0.0948  0.4529  0.0803
  136CHL1  H23A16310   6.012   1.294   4.052 -2.1543  1.0907 -0.5324
  136CHL1  H23B16311   6.124   1.435   4.062  0.6785  1.0417  2.3685
  136CHL1   C2416312   6.055   1.346   4.249  0.4281  0.7721 -0.0046
  136CHL1  H24A16313   6.092   1.431   4.310 -1.7284  1.6079  0.2247
  136CHL1  H24B16314   5.962   1.304   4.293  0.3333  0.6777 -0.2894
  136CHL1   C2516315   6.161   1.244   4.272 -0.9603 -0.9344 -0.4403
  136CHL1   H2516316   6.152   1.149   4.214 -2.4239 -0.1157 -1.6357
  136CHL1   C2616317   6.307   1.304   4.227  0.0168 -0.0650 -0.0653
  136CHL1  H26A16318   6.318   1.310   4.117  1.2736  1.2637  0.1033
  136CHL1  H26B16319   6.328   1.407   4.265  1.5936 -1.0726  2.0420
  136CHL1  H26C16320   6.385   1.258   4.292  0.0873 -1.2250 -0.9493
  136CHL1   C2716321   6.185   1.205   4.418  0.7898  0.1903 -0.1268
  136CHL1  H27A16322   6.089   1.160   4.452  1.5796 -1.5151 -0.0291
  136CHL1  H27B16323   6.271   1.135   4.434 -0.3128 -0.7866  1.9180
  136CHL1  H27C16324   6.200   1.295   4.481  1.1137  0.1161 -0.0948
  137CHL1    C316325   2.226   2.067   3.510  0.1464  0.0492 -0.1214
  137CHL1    H316326   2.144   2.142   3.507  0.1544  0.0693  0.1872
  137CHL1    O316327   2.237   2.022   3.370 -0.1441 -0.8554  0.0045
  137CHL1   H3'16328   2.287   1.941   3.378 -0.4010 -1.3603 -2.6332
  137CHL1    C416329   2.351   2.141   3.568  0.5672  0.0541 -0.1728
  137CHL1   H4A16330   2.438   2.072   3.563  0.2032 -0.4867  0.5660
  137CHL1   H4B16331   2.379   2.221   3.497  1.5927  0.3246  0.5190
  137CHL1    C516332   2.317   2.191   3.713 -0.4974  0.1949  1.0019
  137CHL1    C616333   2.321   2.321   3.747  0.0338 -0.2302 -0.4369
  137CHL1    H616334   2.352   2.401   3.679 -0.9957 -0.6582 -1.4253
  137CHL1    C716335   2.310   2.366   3.898 -0.3666  0.4717  0.2282
  137CHL1   H7A16336   2.407   2.414   3.924 -0.4612  1.1066 -0.5380
  137CHL1   H7B16337   2.228   2.439   3.909  0.3378  1.4032 -0.5316
  137CHL1    C816338   2.304   2.240   3.993  0.5775  0.1702  0.0725
  137CHL1    H816339   2.408   2.204   4.007 -0.7976 -3.7222  1.6417
  137CHL1   C1416340   2.240   2.288   4.128 -0.2698 -0.1502 -0.5349
  137CHL1   H1416341   2.135   2.319   4.113 -0.3455  0.1192  0.4591
  137CHL1   C1516342   2.299   2.408   4.201 -1.0027 -0.7333 -0.4232
  137CHL1  H15A16343   2.410   2.416   4.194 -1.1200 -0.3348 -2.3970
  137CHL1  H15B16344   2.260   2.496   4.146 -0.6259 -1.9636 -2.7900
  137CHL1   C1616345   2.250   2.397   4.344  0.7251 -0.2573  0.1336
  137CHL1  H16A16346   2.337   2.383   4.412  1.3086  0.0851 -0.5253
  137CHL1  H16B16347   2.187   2.483   4.374 -0.4104 -1.2586  0.6754
  137CHL1   C1716348   2.186   2.256   4.356 -0.2292 -0.3677 -0.0033
  137CHL1   H1716349   2.078   2.262   4.330  0.1690  0.6859 -1.6011
  137CHL1   C1316350   2.242   2.179   4.233 -0.0093 -0.4296  0.1604
  137CHL1   C1816351   2.389   2.133   4.256  0.1372 -0.0172 -1.1792
  137CHL1  H18A16352   2.388   2.039   4.314  1.2501  0.3251 -0.5853
  137CHL1  H18B16353   2.436   2.107   4.159  1.3901  0.6693 -0.7836
  137CHL1  H18C16354   2.441   2.208   4.319 -1.8748 -1.3658  2.4135
  137CHL1   C1216355   2.144   2.071   4.181 -0.1054  0.4025  0.1737
  137CHL1  H12A16356   2.124   1.995   4.259  0.6329  0.4126  0.3827
  137CHL1  H12B16357   2.044   2.119   4.178  0.1346  0.9063  0.1464
  137CHL1   C1116358   2.186   2.017   4.041  0.4308 -0.0627  0.4506
  137CHL1  H11A16359   2.276   1.954   4.062  1.4411  1.4906  1.0174
  137CHL1  H11B16360   2.111   1.947   4.000 -0.8827  0.0989  2.4323
  137CHL1    C916361   2.221   2.127   3.934  0.7481 -0.6573 -0.2434
  137CHL1    H916362   2.122   2.171   3.913  0.8492 -0.5661 -0.5358
  137CHL1   C1016363   2.270   2.069   3.798  0.1320 -0.1267 -0.4923
  137CHL1   C1916364   2.389   1.980   3.834  0.4969 -0.6431  0.4259
  137CHL1  H19A16365   2.455   1.945   3.753 -0.4969 -2.3056  0.2747
  137CHL1  H19B16366   2.458   2.036   3.901  0.1318  1.2505 -0.7174
  137CHL1  H19C16367   2.362   1.889   3.893  0.5147 -0.4191  0.7814
  137CHL1    C116368   2.160   1.989   3.735 -0.0725  0.1179  0.2942
  137CHL1   H1A16369   2.135   1.900   3.797  3.7138 -0.8878  0.6402
  137CHL1   H1B16370   2.075   2.060   3.728 -1.3445 -1.4680 -1.3577
  137CHL1    C216371   2.190   1.947   3.594 -0.5293 -0.2631  0.1691
  137CHL1   H2A16372   2.105   1.885   3.557 -0.6753  0.4349 -0.6867
  137CHL1   H2B16373   2.278   1.880   3.599  0.0919  0.6050  1.1604
  137CHL1   C2016374   2.203   2.201   4.497  0.4241  0.1196 -0.7971
  137CHL1   H2016375   2.306   2.158   4.500 -0.0454 -1.0544  2.2876
  137CHL1   C2116376   2.110   2.082   4.523  0.1817 -0.8459  0.2893
  137CHL1  H21A16377   2.119   2.047   4.628  2.0899  1.3059  0.9183
  137CHL1  H21B16378   2.144   2.002   4.454 -3.0839 -1.7610 -0.4115
  137CHL1  H21C16379   2.005   2.108   4.501  0.0449  0.0392  1.8413
  137CHL1   C2216380   2.193   2.307   4.618 -0.1951  0.4067 -0.0404
  137CHL1  H22A16381   2.196   2.251   4.715 -1.7006 -0.9830 -0.7419
  137CHL1  H22B16382   2.281   2.374   4.611  0.7184 -0.7773 -0.3059
  137CHL1   C2316383   2.063   2.387   4.620 -0.3161 -0.1285 -0.0750
  137CHL1  H23A16384   2.054   2.456   4.533  3.5256  0.4703 -0.1907
  137CHL1  H23B16385   1.995   2.300   4.627  0.1395 -0.5430 -0.6794
  137CHL1   C2416386   2.041   2.460   4.746  0.3296 -0.0305 -0.1540
  137CHL1  H24A16387   2.038   2.384   4.827 -0.2062 -0.4572 -0.5675
  137CHL1  H24B16388   2.132   2.523   4.755 -0.5431  1.3202 -0.5875
  137CHL1   C2516389   1.907   2.540   4.750 -0.6459 -0.3256  0.5735
  137CHL1   H2516390   1.921   2.620   4.674 -1.3136 -0.2889  0.4755
  137CHL1   C2616391   1.781   2.459   4.712  0.2469  0.1181  0.4422
  137CHL1  H26A16392   1.764   2.375   4.783 -2.2982 -0.4548 -0.7197
  137CHL1  H26B16393   1.682   2.510   4.713  0.4934  0.6345  2.0353
  137CHL1  H26C16394   1.793   2.428   4.606 -1.6515 -0.4344  0.3472
  137CHL1   C2716395   1.900   2.595   4.892  0.4953  0.3087 -1.1354
  137CHL1  H27A16396   1.882   2.510   4.961 -1.9216  0.3297 -1.6305
  137CHL1  H27B16397   1.989   2.656   4.917  0.4031  1.7316 -3.9061
  137CHL1  H27C16398   1.814   2.666   4.894  0.1892 -0.0728  0.0430
  138CHL1    C316399   0.768   0.639   3.635 -0.5334 -0.5977  0.0923
  138CHL1    H316400   0.698   0.725   3.628  1.3798  1.0586  0.4238
  138CHL1    O316401   0.840   0.627   3.517 -0.4738  0.3307  0.0623
  138CHL1   H3'16402   0.793   0.557   3.470 -0.5292 -1.0519  2.0308
  138CHL1    C416403   0.872   0.680   3.734  0.6830 -0.3951 -0.2464
  138CHL1   H4A16404   0.951   0.601   3.733  0.0542 -1.0421  0.5607
  138CHL1   H4B16405   0.918   0.778   3.711 -1.4043  0.9693  1.1236
  138CHL1    C516406   0.815   0.685   3.875  0.0272  0.7585  0.1366
  138CHL1    C616407   0.824   0.802   3.942 -0.0248  0.4875 -0.2324
  138CHL1    H616408   0.882   0.884   3.899  3.4498  0.0762  3.1169
  138CHL1    C716409   0.778   0.821   4.086  0.3526 -0.2192 -0.2485
  138CHL1   H7A16410   0.857   0.871   4.145  0.0787 -0.9006  0.7195
  138CHL1   H7B16411   0.684   0.880   4.077  0.6450  0.2473 -0.2722
  138CHL1    C816412   0.746   0.685   4.154  0.0118  0.7161  0.3624
  138CHL1    H816413   0.839   0.643   4.196  0.1129 -0.2001 -0.7479
  138CHL1   C1416414   0.652   0.716   4.266 -0.2861  0.5257 -0.0729
  138CHL1   H1416415   0.561   0.758   4.219 -1.7395  0.0007  2.1396
  138CHL1   C1516416   0.690   0.826   4.377  0.7311 -0.3868 -0.0762
  138CHL1  H15A16417   0.790   0.812   4.422  0.1893 -0.2747  1.1982
  138CHL1  H15B16418   0.695   0.927   4.332  3.9965 -1.2448 -1.9862
  138CHL1   C1616419   0.575   0.803   4.480  0.3266  0.1404 -0.2351
  138CHL1  H16A16420   0.615   0.788   4.583 -0.9770 -1.1256  0.1142
  138CHL1  H16B16421   0.501   0.885   4.475 -0.2547 -0.4295 -1.3335
  138CHL1   C1716422   0.499   0.674   4.438  0.3487 -0.4450  0.1498
  138CHL1   H1716423   0.421   0.718   4.372  1.1916  3.0055  1.2468
  138CHL1   C1316424   0.592   0.596   4.344 -0.4129 -0.0683  0.3632
  138CHL1   C1816425   0.704   0.532   4.428 -0.0573 -0.0262 -0.1134
  138CHL1  H18A16426   0.728   0.610   4.503 -2.7821  1.6673 -0.8527
  138CHL1  H18B16427   0.672   0.439   4.479 -3.6923  0.6690 -0.8615
  138CHL1  H18C16428   0.793   0.494   4.373 -0.3311 -0.2321 -0.4152
  138CHL1   C1216429   0.529   0.498   4.247  0.5970  0.7648 -0.7613
  138CHL1  H12A16430   0.508   0.407   4.308  0.4588  1.5442  0.3610
  138CHL1  H12B16431   0.436   0.550   4.217  0.2019  0.4633 -0.0570
  138CHL1   C1116432   0.623   0.459   4.130 -0.2732 -1.0125 -0.6987
  138CHL1  H11A16433   0.707   0.402   4.173 -1.5611 -0.4866  2.8415
  138CHL1  H11B16434   0.557   0.403   4.060 -1.3812 -1.8331  0.9408
  138CHL1    C916435   0.671   0.588   4.057  0.1052  0.5698 -0.1651
  138CHL1    H916436   0.576   0.640   4.035 -0.4129  0.1334  0.9320
  138CHL1   C1016437   0.744   0.556   3.927 -0.4426 -0.1779  0.1539
  138CHL1   C1916438   0.851   0.442   3.958 -0.7246  0.0809  0.3014
  138CHL1  H19A16439   0.802   0.343   3.957  1.6358 -1.1512 -0.1392
  138CHL1  H19B16440   0.928   0.439   3.878 -0.7338 -0.4942  0.3131
  138CHL1  H19C16441   0.896   0.466   4.056  0.4135  0.1067 -0.2166
  138CHL1    C116442   0.642   0.509   3.820 -0.0480  0.0550  0.5551
  138CHL1   H1A16443   0.602   0.407   3.843 -1.1137  0.4409  0.4602
  138CHL1   H1B16444   0.552   0.573   3.823 -0.0506  0.0116  1.5902
  138CHL1    C216445   0.701   0.503   3.678 -0.7399  0.2952 -0.4452
  138CHL1   H2A16446   0.619   0.479   3.607 -1.8373 -0.1856  0.9350
  138CHL1   H2B16447   0.774   0.419   3.674 -3.0698 -1.7892 -1.3610
  138CHL1   C2016448   0.437   0.587   4.545 -0.1919 -0.5081  0.2555
  138CHL1   H2016449   0.417   0.487   4.502 -0.6855  0.1876 -1.1994
  138CHL1   C2116450   0.295   0.637   4.566 -0.5575 -0.7899  0.6050
  138CHL1  H21A16451   0.265   0.614   4.670  1.2347  2.7074  2.0643
  138CHL1  H21B16452   0.224   0.587   4.496 -1.8978  0.0419  1.3130
  138CHL1  H21C16453   0.288   0.746   4.543 -0.7685 -1.3502 -2.3912
  138CHL1   C2216454   0.502   0.572   4.689 -0.1273  0.4039  0.0399
  138CHL1  H22A16455   0.609   0.600   4.677  1.1825 -2.2659  3.8629
  138CHL1  H22B16456   0.458   0.647   4.759 -0.6339  1.8205 -1.6930
  138CHL1   C2316457   0.501   0.433   4.743 -0.8508  0.5386  0.9534
  138CHL1  H23A16458   0.393   0.411   4.759 -0.7975 -0.8568 -0.2647
  138CHL1  H23B16459   0.541   0.362   4.667  0.5892  2.2283  0.0626
  138CHL1   C2416460   0.568   0.406   4.873  0.0395  0.1345 -0.3007
  138CHL1  H24A16461   0.676   0.434   4.873  0.6533 -1.9906  0.3319
  138CHL1  H24B16462   0.513   0.470   4.945 -2.8718 -2.5432  0.0795
  138CHL1   C2516463   0.555   0.263   4.931  0.4578  0.2237  0.0163
  138CHL1   H2516464   0.595   0.268   5.035 -0.1337  0.7860  0.2229
  138CHL1   C2616465   0.411   0.223   4.935  0.2272 -0.5683 -0.5058
  138CHL1  H26A16466   0.400   0.151   5.019  0.8784 -0.3261 -0.2119
  138CHL1  H26B16467   0.332   0.299   4.953 -1.8144 -2.5937 -0.4045
  138CHL1  H26C16468   0.376   0.175   4.841 -0.4341 -0.3662 -0.3696
  138CHL1   C2716469   0.629   0.158   4.853  0.2281  0.3973 -0.0375
  138CHL1  H27A16470   0.579   0.153   4.754  0.6249 -1.7756 -0.1753
  138CHL1  H27B16471   0.730   0.200   4.833 -0.3217  1.4383 -0.7448
  138CHL1  H27C16472   0.637   0.063   4.909 -0.3632 -0.8270 -1.9525
  139CHL1    C316473   1.571   0.078   3.733 -0.1275 -0.2869  0.2699
  139CHL1    H316474   1.498   0.026   3.799  1.7239 -3.5313 -0.0033
  139CHL1    O316475   1.490   0.144   3.628  0.0134  0.4491 -0.2928
  139CHL1   H3'16476   1.423   0.193   3.676  0.2298  0.7965 -0.3450
  139CHL1    C416477   1.654   0.184   3.815  1.0720  0.4302  0.0917
  139CHL1   H4A16478   1.723   0.236   3.745 -0.7944 -1.3571 -3.3743
  139CHL1   H4B16479   1.586   0.266   3.845 -0.2241  0.3768 -2.4546
  139CHL1    C516480   1.723   0.115   3.933 -0.8370 -0.8412  0.3824
  139CHL1    C616481   1.700   0.138   4.060 -0.2549  0.7856 -0.0187
  139CHL1    H616482   1.634   0.220   4.093  1.9693  2.0295  1.5934
  139CHL1    C716483   1.762   0.066   4.176 -0.0681  0.2699  0.0925
  139CHL1   H7A16484   1.804   0.133   4.253  2.1382 -1.4470  0.4910
  139CHL1   H7B16485   1.673   0.013   4.219  0.0706 -0.3563 -0.3669
  139CHL1    C816486   1.881  -0.029   4.140 -0.4359 -0.4500 -0.6442
  139CHL1    H816487   1.973   0.031   4.120 -1.0818  1.0272  0.5692
  139CHL1   C1416488   1.902  -0.128   4.253  0.4565 -0.3702  0.7190
  139CHL1   H1416489   1.814  -0.194   4.245 -0.1301  0.5193 -0.4033
  139CHL1   C1516490   1.912  -0.072   4.394  0.8327  0.2838  0.3446
  139CHL1  H15A16491   1.988   0.008   4.387  2.3998 -1.0953  1.0863
  139CHL1  H15B16492   1.815  -0.036   4.435 -0.5716  0.7694 -3.0585
  139CHL1   C1616493   1.975  -0.191   4.476  0.2960  0.2651 -0.4529
  139CHL1  H16A16494   2.056  -0.148   4.538 -0.1789 -0.3792  0.6393
  139CHL1  H16B16495   1.890  -0.228   4.537 -0.2250  1.0010 -0.7047
  139CHL1   C1716496   2.004  -0.301   4.365  0.3505 -0.4383 -0.6046
  139CHL1   H1716497   1.916  -0.368   4.354  0.9717 -1.6716  1.4407
  139CHL1   C1316498   2.015  -0.226   4.232  0.6052 -0.0068 -0.0581
  139CHL1   C1816499   2.151  -0.156   4.228 -0.3543 -0.7898 -0.2355
  139CHL1  H18A16500   2.166  -0.100   4.323 -1.6757 -1.3437  0.3231
  139CHL1  H18B16501   2.235  -0.228   4.214  1.3113  1.4089 -2.3613
  139CHL1  H18C16502   2.152  -0.082   4.145 -0.7495 -1.2419 -0.6513
  139CHL1   C1216503   1.990  -0.311   4.102  0.1892 -0.1728 -0.0067
  139CHL1  H12A16504   2.075  -0.378   4.078  1.3472  1.4142 -0.5148
  139CHL1  H12B16505   1.899  -0.372   4.115 -0.0874 -0.5803 -3.2642
  139CHL1   C1116506   1.957  -0.221   3.974  0.0923 -0.4785 -0.1756
  139CHL1  H11A16507   2.050  -0.173   3.938 -0.8065  2.5245  1.1885
  139CHL1  H11B16508   1.910  -0.278   3.891 -1.3669  0.9913 -0.4351
  139CHL1    C916509   1.845  -0.110   4.016 -0.7047  0.2159  0.5271
  139CHL1    H916510   1.759  -0.170   4.052 -0.5618  0.8473  1.9823
  139CHL1   C1016511   1.810  -0.013   3.898 -0.4960 -0.7819 -0.9738
  139CHL1   C1916512   1.942   0.038   3.834  0.4091  0.1146  0.4889
  139CHL1  H19A16513   2.019   0.065   3.910 -0.7886 -1.6158  2.4334
  139CHL1  H19B16514   1.988  -0.036   3.765 -1.3156 -0.0929 -0.4908
  139CHL1  H19C16515   1.937   0.122   3.762 -0.0771 -0.8173 -0.5954
  139CHL1    C116516   1.733  -0.100   3.801  0.0961 -0.1124  0.8844
  139CHL1   H1A16517   1.784  -0.190   3.761 -0.9391 -0.5772  0.5668
  139CHL1   H1B16518   1.650  -0.148   3.858 -0.4072 -1.5682 -1.0015
  139CHL1    C216519   1.673  -0.027   3.685 -0.2239 -0.3477 -0.5262
  139CHL1   H2A16520   1.632  -0.107   3.620  0.8958 -1.8832  0.5838
  139CHL1   H2B16521   1.747   0.031   3.626  0.4693  0.3628  0.9882
  139CHL1   C2016522   2.118  -0.398   4.406 -0.1219 -1.0545  0.7203
  139CHL1   H2016523   2.215  -0.344   4.399 -0.0585 -1.1953  0.5223
  139CHL1   C2116524   2.142  -0.516   4.309  0.0573  0.8390 -0.3240
  139CHL1  H21A16525   2.044  -0.566   4.292  0.6104 -0.0662 -0.9336
  139CHL1  H21B16526   2.222  -0.584   4.346 -0.5542 -0.0710 -0.6396
  139CHL1  H21C16527   2.177  -0.493   4.206  0.1676 -1.6591 -0.9114
  139CHL1   C2216528   2.100  -0.454   4.548 -0.1922  0.1506  0.4416
  139CHL1  H22A16529   2.082  -0.371   4.620 -1.6777  1.6676 -1.5799
  139CHL1  H22B16530   2.019  -0.529   4.552  1.8076 -2.1064  1.3176
  139CHL1   C2316531   2.235  -0.514   4.596  0.2802 -0.5581 -0.7611
  139CHL1  H23A16532   2.264  -0.598   4.530  0.5846 -1.0563  0.0000
  139CHL1  H23B16533   2.316  -0.437   4.589  0.8114 -0.8895  1.1982
  139CHL1   C2416534   2.216  -0.572   4.738  0.0929  0.2760  1.1294
  139CHL1  H24A16535   2.182  -0.497   4.813  0.0116  1.0499  0.3363
  139CHL1  H24B16536   2.134  -0.647   4.729  0.2503  0.3102 -1.3676
  139CHL1   C2516537   2.331  -0.664   4.786 -0.5057  0.1571 -0.5019
  139CHL1   H2516538   2.319  -0.764   4.738  0.3621  0.0022 -0.4131
  139CHL1   C2616539   2.470  -0.601   4.759 -0.2419 -0.1142 -0.0490
  139CHL1  H26A16540   2.486  -0.520   4.834 -1.7253 -0.9627  1.2423
  139CHL1  H26B16541   2.552  -0.672   4.785 -1.8022 -1.6090  0.9662
  139CHL1  H26C16542   2.487  -0.553   4.660  0.7245 -0.2735  0.0280
  139CHL1   C2716543   2.319  -0.676   4.938 -0.6997  0.8066  0.2149
  139CHL1  H27A16544   2.383  -0.761   4.969 -0.8452 -0.0689 -1.7658
  139CHL1  H27B16545   2.341  -0.583   4.995 -1.1397  0.9970  0.0804
  139CHL1  H27C16546   2.216  -0.707   4.966  0.4407 -1.1376  2.5915
  140CHL1    C316547   1.243   0.325   3.838 -0.4716  0.2983 -0.1459
  140CHL1    H316548   1.135   0.351   3.842 -0.1383  1.6710  0.3522
  140CHL1    O316549   1.280   0.269   3.717  0.2609  0.4461  0.0374
  140CHL1   H3'16550   1.243   0.322   3.646 -0.3493 -0.0726 -0.0443
  140CHL1    C416551   1.311   0.468   3.854  0.2844 -0.0703 -0.4578
  140CHL1   H4A16552   1.419   0.440   3.861  0.4355  0.6333  0.1476
  140CHL1   H4B16553   1.292   0.534   3.766 -2.6793 -0.7899 -0.4354
  140CHL1    C516554   1.263   0.539   3.979 -0.1434  0.2857 -0.0613
  140CHL1    C616555   1.211   0.658   3.977  0.8852 -0.1445 -0.2416
  140CHL1    H616556   1.187   0.710   3.883 -0.1972  0.0652  0.1345
  140CHL1    C716557   1.165   0.734   4.097  0.5151 -1.0544  0.1243
  140CHL1   H7A16558   1.195   0.841   4.090 -1.2504 -0.6278 -2.1355
  140CHL1   H7B16559   1.053   0.736   4.097  0.4956  1.1446 -0.9144
  140CHL1    C816560   1.209   0.670   4.237  0.4180 -0.6455 -0.5666
  140CHL1    H816561   1.315   0.694   4.262  0.0010 -0.1828  0.8270
  140CHL1   C1416562   1.120   0.712   4.354 -0.2756  0.0750  0.0917
  140CHL1   H1416563   1.023   0.677   4.315  0.1657  0.4727 -1.4141
  140CHL1   C1516564   1.095   0.856   4.384 -0.0223 -0.1075 -0.7756
  140CHL1  H15A16565   1.185   0.917   4.363 -0.9423  1.0964 -1.3640
  140CHL1  H15B16566   1.024   0.899   4.309  1.4133  1.9914 -1.0419
  140CHL1   C1616567   1.040   0.856   4.525  0.7001  0.8287 -0.2363
  140CHL1  H16A16568   1.114   0.915   4.583  1.0097  0.3519 -0.1465
  140CHL1  H16B16569   0.942   0.907   4.538  0.9740  1.2351  0.2996
  140CHL1   C1716570   1.039   0.709   4.581 -0.1147  0.0620  1.2834
  140CHL1   H1716571   0.952   0.661   4.530  0.2248  0.6991  0.0534
  140CHL1   C1316572   1.151   0.641   4.487 -0.0847  0.7050  0.0601
  140CHL1   C1816573   1.289   0.679   4.540 -0.2804  0.2241  0.5073
  140CHL1  H18A16574   1.300   0.619   4.633 -0.7975  2.4463  2.0948
  140CHL1  H18B16575   1.373   0.663   4.470 -1.0557 -0.3586 -0.3014
  140CHL1  H18C16576   1.286   0.786   4.572 -1.5308  0.3892 -0.0849
  140CHL1   C1216577   1.145   0.484   4.487  0.0706 -0.2049  0.4141
  140CHL1  H12A16578   1.188   0.434   4.576 -0.4614 -1.4562 -0.0228
  140CHL1  H12B16579   1.044   0.447   4.461  0.7621 -1.4436 -0.5762
  140CHL1   C1116580   1.243   0.442   4.366  0.1701 -0.2113 -0.1978
  140CHL1  H11A16581   1.350   0.459   4.389  0.7956 -1.5068 -1.9166
  140CHL1  H11B16582   1.228   0.332   4.352  1.6388 -0.3902 -0.5417
  140CHL1    C916583   1.204   0.516   4.231 -0.3646 -0.0535 -0.4122
  140CHL1    H916584   1.098   0.490   4.209  0.2234 -1.5868 -1.6580
  140CHL1   C1016585   1.281   0.460   4.111  0.0030 -0.2466 -0.3916
  140CHL1   C1916586   1.429   0.459   4.139 -0.5961  0.2263  0.5065
  140CHL1  H19A16587   1.443   0.401   4.232 -2.8089  1.1579  1.4795
  140CHL1  H19B16588   1.488   0.411   4.058 -0.9237  0.8368 -0.1065
  140CHL1  H19C16589   1.469   0.562   4.152 -0.9865  0.2964  1.2012
  140CHL1    C116590   1.230   0.310   4.083  0.7763 -0.0072 -0.0197
  140CHL1   H1A16591   1.235   0.244   4.172  0.8002  0.8906  0.6618
  140CHL1   H1B16592   1.121   0.325   4.072  0.8317  0.4288  0.0020
  140CHL1    C216593   1.280   0.235   3.955  0.4787  0.0356  0.4485
  140CHL1   H2A16594   1.223   0.140   3.951  2.4513 -1.3657  2.6833
  140CHL1   H2B16595   1.388   0.208   3.955  0.8044  0.8277 -3.5543
  140CHL1   C2016596   1.052   0.684   4.734  0.0063  0.6396 -0.7473
  140CHL1   H2016597   1.109   0.589   4.744 -0.6047  0.5057  2.7254
  140CHL1   C2116598   0.919   0.643   4.783 -0.0291  0.0777  0.3570
  140CHL1  H21A16599   0.867   0.571   4.715  1.9908 -1.4964  0.4020
  140CHL1  H21B16600   0.857   0.733   4.803  0.5759  0.3293  1.1178
  140CHL1  H21C16601   0.926   0.592   4.881 -0.0520 -0.3090  0.1633
  140CHL1   C2216602   1.117   0.793   4.824 -0.1557 -0.0344  0.0872
  140CHL1  H22A16603   1.223   0.807   4.792  0.0971 -2.3714 -0.2351
  140CHL1  H22B16604   1.060   0.888   4.814  0.4194  0.3605  0.4937
  140CHL1   C2316605   1.134   0.749   4.974 -0.0884  0.1185 -0.5364
  140CHL1  H23A16606   1.037   0.766   5.026 -1.3659 -0.2852 -2.6316
  140CHL1  H23B16607   1.151   0.639   4.971 -3.0856 -0.4116 -2.3924
  140CHL1   C2416608   1.251   0.827   5.038  0.1177  0.4835  0.6550
  140CHL1  H24A16609   1.336   0.757   5.028 -1.5563 -1.4633 -1.2190
  140CHL1  H24B16610   1.265   0.919   4.977  2.2025  0.2733  0.7682
  140CHL1   C2516611   1.232   0.869   5.182 -0.4990 -0.1030 -0.0968
  140CHL1   H2516612   1.133   0.917   5.200 -0.4751 -0.1787  0.2352
  140CHL1   C2616613   1.336   0.981   5.227  0.5188  0.7274  0.1188
  140CHL1  H26A16614   1.316   1.079   5.179 -2.2219  0.3751  0.3716
  140CHL1  H26B16615   1.331   1.001   5.336 -0.0358  1.4531 -0.0319
  140CHL1  H26C16616   1.436   0.935   5.214  0.3185 -0.0621  1.1897
  140CHL1   C2716617   1.237   0.753   5.277 -0.2416 -0.4014  0.6696
  140CHL1  H27A16618   1.326   0.689   5.264 -0.4878 -0.4636 -0.8117
  140CHL1  H27B16619   1.220   0.777   5.385 -0.6521 -1.6117  0.8947
  140CHL1  H27C16620   1.151   0.686   5.253  0.6431 -2.1929  2.2112
  141DOPC     N16621   5.052   2.350   7.140 -0.0169 -1.0501 -0.7837
  141DOPC   C1216622   4.910   2.343   7.080  0.4791  0.0804  0.1731
  141DOPC  H12A16623   4.857   2.254   7.112  0.2604 -0.6001 -1.9346
  141DOPC  H12B16624   4.920   2.342   6.972  1.2740 -0.8530  0.2467
  141DOPC   C1316625   5.035   2.372   7.291 -0.1049  0.5266  0.2359
  141DOPC  H13A16626   5.037   2.477   7.315 -5.1810  0.4528  2.3610
  141DOPC  H13B16627   4.944   2.319   7.318  0.2656 -2.9575 -4.1428
  141DOPC  H13C16628   5.117   2.319   7.337 -0.1618 -1.1494 -1.4808
  141DOPC   C1416629   5.140   2.465   7.096 -0.1981  0.6604 -0.3784
  141DOPC  H14A16630   5.154   2.460   6.989  1.8440 -2.0526 -0.0728
  141DOPC  H14B16631   5.086   2.556   7.120  0.0983  0.9446 -0.7827
  141DOPC  H14C16632   5.236   2.460   7.145 -0.0475 -3.2342 -0.7713
  141DOPC   C1516633   5.109   2.220   7.119  0.5418  0.1847 -0.2410
  141DOPC  H15A16634   5.198   2.206   7.179  0.1237 -2.3435 -0.1188
  141DOPC  H15B16635   5.134   2.201   7.016 -1.9210 -0.7351 -0.7400
  141DOPC  H15C16636   5.039   2.143   7.145 -0.5980  0.5971 -1.9412
  141DOPC   C1116637   4.812   2.462   7.096  1.0301 -0.0206  0.1143
  141DOPC  H11A16638   4.716   2.432   7.049  0.7404  3.3004 -1.7186
  141DOPC  H11B16639   4.794   2.473   7.205  0.1585  0.3278 -0.0589
  141DOPC     P16640   4.830   2.722   7.119  0.2903 -0.1133  0.1534
  141DOPC   O1316641   4.949   2.795   7.165 -0.0800 -0.0337  0.6422
  141DOPC   O1416642   4.718   2.714   7.220  0.3574  0.3222  0.0802
  141DOPC   O1216643   4.859   2.586   7.041  0.1286  0.2682  0.2389
  141DOPC   O1116644   4.776   2.814   7.004 -0.0494 -0.7289 -0.1724
  141DOPC    C116645   4.678   2.769   6.904 -0.4292 -0.0410 -0.1128
  141DOPC    HA16646   4.574   2.793   6.934 -0.3677 -0.1227  0.1696
  141DOPC    HB16647   4.676   2.660   6.879 -1.9412  0.0856 -0.7046
  141DOPC    C216648   4.714   2.847   6.777  0.0692  0.4319  0.2110
  141DOPC    HS16649   4.825   2.846   6.766  0.1503  0.2233  0.9910
  141DOPC   O2116650   4.649   2.979   6.774 -0.5040 -0.4351  0.2536
  141DOPC   C2116651   4.724   3.068   6.722  0.3726 -0.7975  0.3590
  141DOPC   O2216652   4.845   3.064   6.711  0.3910 -0.8315 -0.5234
  141DOPC   C2216653   4.628   3.191   6.679  0.7772  0.2172  0.5205
  141DOPC   H2R16654   4.681   3.263   6.613 -0.3173 -0.0530 -0.6921
  141DOPC   H2S16655   4.608   3.243   6.775 -1.1430 -0.9257  0.7837
  141DOPC    C316656   4.675   2.771   6.654 -0.4769  0.3143  1.1457
  141DOPC    HX16657   4.564   2.769   6.650 -0.4343 -0.5248 -1.1509
  141DOPC    HY16658   4.707   2.665   6.658 -1.9738 -0.1298  2.6184
  141DOPC   O3116659   4.721   2.825   6.527 -0.7482  0.0138 -0.1250
  141DOPC   C3116660   4.851   2.821   6.503  0.2174 -0.7626 -0.2471
  141DOPC   O3216661   4.933   2.766   6.578 -0.0994  0.1531  0.0670
  141DOPC   C3216662   4.882   2.910   6.383 -0.4607 -0.1721  0.4165
  141DOPC   H2X16663   4.967   2.974   6.416  0.5761 -1.2361 -0.0812
  141DOPC   H2Y16664   4.917   2.836   6.308  0.6571  1.1851 -0.4596
  141DOPC   C2316665   4.497   3.149   6.608  0.1037 -0.4851 -0.3263
  141DOPC   H3R16666   4.429   3.096   6.678 -1.6186 -1.9334 -2.9320
  141DOPC   H3S16667   4.527   3.078   6.528  0.5404  1.1522 -1.6796
  141DOPC   C2416668   4.431   3.272   6.537 -0.4550  0.3358 -0.3781
  141DOPC   H4R16669   4.440   3.357   6.608  0.3855  0.6573 -0.8564
  141DOPC   H4S16670   4.324   3.243   6.530 -0.3604 -1.9174  3.9031
  141DOPC   C2516671   4.494   3.309   6.400  1.0830  0.2547 -0.0454
  141DOPC   H5R16672   4.482   3.225   6.329 -1.5658  0.9896 -0.5701
  141DOPC   H5S16673   4.604   3.319   6.412  1.2423 -0.9212 -0.4138
  141DOPC   C2616674   4.436   3.442   6.340 -0.1058  0.8874  0.0290
  141DOPC   H6R16675   4.460   3.530   6.404  1.1115  1.1416 -0.7442
  141DOPC   H6S16676   4.327   3.429   6.323 -0.6359  2.0349  2.1523
  141DOPC   C2716677   4.500   3.476   6.212 -0.0897  0.2820  0.0167
  141DOPC   H7R16678   4.444   3.563   6.169 -1.2563 -0.7387 -0.5772
  141DOPC   H7S16679   4.492   3.389   6.144 -1.3759 -0.2745  0.8477
  141DOPC   C2816680   4.645   3.538   6.229  0.5231 -0.1841  0.5288
  141DOPC   H8R16681   4.690   3.526   6.128  0.5908 -0.7393  0.6223
  141DOPC   H8S16682   4.702   3.466   6.292 -3.3208 -2.5092  1.6952
  141DOPC   C2916683   4.643   3.688   6.268  0.2313  0.3079 -0.4138
  141DOPC   H9R16684   4.573   3.753   6.214  0.5675  0.5770 -0.5338
  141DOPC  C21016685   4.707   3.731   6.376 -0.2495 -0.6666 -0.4198
  141DOPC  H10R16686   4.690   3.831   6.420  0.2765 -0.7703  0.0350
  141DOPC  C21116687   4.798   3.651   6.466 -0.4167  0.4894  0.4276
  141DOPC  H11R16688   4.904   3.681   6.459 -0.2503 -0.5054 -2.3623
  141DOPC  H11S16689   4.789   3.543   6.444  1.6015 -0.0536  2.0433
  141DOPC  C21216690   4.765   3.665   6.613  0.4904  0.2813 -0.2440
  141DOPC  H12R16691   4.782   3.770   6.646  0.9484  0.0564  0.2452
  141DOPC  H12S16692   4.823   3.594   6.675 -0.8604 -0.1993  0.5155
  141DOPC  C21316693   4.615   3.633   6.652 -0.3488  0.3370  0.4871
  141DOPC  H13R16694   4.582   3.530   6.626 -2.0513  0.9381  0.1569
  141DOPC  H13S16695   4.549   3.701   6.594  0.2486  1.0912  0.6755
  141DOPC  C21416696   4.602   3.640   6.801  0.9075  0.2726  0.3126
  141DOPC  H14R16697   4.591   3.746   6.831 -1.1985 -0.0292  0.7501
  141DOPC  H14S16698   4.693   3.602   6.853  0.4780 -1.7351 -0.3095
  141DOPC  C21516699   4.476   3.558   6.846 -0.1804 -0.3377  0.3814
  141DOPC  H15R16700   4.483   3.561   6.957  2.8035 -1.0614  0.3156
  141DOPC  H15S16701   4.502   3.456   6.812 -0.0527  0.4924 -2.1883
  141DOPC  C21616702   4.342   3.612   6.791 -0.2333  0.2339  0.5303
  141DOPC  H16R16703   4.340   3.593   6.682  2.0577  1.4903  0.2193
  141DOPC  H16S16704   4.348   3.720   6.818  1.7536 -0.2455  2.1795
  141DOPC  C21716705   4.224   3.561   6.879 -0.4714  0.1357  0.1355
  141DOPC  H17R16706   4.125   3.602   6.848 -0.3321 -0.9723 -2.0416
  141DOPC  H17S16707   4.244   3.578   6.986 -0.3516 -1.3743  0.3781
  141DOPC  C21816708   4.213   3.410   6.868 -0.0511  0.6855  0.3979
  141DOPC  H18R16709   4.148   3.377   6.952 -1.0577 -1.3128 -1.1017
  141DOPC  H18S16710   4.315   3.366   6.880 -0.0405  0.2060 -1.2133
  141DOPC  H18T16711   4.160   3.379   6.776  2.4019 -2.1934 -0.1934
  141DOPC   C3316712   4.777   3.002   6.317  0.5856 -0.2593 -0.0446
  141DOPC   H3X16713   4.755   3.090   6.381  2.4455  0.1040  0.1413
  141DOPC   H3Y16714   4.687   2.942   6.291  0.5548 -0.2419  0.0233
  141DOPC   C3416715   4.832   3.054   6.184 -0.0518  0.1804  0.6192
  141DOPC   H4X16716   4.862   2.961   6.130  0.8122  0.0900  1.2338
  141DOPC   H4Y16717   4.916   3.126   6.188 -1.1177  1.4465  0.7452
  141DOPC   C3516718   4.722   3.122   6.105 -0.0183  0.4303 -0.1559
  141DOPC   H5X16719   4.712   3.225   6.144  1.8223  0.7217 -0.3657
  141DOPC   H5Y16720   4.625   3.072   6.127 -0.3723  1.1288 -0.1146
  141DOPC   C3616721   4.736   3.128   5.948 -0.0373  0.1270 -0.4810
  141DOPC   H6X16722   4.830   3.176   5.912 -0.8108  0.7151 -1.7943
  141DOPC   H6Y16723   4.732   3.021   5.917 -1.5526 -0.8783  2.7754
  141DOPC   C3716724   4.617   3.209   5.890  0.5029 -0.0583  0.1526
  141DOPC   H7X16725   4.527   3.162   5.935  1.5476 -1.9996  0.3246
  141DOPC   H7Y16726   4.617   3.318   5.914 -0.4009  0.0859 -0.4759
  141DOPC   C3816727   4.613   3.181   5.742  0.7093  0.2782  1.0792
  141DOPC   H8X16728   4.587   3.073   5.738 -0.9262  0.6843 -0.2653
  141DOPC   H8Y16729   4.717   3.192   5.704  1.5794 -2.0965  2.5341
  141DOPC   C3916730   4.511   3.267   5.669  0.0516 -0.5445 -0.0245
  141DOPC   H9X16731   4.458   3.335   5.737  1.8573  1.8942 -0.9359
  141DOPC  C31016732   4.499   3.265   5.535 -0.2127  0.2695  0.1277
  141DOPC  H10X16733   4.436   3.345   5.492 -1.7835 -0.6874  0.5442
  141DOPC  C31116734   4.569   3.181   5.435  0.2180 -0.0708 -0.4971
  141DOPC  H11X16735   4.500   3.111   5.383 -0.3768  1.9350 -2.5899
  141DOPC  H11Y16736   4.650   3.119   5.479  0.5370  0.5068 -0.2625
  141DOPC  C31216737   4.632   3.265   5.320 -0.7951 -0.5312  0.2924
  141DOPC  H12X16738   4.708   3.337   5.358 -0.3112  0.0090 -1.6039
  141DOPC  H12Y16739   4.549   3.328   5.281 -0.9871  0.0839  1.6378
  141DOPC  C31316740   4.692   3.187   5.205 -0.5831 -0.3297  0.1219
  141DOPC  H13X16741   4.769   3.116   5.242 -1.2289 -1.3057 -0.3532
  141DOPC  H13Y16742   4.613   3.119   5.166 -0.5575 -0.6892  0.6758
  141DOPC  C31416743   4.749   3.275   5.096  0.3675 -0.5142 -0.2582
  141DOPC  H14X16744   4.683   3.362   5.077  1.2533  0.4149  0.8007
  141DOPC  H14Y16745   4.843   3.322   5.133 -0.9439  0.5098  1.9658
  141DOPC  C31516746   4.772   3.195   4.961 -0.4825  0.8144  0.5209
  141DOPC  H15X16747   4.678   3.149   4.924  0.6046 -3.2109  2.1755
  141DOPC  H15Y16748   4.843   3.112   4.983  0.0205  1.4600  1.4192
  141DOPC  C31616749   4.830   3.284   4.845  0.0910 -0.1350  0.3066
  141DOPC  H16X16750   4.795   3.389   4.849  0.6786  0.0351  1.6525
  141DOPC  H16Y16751   4.938   3.287   4.871 -0.3231  1.2278  2.0935
  141DOPC  C31716752   4.810   3.234   4.698 -0.6436 -0.2856  0.2518
  141DOPC  H17X16753   4.892   3.271   4.633 -2.0638 -0.3642 -1.6386
  141DOPC  H17Y16754   4.828   3.125   4.697 -0.1824 -0.2389 -2.0451
  141DOPC  C31816755   4.674   3.262   4.632 -0.3185 -0.6234 -0.0498
  141DOPC  H18X16756   4.664   3.372   4.630 -0.4182 -0.6381 -0.3270
  141DOPC  H18Y16757   4.655   3.226   4.529 -1.0781 -0.0696 -0.1111
  141DOPC  H18Z16758   4.590   3.229   4.698 -1.5139  0.9198 -0.7378
  142DOPC     N16759   5.667   3.373   7.476  0.3695  0.4046 -0.0932
  142DOPC   C1216760   5.633   3.511   7.425  0.3909 -0.0968 -0.3999
  142DOPC  H12A16761   5.696   3.581   7.477 -0.5149  0.0293  0.5650
  142DOPC  H12B16762   5.534   3.535   7.460 -0.2357 -2.3900 -0.4667
  142DOPC   C1316763   5.613   3.267   7.382  0.5410  0.5293  0.0360
  142DOPC  H13A16764   5.510   3.288   7.357  0.8745 -0.3140 -2.2399
  142DOPC  H13B16765   5.668   3.272   7.289 -0.4172  1.6016 -0.4903
  142DOPC  H13C16766   5.639   3.173   7.429 -0.7329 -0.2614 -0.7791
  142DOPC   C1416767   5.607   3.359   7.606 -0.5641 -0.0592 -0.5383
  142DOPC  H14A16768   5.499   3.363   7.598 -0.8535  1.3758  2.5838
  142DOPC  H14B16769   5.629   3.264   7.652  0.5907  0.3238 -0.2612
  142DOPC  H14C16770   5.639   3.438   7.672  1.9792 -1.7698  0.4119
  142DOPC   C1516771   5.819   3.358   7.496  0.5918 -0.6297 -0.1261
  142DOPC  H15A16772   5.844   3.256   7.519  2.2937 -0.4382 -0.9327
  142DOPC  H15B16773   5.849   3.424   7.577 -0.1576  1.7686 -1.6971
  142DOPC  H15C16774   5.878   3.386   7.410  0.0838 -3.5176 -1.5057
  142DOPC   C1116775   5.641   3.535   7.275  0.5021  0.2481  0.1617
  142DOPC  H11A16776   5.552   3.496   7.221  1.8351  0.5885 -2.4314
  142DOPC  H11B16777   5.634   3.645   7.258 -1.1024  0.3250  1.0742
  142DOPC     P16778   5.890   3.546   7.193  0.2847 -0.4414  0.0121
  142DOPC   O1316779   5.991   3.484   7.273  0.5382  0.1382 -0.1194
  142DOPC   O1416780   5.873   3.690   7.215  0.2210 -0.3391  0.1384
  142DOPC   O1216781   5.753   3.478   7.210  0.6741  0.1444  0.1820
  142DOPC   O1116782   5.920   3.515   7.044  0.2265  0.3461 -0.1208
  142DOPC    C116783   5.844   3.567   6.934  0.1158  0.3927  0.9362
  142DOPC    HA16784   5.903   3.628   6.861 -2.0178  2.9346  1.1532
  142DOPC    HB16785   5.758   3.630   6.967  0.1727  0.7106  0.5057
  142DOPC    C216786   5.787   3.458   6.835  1.1800  0.6678 -0.2372
  142DOPC    HS16787   5.723   3.507   6.758  0.5653  1.8244  0.9740
  142DOPC   O2116788   5.711   3.361   6.906 -0.2562 -0.6623 -0.4712
  142DOPC   C2116789   5.590   3.400   6.940 -0.8816  0.0260  0.5076
  142DOPC   O2216790   5.541   3.503   6.895  0.6262 -0.1907  0.1919
  142DOPC   C2216791   5.515   3.289   7.017  0.8355  0.0249  0.1129
  142DOPC   H2R16792   5.408   3.318   7.011  0.8187  0.0350  0.4390
  142DOPC   H2S16793   5.545   3.286   7.124  0.0242 -0.6957  0.3249
  142DOPC    C316794   5.898   3.385   6.758  0.4134 -0.0155  1.0465
  142DOPC    HX16795   5.868   3.293   6.704  3.3724  0.8371 -2.4815
  142DOPC    HY16796   5.966   3.347   6.838 -0.0355 -3.4517 -0.0614
  142DOPC   O3116797   5.965   3.468   6.664 -0.7476 -0.4711  0.1074
  142DOPC   C3116798   6.092   3.463   6.654 -0.3799 -1.1149  0.3506
  142DOPC   O3216799   6.171   3.398   6.719  0.3135 -0.1515 -0.5361
  142DOPC   C3216800   6.137   3.543   6.529  0.3121 -0.4284 -0.2395
  142DOPC   H2X16801   6.069   3.631   6.525 -0.3783 -0.9941 -1.3634
  142DOPC   H2Y16802   6.235   3.578   6.568 -0.9912  0.1076  2.8672
  142DOPC   C2316803   5.537   3.158   6.945 -0.4353  0.1644  0.1199
  142DOPC   H3R16804   5.519   3.075   7.017 -2.5694 -0.4513 -1.0406
  142DOPC   H3S16805   5.643   3.145   6.912 -0.7604 -2.0107 -0.2248
  142DOPC   C2416806   5.434   3.138   6.830  0.0357 -0.2844  0.6794
  142DOPC   H4R16807   5.405   3.236   6.786  0.8049 -1.1370 -1.8898
  142DOPC   H4S16808   5.343   3.094   6.875  0.4346 -1.1616  0.6385
  142DOPC   C2516809   5.487   3.038   6.737 -0.0966  0.4916 -0.4946
  142DOPC   H5R16810   5.483   2.945   6.798 -2.1237  0.4842 -0.5824
  142DOPC   H5S16811   5.589   3.050   6.693  0.5400 -1.0290  0.4736
  142DOPC   C2616812   5.393   3.005   6.617  0.3693 -0.0776  0.4804
  142DOPC   H6R16813   5.359   3.093   6.558  0.7642 -0.3597 -0.1809
  142DOPC   H6S16814   5.302   2.965   6.667 -0.1051  0.7698  0.3123
  142DOPC   C2716815   5.461   2.900   6.531  0.1513  0.4329  0.1106
  142DOPC   H7R16816   5.479   2.810   6.592  0.1088  1.1241  1.1693
  142DOPC   H7S16817   5.559   2.940   6.498 -0.2866  1.6510  0.2009
  142DOPC   C2816818   5.362   2.844   6.416  0.4697 -0.3395 -0.1049
  142DOPC   H8R16819   5.284   2.772   6.449  1.6735 -1.5401  0.1986
  142DOPC   H8S16820   5.418   2.779   6.345  0.9408  0.8872 -0.8911
  142DOPC   C2916821   5.296   2.959   6.341  0.3838 -0.0135 -0.9486
  142DOPC   H9R16822   5.209   3.000   6.394  0.1563 -1.3921 -0.2228
  142DOPC  C21016823   5.302   2.976   6.210 -0.4169  0.2841  0.4064
  142DOPC  H10R16824   5.220   3.040   6.173 -2.2372 -1.8768  0.4984
  142DOPC  C21116825   5.398   2.913   6.109 -0.4392  0.4512  0.8947
  142DOPC  H11R16826   5.359   2.815   6.075  1.4455 -0.3597  0.9463
  142DOPC  H11S16827   5.496   2.886   6.154 -0.3581  1.8193  1.5862
  142DOPC  C21216828   5.437   2.995   5.983  0.3944 -0.6368  0.9130
  142DOPC  H12R16829   5.481   3.091   6.016 -1.7630  0.1739  1.5966
  142DOPC  H12S16830   5.343   3.032   5.937  1.5932 -1.3657 -2.3797
  142DOPC  C21316831   5.520   2.917   5.881 -0.2910 -0.7499  0.0865
  142DOPC  H13R16832   5.504   2.807   5.888 -0.5950 -0.7428 -0.4205
  142DOPC  H13S16833   5.628   2.929   5.902 -0.4646  0.0958  0.5790
  142DOPC  C21416834   5.473   2.949   5.735  0.1830 -0.1390  0.3887
  142DOPC  H14R16835   5.367   2.920   5.719  0.2867 -0.2765 -0.0666
  142DOPC  H14S16836   5.533   2.883   5.668  1.0002 -0.5580  1.5049
  142DOPC  C21516837   5.496   3.096   5.700 -0.2929 -0.1619 -0.0905
  142DOPC  H15R16838   5.594   3.129   5.738 -0.2568 -1.6307  1.1929
  142DOPC  H15S16839   5.419   3.157   5.752 -0.0327  1.1584 -1.1960
  142DOPC  C21616840   5.494   3.117   5.546 -0.9917 -0.6640 -0.1187
  142DOPC  H16R16841   5.410   3.060   5.501  0.9832 -3.1886 -0.8598
  142DOPC  H16S16842   5.584   3.078   5.494 -1.2766 -2.8740  0.9622
  142DOPC  C21716843   5.494   3.265   5.504  0.0658  0.0528  0.1650
  142DOPC  H17R16844   5.391   3.297   5.530  0.2681  2.6368 -1.8323
  142DOPC  H17S16845   5.506   3.287   5.395 -3.1975  1.0146 -0.1172
  142DOPC  C21816846   5.586   3.357   5.583  0.6593  0.3479  0.0434
  142DOPC  H18R16847   5.560   3.362   5.691 -0.8507 -1.1441 -0.2084
  142DOPC  H18S16848   5.578   3.458   5.538 -1.9958 -0.2755 -1.1206
  142DOPC  H18T16849   5.683   3.305   5.569 -0.9641 -3.0980  0.4348
  142DOPC   C3316850   6.166   3.462   6.401  0.2670 -0.2174  0.1661
  142DOPC   H3X16851   6.227   3.370   6.416 -1.0164 -1.4367 -1.7094
  142DOPC   H3Y16852   6.222   3.530   6.334  2.4711 -0.2787  1.8167
  142DOPC   C3416853   6.036   3.424   6.335 -0.4834  0.8416  0.4250
  142DOPC   H4X16854   5.994   3.524   6.308  2.8148  2.1507 -0.4129
  142DOPC   H4Y16855   5.962   3.365   6.392 -1.9921  1.1976 -1.0768
  142DOPC   C3516856   6.060   3.350   6.194  0.6859 -0.0120  0.4247
  142DOPC   H5X16857   6.150   3.285   6.205  1.0263  0.4574  0.4412
  142DOPC   H5Y16858   6.092   3.428   6.122  1.6192 -1.4401 -0.7863
  142DOPC   C3616859   5.941   3.271   6.145  0.0617  0.2934 -0.6477
  142DOPC   H6X16860   5.888   3.221   6.229 -0.1280  0.5526 -0.6128
  142DOPC   H6Y16861   5.874   3.334   6.083 -2.5291 -2.6673 -1.0947
  142DOPC   C3716862   5.987   3.171   6.034 -0.7954  0.6481 -0.6935
  142DOPC   H7X16863   6.056   3.230   5.969 -0.1171 -1.8652 -2.4152
  142DOPC   H7Y16864   6.043   3.087   6.081  0.3692  1.0408 -1.3499
  142DOPC   C3816865   5.881   3.124   5.934  0.2099 -0.1457 -0.8109
  142DOPC   H8X16866   5.838   3.214   5.887  1.8724  1.5529  0.7717
  142DOPC   H8Y16867   5.794   3.073   5.982  0.1506 -0.8677 -1.6583
  142DOPC   C3916868   5.939   3.017   5.846 -0.7784  0.2840  1.4482
  142DOPC   H9X16869   5.975   2.932   5.905  0.1848  0.8560  1.7018
  142DOPC  C31016870   5.952   3.025   5.711  0.1731  0.1558 -0.3225
  142DOPC  H10X16871   5.987   2.940   5.651 -1.3968 -0.5558 -0.2615
  142DOPC  C31116872   5.916   3.151   5.633 -0.0937 -0.4105  0.1208
  142DOPC  H11X16873   5.942   3.250   5.677  0.2703 -0.9073  1.0591
  142DOPC  H11Y16874   5.807   3.153   5.611 -0.3034  0.4723  1.1629
  142DOPC  C31216875   5.991   3.150   5.502  0.6385  0.1802  0.1530
  142DOPC  H12X16876   5.946   3.061   5.452 -1.0998  0.5735  0.9397
  142DOPC  H12Y16877   6.102   3.144   5.511  0.5044 -0.6525  1.6331
  142DOPC  C31316878   5.945   3.278   5.421  0.1428 -0.0121 -0.5682
  142DOPC  H13X16879   5.836   3.295   5.426  0.2380  0.8213 -1.1712
  142DOPC  H13Y16880   5.980   3.364   5.482 -2.2312  0.7109 -0.1356
  142DOPC  C31416881   6.001   3.283   5.279 -0.0331  1.1051  0.0195
  142DOPC  H14X16882   6.111   3.286   5.286  0.2170 -1.2305 -1.7963
  142DOPC  H14Y16883   5.985   3.190   5.220 -1.4098  1.5509 -0.3629
  142DOPC  C31516884   5.962   3.410   5.198 -0.6380  0.1354  0.7595
  142DOPC  H15X16885   5.986   3.507   5.245  1.2124 -0.1988  0.5527
  142DOPC  H15Y16886   5.850   3.406   5.195 -0.6031 -1.2679  0.1000
  142DOPC  C31616887   5.996   3.395   5.044  0.5282  0.7719  0.1043
  142DOPC  H16X16888   6.107   3.402   5.036  0.8300 -0.7860  2.0556
  142DOPC  H16Y16889   5.975   3.292   5.008  2.1998  0.7432 -0.9297
  142DOPC  C31716890   5.921   3.496   4.955 -0.4337  0.2797  0.4378
  142DOPC  H17X16891   5.814   3.467   4.947 -0.2380 -0.5883  0.8785
  142DOPC  H17Y16892   5.933   3.588   5.016 -2.2006  1.0522 -0.3223
  142DOPC  C31816893   5.990   3.512   4.818  0.0563 -0.0920 -1.2891
  142DOPC  H18X16894   5.929   3.584   4.759  0.0331 -0.8815 -2.2407
  142DOPC  H18Y16895   6.087   3.562   4.836  0.4546 -1.4040  0.4127
  142DOPC  H18Z16896   5.990   3.409   4.777  0.9529 -0.9550  0.7616
  143DOPC     N16897   2.967   3.433   7.418  0.0286 -0.7454 -0.1538
  143DOPC   C1216898   2.971   3.550   7.318 -0.4128 -0.2417 -0.2099
  143DOPC  H12A16899   2.925   3.522   7.224 -1.9844 -0.6657  0.6385
  143DOPC  H12B16900   3.075   3.568   7.298 -0.7991 -0.3249 -2.5927
  143DOPC   C1316901   2.976   3.483   7.555  0.5288 -0.5578  0.3454
  143DOPC  H13A16902   2.957   3.408   7.631  0.6982  1.9956  3.0851
  143DOPC  H13B16903   3.080   3.510   7.565  0.0251  1.5711  0.1685
  143DOPC  H13C16904   2.908   3.566   7.570  0.5252 -0.7516  1.5000
  143DOPC   C1416905   3.084   3.342   7.381 -0.4603 -0.2332 -1.1116
  143DOPC  H14A16906   3.183   3.381   7.399 -1.2123  1.1949  0.0733
  143DOPC  H14B16907   3.074   3.254   7.443 -0.7381  0.5917  0.0482
  143DOPC  H14C16908   3.085   3.317   7.276 -1.1071 -0.8426 -0.9804
  143DOPC   C1516909   2.840   3.353   7.406  0.2231 -0.3038 -0.2938
  143DOPC  H15A16910   2.833   3.279   7.485  0.7055 -0.9865 -0.8772
  143DOPC  H15B16911   2.832   3.317   7.305  0.4826  2.9209 -1.5789
  143DOPC  H15C16912   2.758   3.423   7.414 -2.1128 -2.6953 -1.7297
  143DOPC   C1116913   2.902   3.691   7.352 -1.2781 -0.5593 -0.6249
  143DOPC  H11A16914   2.951   3.740   7.439 -0.4846 -1.4395 -0.5519
  143DOPC  H11B16915   2.914   3.755   7.262  0.8774 -0.4835 -0.3377
  143DOPC     P16916   2.665   3.649   7.266 -0.3231  0.4546 -0.1924
  143DOPC   O1316917   2.559   3.747   7.284  0.4943 -0.2631 -0.2281
  143DOPC   O1416918   2.613   3.508   7.255  0.5043  0.0203 -0.6370
  143DOPC   O1216919   2.770   3.657   7.392  0.3223 -0.8566 -0.0943
  143DOPC   O1116920   2.733   3.679   7.127 -0.3527 -0.3194  0.0192
  143DOPC    C116921   2.665   3.667   7.006  0.2264 -0.7302 -0.1074
  143DOPC    HA16922   2.700   3.743   6.933 -1.6189  1.5841  1.2746
  143DOPC    HB16923   2.556   3.685   7.017  0.3738 -0.6527  1.4262
  143DOPC    C216924   2.693   3.529   6.936 -0.2594  0.3565  0.7514
  143DOPC    HS16925   2.661   3.444   7.000 -2.2105  0.0838 -0.5042
  143DOPC   O2116926   2.826   3.526   6.883 -0.6220  0.1693  0.0044
  143DOPC   C2116927   2.919   3.478   6.964  0.7043  0.0080  0.4509
  143DOPC   O2216928   2.894   3.428   7.074 -0.1530 -0.9460  0.7049
  143DOPC   C2216929   3.058   3.510   6.903  0.2100  0.4217 -0.1206
  143DOPC   H2R16930   3.132   3.468   6.974  1.5657  2.7665 -0.0648
  143DOPC   H2S16931   3.076   3.620   6.900  3.2972 -0.0024 -0.8929
  143DOPC    C316932   2.605   3.531   6.808  0.1029  0.5602  0.0806
  143DOPC    HX16933   2.501   3.503   6.833 -0.6482  0.7235 -2.5566
  143DOPC    HY16934   2.644   3.456   6.735  2.3588  0.1509  1.6122
  143DOPC   O3116935   2.598   3.662   6.745 -0.3771  1.2372  0.0107
  143DOPC   C3116936   2.520   3.667   6.637  0.3560  0.0700 -0.1911
  143DOPC   O3216937   2.452   3.574   6.596 -0.2265  0.4788 -0.0553
  143DOPC   C3216938   2.521   3.806   6.573  0.7261  0.1725  0.3026
  143DOPC   H2X16939   2.484   3.875   6.651 -0.8663 -0.3936  0.0873
  143DOPC   H2Y16940   2.624   3.824   6.538  0.0362  2.2970 -0.7511
  143DOPC   C2316941   3.072   3.431   6.774  0.3069  1.3786  0.0829
  143DOPC   H3R16942   2.986   3.464   6.712 -0.6103  0.3463  0.7539
  143DOPC   H3S16943   3.058   3.321   6.781 -0.0684  1.2358 -2.0858
  143DOPC   C2416944   3.203   3.462   6.704  0.4772 -0.0473  0.3827
  143DOPC   H4R16945   3.288   3.426   6.767  1.1150  0.0264 -0.4145
  143DOPC   H4S16946   3.222   3.571   6.698 -0.7843  0.2293  1.1740
  143DOPC   C2516947   3.220   3.402   6.562  0.0817  0.0017  0.6677
  143DOPC   H5R16948   3.155   3.457   6.491  1.5557  1.5629  0.4694
  143DOPC   H5S16949   3.188   3.297   6.583  0.6564 -0.1806  0.6274
  143DOPC   C2616950   3.360   3.412   6.516  0.2771 -0.2284  0.2863
  143DOPC   H6R16951   3.411   3.320   6.550 -2.5000 -1.9859  0.0015
  143DOPC   H6S16952   3.404   3.501   6.567 -1.7444  1.0096  0.0040
  143DOPC   C2716953   3.382   3.427   6.365 -0.1091  0.3451 -0.2660
  143DOPC   H7R16954   3.327   3.518   6.334  0.5322  0.3925 -1.3098
  143DOPC   H7S16955   3.352   3.330   6.318  2.2858  0.5425 -2.4542
  143DOPC   C2816956   3.532   3.459   6.324 -0.2148  0.2893 -0.6109
  143DOPC   H8R16957   3.586   3.377   6.377 -2.3037  0.2940  1.7596
  143DOPC   H8S16958   3.576   3.552   6.365 -1.4517  0.6884 -0.1157
  143DOPC   C2916959   3.550   3.457   6.179  0.6049 -0.0797  0.0439
  143DOPC   H9R16960   3.464   3.477   6.114  1.9465 -0.3580 -1.8993
  143DOPC  C21016961   3.666   3.438   6.114 -0.0401  0.1481  0.1726
  143DOPC  H10R16962   3.669   3.462   6.007  0.6702  2.6633  0.6975
  143DOPC  C21116963   3.803   3.412   6.180  0.4704 -0.2680  0.2814
  143DOPC  H11R16964   3.840   3.310   6.154  2.3705  0.5710 -0.4623
  143DOPC  H11S16965   3.780   3.416   6.289 -0.4955  0.1909  0.0738
  143DOPC  C21216966   3.921   3.499   6.163 -0.3230  0.1513 -0.2537
  143DOPC  H12R16967   3.933   3.500   6.052 -0.7102 -3.2006 -0.4312
  143DOPC  H12S16968   4.015   3.461   6.209  0.2055  0.8527 -0.7208
  143DOPC  C21316969   3.906   3.640   6.204  0.4983 -0.2242 -0.7099
  143DOPC  H13R16970   3.807   3.678   6.171 -0.2930  0.0041  1.7501
  143DOPC  H13S16971   3.980   3.703   6.149  1.2417  0.7497  1.3099
  143DOPC  C21416972   3.907   3.679   6.353 -0.5324 -0.4442  0.1412
  143DOPC  H14R16973   4.012   3.684   6.390 -0.4394 -1.4437  0.0208
  143DOPC  H14S16974   3.857   3.602   6.415  0.5993 -1.7587 -0.5248
  143DOPC  C21516975   3.842   3.813   6.366  0.0814  0.2053 -0.3620
  143DOPC  H15R16976   3.748   3.812   6.306 -0.8601 -2.0369  1.0026
  143DOPC  H15S16977   3.910   3.878   6.307  1.1760  0.5545  1.2333
  143DOPC  C21616978   3.805   3.859   6.510  0.0210  0.7056  0.4467
  143DOPC  H16R16979   3.747   3.783   6.567  1.0118 -0.1453  0.3468
  143DOPC  H16S16980   3.745   3.950   6.488  0.1383  0.8667  0.7867
  143DOPC  C21716981   3.936   3.883   6.602 -0.7300  0.2816 -0.2016
  143DOPC  H17R16982   4.011   3.921   6.530 -0.1960 -1.3494 -0.5549
  143DOPC  H17S16983   3.984   3.785   6.627 -0.8753 -0.4653 -2.5533
  143DOPC  C21816984   3.920   3.973   6.727  0.1820  0.3441  0.0765
  143DOPC  H18R16985   4.012   3.967   6.790 -0.1943  0.4336  0.6347
  143DOPC  H18S16986   3.830   3.935   6.780  0.4358  0.5298  0.6457
  143DOPC  H18T16987   3.916   4.078   6.693 -1.0107  0.1657 -0.3841
  143DOPC   C3316988   2.437   3.821   6.445 -0.3410 -0.0346 -0.2563
  143DOPC   H3X16989   2.329   3.830   6.469 -0.3764  1.7119 -0.8971
  143DOPC   H3Y16990   2.456   3.723   6.396  2.4132 -0.2598  1.0807
  143DOPC   C3416991   2.480   3.935   6.360  0.3900  0.3830 -0.3073
  143DOPC   H4X16992   2.591   3.935   6.349  0.8546 -3.2902  2.4657
  143DOPC   H4Y16993   2.455   4.031   6.410  0.0473  1.1327 -1.8615
  143DOPC   C3516994   2.410   3.944   6.220 -0.2640  0.1623 -0.0033
  143DOPC   H5X16995   2.301   3.930   6.238 -0.6450  0.5104 -1.8625
  143DOPC   H5Y16996   2.461   3.878   6.147 -1.3965  1.0761 -1.7071
  143DOPC   C3616997   2.434   4.080   6.160 -0.4300  0.4858 -0.1433
  143DOPC   H6X16998   2.430   4.162   6.235 -1.5697 -0.7773  1.2252
  143DOPC   H6Y16999   2.541   4.094   6.131  0.2735 -0.1562  1.9538
  143DOPC   C3717000   2.329   4.108   6.047  0.3629 -0.0661  0.0632
  143DOPC   H7X17001   2.322   4.021   5.979 -0.2219  1.4949 -1.9717
  143DOPC   H7Y17002   2.226   4.105   6.089  1.0348 -2.4186  1.7612
  143DOPC   C3817003   2.351   4.229   5.957 -0.3609  0.4456  0.1645
  143DOPC   H8X17004   2.449   4.224   5.904  0.1488  3.2586  0.6561
  143DOPC   H8Y17005   2.360   4.313   6.030  1.5740 -0.2888  0.8373
  143DOPC   C3917006   2.243   4.235   5.854 -0.6314  0.2323  0.1036
  143DOPC   H9X17007   2.141   4.239   5.895 -0.5507 -2.3128  0.7180
  143DOPC  C31017008   2.257   4.259   5.722  0.6698 -0.6415  0.7265
  143DOPC  H10X17009   2.164   4.244   5.665  1.0245 -1.2428  0.2970
  143DOPC  C31117010   2.379   4.291   5.642 -0.3783 -1.0053 -0.5164
  143DOPC  H11X17011   2.418   4.208   5.579  2.5456 -1.2733  1.4320
  143DOPC  H11Y17012   2.450   4.306   5.726 -1.2126 -1.7588  0.3358
  143DOPC  C31217013   2.362   4.429   5.566  0.5760 -0.4057 -0.0153
  143DOPC  H12X17014   2.455   4.461   5.516  0.0564  0.4270 -0.4687
  143DOPC  H12Y17015   2.329   4.506   5.639 -1.5893 -0.1410 -1.1663
  143DOPC  C31317016   2.257   4.418   5.451 -0.5034 -0.8969 -0.3582
  143DOPC  H13X17017   2.290   4.329   5.394  0.4071 -2.0116  1.8081
  143DOPC  H13Y17018   2.159   4.395   5.498  0.7815  0.3302  3.3099
  143DOPC  C31417019   2.244   4.546   5.359 -0.5797 -0.5305 -0.1638
  143DOPC  H14X17020   2.203   4.631   5.417 -2.3700 -1.0219 -0.6704
  143DOPC  H14Y17021   2.346   4.575   5.325 -1.0593 -2.8054 -4.1753
  143DOPC  C31517022   2.156   4.509   5.239  0.0597  0.0535  0.2444
  143DOPC  H15X17023   2.063   4.455   5.264 -0.2972  0.9290  0.8212
  143DOPC  H15Y17024   2.207   4.428   5.182  1.9915  0.8937  0.6981
  143DOPC  C31617025   2.119   4.619   5.139  0.1313 -0.2381 -0.1374
  143DOPC  H16X17026   2.042   4.686   5.183 -0.6068 -0.2237 -1.3843
  143DOPC  H16Y17027   2.212   4.676   5.118  0.3833 -0.5138  0.2215
  143DOPC  C31717028   2.059   4.560   5.014  0.5860  0.4583  0.0762
  143DOPC  H17X17029   2.123   4.476   4.979 -0.4510 -0.3869  0.1518
  143DOPC  H17Y17030   1.972   4.511   5.062  0.6635  2.3140  2.3054
  143DOPC  C31817031   2.039   4.662   4.904 -0.2039  0.2111  0.5274
  143DOPC  H18X17032   2.135   4.718   4.893  0.3536 -1.0717 -1.9019
  143DOPC  H18Y17033   2.017   4.623   4.802  0.0088 -1.9707  1.2643
  143DOPC  H18Z17034   1.961   4.739   4.923 -0.2433  0.0802  0.9024
  144DOPC     N17035   3.978   3.876   7.513 -0.0721 -0.5798  0.4026
  144DOPC   C1217036   3.868   3.805   7.450  0.0026  0.3239  0.5437
  144DOPC  H12A17037   3.799   3.767   7.523 -3.5741  2.1320 -1.6101
  144DOPC  H12B17038   3.912   3.715   7.410  1.7670 -0.0287  3.0382
  144DOPC   C1317039   4.043   3.794   7.626 -0.0257 -0.6519  0.0371
  144DOPC  H13A17040   4.049   3.693   7.589 -0.4642 -0.6030 -0.1795
  144DOPC  H13B17041   4.141   3.834   7.648 -1.2146  2.4609  0.2633
  144DOPC  H13C17042   3.982   3.783   7.715 -0.3879 -0.6824 -0.2117
  144DOPC   C1417043   3.935   4.010   7.573  0.2634  0.1629 -0.4222
  144DOPC  H14A17044   3.869   4.061   7.504  1.9772  4.3596  0.7030
  144DOPC  H14B17045   3.883   4.000   7.667  0.0556  1.5211 -0.3774
  144DOPC  H14C17046   4.016   4.072   7.609 -1.3426  2.3266 -0.3263
  144DOPC   C1517047   4.093   3.905   7.417 -0.4728 -0.3370  0.2309
  144DOPC  H15A17048   4.054   3.966   7.337  1.8965 -1.5483 -2.0368
  144DOPC  H15B17049   4.121   3.811   7.370 -1.3851  0.3193 -1.7464
  144DOPC  H15C17050   4.182   3.947   7.462 -0.9369 -1.4696  2.3363
  144DOPC   C1117051   3.781   3.870   7.338 -0.2892 -0.0559 -0.6605
  144DOPC  H11A17052   3.745   3.970   7.369 -0.6527  0.1152 -1.5985
  144DOPC  H11B17053   3.840   3.871   7.244  1.9847 -2.0704  0.6202
  144DOPC     P17054   3.649   3.643   7.282 -0.2966  0.4095  0.1031
  144DOPC   O1317055   3.555   3.564   7.372  0.1645  0.2171  0.2460
  144DOPC   O1417056   3.783   3.585   7.267 -0.2401  0.4956  0.8091
  144DOPC   O1217057   3.657   3.794   7.328  0.4210 -0.0574  0.6023
  144DOPC   O1117058   3.578   3.654   7.137 -0.1768  0.3384 -0.2930
  144DOPC    C117059   3.572   3.767   7.055  0.4478 -0.1803  0.3052
  144DOPC    HA17060   3.667   3.825   7.064 -0.5887  1.4729  1.2547
  144DOPC    HB17061   3.488   3.831   7.089 -0.3650 -0.6040 -0.8849
  144DOPC    C217062   3.525   3.720   6.914  0.0228  0.6970  0.2035
  144DOPC    HS17063   3.425   3.673   6.914 -0.3630  1.3820 -2.3608
  144DOPC   O2117064   3.621   3.628   6.853  0.2074  0.5488 -0.7243
  144DOPC   C2117065   3.611   3.500   6.874 -1.2613 -0.3686  0.3255
  144DOPC   O2217066   3.529   3.445   6.941 -0.9151  0.7280  0.0974
  144DOPC   C2217067   3.736   3.431   6.815  0.6280  0.3192  0.6970
  144DOPC   H2R17068   3.723   3.326   6.847 -2.7012 -0.4682 -2.5521
  144DOPC   H2S17069   3.829   3.471   6.861  2.5120 -1.9184 -0.8955
  144DOPC    C317070   3.514   3.836   6.812  0.1011 -0.4420  0.1788
  144DOPC    HX17071   3.607   3.896   6.812  0.2060 -0.5972 -0.2697
  144DOPC    HY17072   3.439   3.908   6.849  1.2615 -0.3420  2.5385
  144DOPC   O3117073   3.484   3.797   6.675 -0.3850  0.1423 -0.2829
  144DOPC   C3117074   3.466   3.890   6.582  0.1965  0.8315 -0.3585
  144DOPC   O3217075   3.471   4.007   6.599 -0.1878 -0.1165 -0.2745
  144DOPC   C3217076   3.434   3.825   6.447  0.2152 -0.5036  0.1401
  144DOPC   H2X17077   3.518   3.756   6.423  0.7154  0.6099 -1.4639
  144DOPC   H2Y17078   3.338   3.771   6.461 -1.2641  0.6034 -4.1512
  144DOPC   C2317079   3.746   3.430   6.657 -0.4606  0.7285 -0.0539
  144DOPC   H3R17080   3.836   3.485   6.623 -0.0418  0.3851  0.4806
  144DOPC   H3S17081   3.660   3.480   6.607  0.0072  0.1624 -1.4689
  144DOPC   C2417082   3.758   3.286   6.608 -0.4417 -0.2266 -0.1528
  144DOPC   H4R17083   3.744   3.290   6.498  0.2697  0.1446 -0.2339
  144DOPC   H4S17084   3.673   3.225   6.645 -0.9690  0.6479  0.1008
  144DOPC   C2517085   3.892   3.217   6.643  0.1857 -0.0720 -0.3977
  144DOPC   H5R17086   3.890   3.107   6.662 -0.0884  0.0240  0.1141
  144DOPC   H5S17087   3.936   3.268   6.731 -2.7058  0.1218  1.0335
  144DOPC   C2617088   3.994   3.230   6.528 -0.2507 -0.0040  0.2094
  144DOPC   H6R17089   4.095   3.210   6.571 -0.5929  1.8115  1.9809
  144DOPC   H6S17090   3.989   3.327   6.474  2.1763 -0.2359 -0.5429
  144DOPC   C2717091   3.979   3.119   6.421 -0.5889  0.2842 -0.4306
  144DOPC   H7R17092   3.891   3.140   6.356  0.5969  2.6140 -1.4106
  144DOPC   H7S17093   3.949   3.022   6.467 -0.3573  1.2469  1.8775
  144DOPC   C2817094   4.108   3.104   6.345 -0.1849 -0.5128  1.2680
  144DOPC   H8R17095   4.189   3.063   6.408 -0.0116 -1.3310  0.5243
  144DOPC   H8S17096   4.148   3.207   6.332 -1.7181  0.1242  1.3384
  144DOPC   C2917097   4.083   3.022   6.219 -0.6137 -0.2579  0.0721
  144DOPC   H9R17098   4.075   2.915   6.239  1.0551 -0.4481 -0.0989
  144DOPC  C21017099   4.076   3.066   6.097 -0.0641  0.0699 -0.0852
  144DOPC  H10R17100   4.046   2.997   6.016  2.4430  2.4606 -3.3255
  144DOPC  C21117101   4.073   3.203   6.051 -1.1469 -0.2474 -0.4484
  144DOPC  H11R17102   4.050   3.266   6.139 -3.0506 -1.2671 -0.1680
  144DOPC  H11S17103   3.993   3.205   5.974 -1.1044 -0.3829 -0.4968
  144DOPC  C21217104   4.198   3.246   5.979 -0.1772 -0.2273  0.6722
  144DOPC  H12R17105   4.226   3.171   5.902 -0.1838  1.3762 -0.9703
  144DOPC  H12S17106   4.283   3.249   6.049  1.8932  1.0771 -1.7238
  144DOPC  C21317107   4.182   3.385   5.913  1.0108  1.3528 -0.1184
  144DOPC  H13R17108   4.282   3.421   5.881  1.6517 -0.2608 -0.0217
  144DOPC  H13S17109   4.152   3.459   5.990 -1.3787  1.8354 -1.4104
  144DOPC  C21417110   4.082   3.388   5.798  0.9255 -0.4211 -0.5052
  144DOPC  H14R17111   4.090   3.487   5.747 -0.4156 -1.0339 -1.9610
  144DOPC  H14S17112   3.975   3.379   5.823  0.6623 -0.7893 -1.6774
  144DOPC  C21517113   4.119   3.292   5.682  0.6519  0.6710  0.1104
  144DOPC  H15R17114   4.101   3.186   5.712 -1.4197  1.0085  0.1946
  144DOPC  H15S17115   4.226   3.298   5.652  0.6752 -1.9802 -0.6081
  144DOPC  C21617116   4.045   3.317   5.546  0.2374 -0.3291 -0.0365
  144DOPC  H16R17117   4.077   3.243   5.470  2.2186  0.0292  0.3811
  144DOPC  H16S17118   4.085   3.411   5.502 -2.4148  0.5788 -0.6815
  144DOPC  C21717119   3.893   3.319   5.550 -1.1793 -1.0505  0.0034
  144DOPC  H17R17120   3.850   3.335   5.448 -0.7358  1.6630  0.1571
  144DOPC  H17S17121   3.866   3.407   5.613 -1.1157 -0.1426 -1.1982
  144DOPC  C21817122   3.851   3.188   5.612 -0.1149  0.0131  0.5177
  144DOPC  H18R17123   3.884   3.097   5.558  2.1468  1.5835 -0.9589
  144DOPC  H18S17124   3.741   3.194   5.625 -0.4146  3.4491 -2.1008
  144DOPC  H18T17125   3.883   3.177   5.718 -0.7113  2.6892  1.0655
  144DOPC   C3317126   3.423   3.930   6.333 -0.6581 -0.4635 -0.1999
  144DOPC   H3X17127   3.443   4.035   6.366  0.4549 -0.9575  0.7649
  144DOPC   H3Y17128   3.313   3.930   6.316 -0.5891  0.1829 -0.6957
  144DOPC   C3417129   3.499   3.905   6.197  0.3094  0.6263  0.5369
  144DOPC   H4X17130   3.457   3.806   6.168  0.8456 -0.2788  2.6626
  144DOPC   H4Y17131   3.609   3.898   6.206  0.6328 -1.0097 -2.8876
  144DOPC   C3517132   3.469   4.003   6.095 -0.2118 -0.2159  0.3021
  144DOPC   H5X17133   3.498   4.105   6.128 -2.2848  0.6278 -0.3362
  144DOPC   H5Y17134   3.359   4.003   6.077 -0.3658  0.2427  1.1791
  144DOPC   C3617135   3.552   3.986   5.968  0.5820  0.3434 -0.0024
  144DOPC   H6X17136   3.657   3.955   5.987  1.4403  0.7709 -3.3496
  144DOPC   H6Y17137   3.504   3.905   5.908 -0.4342 -0.3264  1.6622
  144DOPC   C3717138   3.547   4.111   5.877  0.5465  0.1876 -0.5143
  144DOPC   H7X17139   3.441   4.143   5.886  0.3533 -0.2508 -1.2090
  144DOPC   H7Y17140   3.604   4.197   5.919  1.7401 -1.4671  1.4665
  144DOPC   C3817141   3.579   4.076   5.730 -0.4320  0.2390 -0.5020
  144DOPC   H8X17142   3.495   4.011   5.698 -0.9923  1.9079 -2.6198
  144DOPC   H8Y17143   3.677   4.027   5.713  0.3171  1.6195 -0.2634
  144DOPC   C3917144   3.572   4.205   5.651 -0.0508 -0.6612  0.5131
  144DOPC   H9X17145   3.609   4.296   5.701 -2.6731  1.8098 -1.6115
  144DOPC  C31017146   3.529   4.215   5.522  0.3155 -0.7184  0.3560
  144DOPC  H10X17147   3.539   4.312   5.469  3.3234 -1.2639 -0.2407
  144DOPC  C31117148   3.485   4.098   5.437  0.0136  0.5124  0.1763
  144DOPC  H11X17149   3.374   4.096   5.429  0.1004  0.2858 -1.4002
  144DOPC  H11Y17150   3.512   4.005   5.492 -1.3437  0.6395  1.0972
  144DOPC  C31217151   3.555   4.106   5.295 -0.4577  0.1814  0.1514
  144DOPC  H12X17152   3.503   4.192   5.248  0.7690  0.1832 -1.2626
  144DOPC  H12Y17153   3.537   4.011   5.241 -1.9702  0.1556  0.6424
  144DOPC  C31317154   3.704   4.118   5.300  0.0229 -0.0560 -0.0412
  144DOPC  H13X17155   3.747   4.126   5.198 -0.7961  1.3546 -0.3040
  144DOPC  H13Y17156   3.719   4.216   5.351 -1.3301  0.3324 -0.3406
  144DOPC  C31417157   3.775   4.009   5.370  1.0405  0.7034  0.0769
  144DOPC  H14X17158   3.880   4.037   5.393  0.3190  1.5166  2.6819
  144DOPC  H14Y17159   3.737   3.989   5.472  3.8301 -0.1352  1.0543
  144DOPC  C31517160   3.786   3.883   5.291 -0.2188  0.9492  0.8596
  144DOPC  H15X17161   3.824   3.905   5.189 -1.1745  1.8911  0.6951
  144DOPC  H15Y17162   3.681   3.846   5.295 -0.1759  0.9352  2.1352
  144DOPC  C31617163   3.885   3.777   5.355 -0.1626 -0.0690  0.8070
  144DOPC  H16X17164   3.988   3.817   5.359 -0.1859  0.5544 -2.3736
  144DOPC  H16Y17165   3.847   3.750   5.456 -0.4832 -0.3828  0.6071
  144DOPC  C31717166   3.884   3.655   5.273  0.4164 -0.2506 -0.5052
  144DOPC  H17X17167   3.890   3.682   5.165 -1.7923 -0.7559 -0.8037
  144DOPC  H17Y17168   3.972   3.593   5.303  1.1377  0.1531 -1.6751
  144DOPC  C31817169   3.756   3.572   5.299 -0.2334  0.1275  0.0035
  144DOPC  H18X17170   3.738   3.556   5.408 -2.0048  0.6648 -0.1716
  144DOPC  H18Y17171   3.669   3.620   5.249 -0.8505 -1.4013 -0.4644
  144DOPC  H18Z17172   3.767   3.476   5.245 -0.2030 -0.2893  0.7380
  145DOPC     N17173   3.734   5.783   7.320  0.1053 -0.4446 -0.4836
  145DOPC   C1217174   3.622   5.714   7.395  0.1838  0.0320  0.0702
  145DOPC  H12A17175   3.530   5.753   7.355  0.4006  1.9897  1.3566
  145DOPC  H12B17176   3.620   5.758   7.494  2.7358 -0.3685  0.3657
  145DOPC   C1317177   3.719   5.933   7.355  0.5177  0.2252  0.1776
  145DOPC  H13A17178   3.626   5.978   7.323 -0.3696  0.0527  2.3754
  145DOPC  H13B17179   3.728   5.938   7.463  2.2456 -1.1687  0.1479
  145DOPC  H13C17180   3.805   5.979   7.308 -0.7946  0.0150 -2.6038
  145DOPC   C1417181   3.721   5.768   7.174  0.3254  0.0273  0.5077
  145DOPC  H14A17182   3.715   5.665   7.144 -0.3329  0.4549 -0.9129
  145DOPC  H14B17183   3.626   5.812   7.147 -0.7059 -1.3610  1.7265
  145DOPC  H14C17184   3.801   5.807   7.113 -1.2947 -2.3578 -3.5824
  145DOPC   C1517185   3.871   5.730   7.364 -0.5142 -0.3539 -0.0880
  145DOPC  H15A17186   3.952   5.792   7.328 -0.2757 -1.3259 -1.2878
  145DOPC  H15B17187   3.874   5.629   7.328 -1.9513 -0.3615 -0.2408
  145DOPC  H15C17188   3.875   5.730   7.472  2.0761  2.4712 -0.0488
  145DOPC   C1117189   3.610   5.565   7.399  0.1041 -0.6288 -0.3276
  145DOPC  H11A17190   3.696   5.516   7.449 -1.6741 -2.7393  0.8183
  145DOPC  H11B17191   3.531   5.532   7.469 -1.5668  1.0135 -1.3482
  145DOPC     P17192   3.453   5.524   7.192 -0.6420 -0.1447 -0.2664
  145DOPC   O1317193   3.373   5.633   7.255  0.0542  0.1389  0.0043
  145DOPC   O1417194   3.393   5.390   7.172 -0.1133 -0.4644 -0.2230
  145DOPC   O1217195   3.592   5.515   7.265 -0.3115 -0.0021 -0.8905
  145DOPC   O1117196   3.506   5.575   7.047  0.6034  0.0597 -0.7253
  145DOPC    C117197   3.579   5.476   6.972 -0.8064  0.0255 -0.6471
  145DOPC    HA17198   3.508   5.396   6.944  1.3564 -2.7191  1.2386
  145DOPC    HB17199   3.656   5.426   7.034 -0.1034  0.5797 -1.0482
  145DOPC    C217200   3.642   5.538   6.843  0.3723  0.0095  0.2123
  145DOPC    HS17201   3.728   5.597   6.882 -0.0438 -0.3011  1.6720
  145DOPC   O2117202   3.550   5.618   6.766  0.0137  0.5889  0.0190
  145DOPC   C2117203   3.601   5.714   6.695 -0.1909 -0.5706 -0.6415
  145DOPC   O2217204   3.718   5.743   6.692  0.3943 -0.4128  0.3855
  145DOPC   C2217205   3.493   5.785   6.625 -0.2870  0.8627  0.3484
  145DOPC   H2R17206   3.480   5.888   6.663 -3.6329  0.8149 -0.3094
  145DOPC   H2S17207   3.399   5.730   6.646  0.9679 -0.5747  2.5705
  145DOPC    C317208   3.692   5.419   6.753  0.3425 -0.5454  0.4833
  145DOPC    HX17209   3.605   5.361   6.717  1.1555 -0.8568 -1.0326
  145DOPC    HY17210   3.757   5.351   6.814  1.7209  1.9699  2.0165
  145DOPC   O3117211   3.761   5.468   6.637  0.5280  0.1947 -0.2079
  145DOPC   C3117212   3.890   5.465   6.636  0.1345  0.4752 -0.6382
  145DOPC   O3217213   3.960   5.425   6.730 -0.3050  0.0797 -0.1074
  145DOPC   C3217214   3.930   5.513   6.504 -0.4919 -0.2841  0.1434
  145DOPC   H2X17215   3.987   5.605   6.531  0.4887 -0.7805 -0.1799
  145DOPC   H2Y17216   3.996   5.436   6.458  1.0150  2.2744 -2.3976
  145DOPC   C2317217   3.517   5.789   6.473 -0.0773 -0.2833  0.6081
  145DOPC   H3R17218   3.529   5.685   6.436 -0.8613 -0.0496 -0.3323
  145DOPC   H3S17219   3.613   5.840   6.450 -0.1454 -0.9548 -1.4412
  145DOPC   C2417220   3.412   5.866   6.395  0.2532 -0.1309  0.3189
  145DOPC   H4R17221   3.417   5.975   6.414  0.0246 -0.3238  1.5155
  145DOPC   H4S17222   3.311   5.836   6.431 -0.8434  1.7118 -0.9997
  145DOPC   C2517223   3.425   5.849   6.245 -0.3549  0.5078  1.0164
  145DOPC   H5R17224   3.414   5.741   6.221 -0.2806  0.9379 -1.2215
  145DOPC   H5S17225   3.535   5.852   6.226 -0.1836 -3.7842  0.3750
  145DOPC   C2617226   3.343   5.944   6.164 -0.2984  0.2159  0.1492
  145DOPC   H6R17227   3.373   6.049   6.181 -0.8648  0.3024  0.6584
  145DOPC   H6S17228   3.235   5.933   6.186 -0.2919  0.1340  0.1400
  145DOPC   C2717229   3.356   5.931   6.010 -0.0829 -0.3197 -0.1789
  145DOPC   H7R17230   3.328   5.827   5.980  1.3137 -0.4407 -1.1523
  145DOPC   H7S17231   3.462   5.942   5.979  0.4719 -2.2897  0.8450
  145DOPC   C2817232   3.257   6.035   5.947 -0.3603 -0.0132  0.6289
  145DOPC   H8R17233   3.279   6.137   5.985 -0.3359  1.1125 -2.1713
  145DOPC   H8S17234   3.155   6.010   5.984  0.2091 -2.2707  0.8057
  145DOPC   C2917235   3.279   6.027   5.801  0.0351 -1.4205  0.0692
  145DOPC   H9R17236   3.368   6.076   5.760 -0.3801  0.1746  1.0062
  145DOPC  C21017237   3.184   6.004   5.706 -0.4998 -0.0167  0.4088
  145DOPC  H10R17238   3.209   6.002   5.599  2.1032  1.1117  0.9240
  145DOPC  C21117239   3.044   5.969   5.738  0.1504  0.0592 -0.0282
  145DOPC  H11R17240   2.983   6.062   5.742  1.7577  1.1353  0.5440
  145DOPC  H11S17241   3.036   5.915   5.835  0.2419 -0.6338 -0.3980
  145DOPC  C21217242   2.982   5.883   5.628 -0.2722 -0.3410  0.0659
  145DOPC  H12R17243   2.879   5.851   5.652 -0.8747  1.4879  0.0869
  145DOPC  H12S17244   3.035   5.785   5.627  0.8548  0.2494 -0.0954
  145DOPC  C21317245   2.966   5.948   5.492 -0.9864  1.0833  0.3241
  145DOPC  H13R17246   3.065   5.952   5.441 -0.8403  0.3709  0.5444
  145DOPC  H13S17247   2.922   6.046   5.520 -0.7838  0.5735  2.5766
  145DOPC  C21417248   2.869   5.866   5.407  0.4292 -0.2985  0.4374
  145DOPC  H14R17249   2.865   5.908   5.304 -0.3483  1.3362  1.0937
  145DOPC  H14S17250   2.766   5.889   5.444 -0.3926 -0.5633 -1.5639
  145DOPC  C21517251   2.891   5.717   5.395 -0.3266 -0.3493  0.6627
  145DOPC  H15R17252   2.902   5.675   5.497  1.2394  1.0765  1.1186
  145DOPC  H15S17253   2.985   5.695   5.339 -0.3567  0.1602  0.4088
  145DOPC  C21617254   2.780   5.632   5.319  0.6087 -0.1404 -0.8356
  145DOPC  H16R17255   2.680   5.631   5.367  1.6174 -0.3728  1.3753
  145DOPC  H16S17256   2.810   5.527   5.301 -0.5155 -0.4990 -0.7372
  145DOPC  C21717257   2.765   5.687   5.177  0.7059  0.3018  0.4056
  145DOPC  H17R17258   2.856   5.683   5.112  0.6352  3.6305 -0.0531
  145DOPC  H17S17259   2.745   5.796   5.181 -0.7281  0.0533  0.2700
  145DOPC  C21817260   2.644   5.625   5.095 -0.1094  0.9402  0.1388
  145DOPC  H18R17261   2.688   5.529   5.061  2.4752  2.0987  0.0161
  145DOPC  H18S17262   2.620   5.685   5.004  1.6138 -0.1203 -1.0814
  145DOPC  H18T17263   2.554   5.615   5.160 -0.0740  0.3170  0.1030
  145DOPC   C3317264   3.821   5.541   6.399  0.2361  0.1709 -0.0875
  145DOPC   H3X17265   3.771   5.637   6.425 -1.4521 -0.5540 -0.5256
  145DOPC   H3Y17266   3.740   5.465   6.405  0.4257  0.0424  1.1816
  145DOPC   C3417267   3.878   5.568   6.261  0.4299 -0.0427  0.7036
  145DOPC   H4X17268   3.933   5.482   6.217  0.0967  1.0484 -2.0532
  145DOPC   H4Y17269   3.954   5.649   6.267 -0.9685  1.2870  1.4504
  145DOPC   C3517270   3.773   5.617   6.165  0.2085  0.5603 -0.2675
  145DOPC   H5X17271   3.721   5.703   6.215  2.5243  1.4256  0.8086
  145DOPC   H5Y17272   3.704   5.531   6.152  2.2922 -1.5131  1.4714
  145DOPC   C3617273   3.826   5.674   6.030  0.0320  0.4645  0.7088
  145DOPC   H6X17274   3.861   5.779   6.044  0.7041  0.4592 -0.8481
  145DOPC   H6Y17275   3.916   5.624   5.988  0.0418 -0.7375  2.0453
  145DOPC   C3717276   3.716   5.679   5.924  0.6321 -0.1206  0.0759
  145DOPC   H7X17277   3.671   5.578   5.909  0.2021  0.0329  0.3483
  145DOPC   H7Y17278   3.648   5.758   5.960 -0.2447 -0.5946 -0.5165
  145DOPC   C3817279   3.779   5.735   5.788  0.4894 -0.4540 -0.4632
  145DOPC   H8X17280   3.846   5.668   5.731  1.7174 -0.1980  0.6248
  145DOPC   H8Y17281   3.848   5.815   5.822  0.5655 -0.5172 -0.4699
  145DOPC   C3917282   3.682   5.813   5.707  0.3699 -0.2355  0.1782
  145DOPC   H9X17283   3.628   5.895   5.757  2.2711 -0.2904  2.5244
  145DOPC  C31017284   3.666   5.789   5.575 -0.1272  0.5802  0.0383
  145DOPC  H10X17285   3.596   5.846   5.513  0.6917 -0.3325 -1.8154
  145DOPC  C31117286   3.732   5.681   5.490 -0.5336  0.3030  0.5546
  145DOPC  H11X17287   3.668   5.647   5.406  0.3901  2.8437 -1.3169
  145DOPC  H11Y17288   3.772   5.595   5.548 -0.0772 -2.1709 -3.1184
  145DOPC  C31217289   3.865   5.737   5.443 -0.2920 -0.0333 -0.5707
  145DOPC  H12X17290   3.928   5.772   5.527 -0.6819  0.9148 -0.6656
  145DOPC  H12Y17291   3.863   5.831   5.384 -0.4310  0.3328  0.0131
  145DOPC  C31317292   3.953   5.637   5.361 -0.1802  0.1912 -0.4734
  145DOPC  H13X17293   4.046   5.683   5.323 -0.3325 -0.1540 -1.2964
  145DOPC  H13Y17294   3.980   5.554   5.429 -0.7796 -0.3096 -0.8307
  145DOPC  C31417295   3.877   5.569   5.243  0.1438  0.2841 -0.3568
  145DOPC  H14X17296   3.945   5.490   5.204  0.1732  0.6768 -1.1430
  145DOPC  H14Y17297   3.781   5.525   5.275  2.0706 -3.0443  1.3907
  145DOPC  C31517298   3.862   5.657   5.121  0.4844 -0.1390  0.2376
  145DOPC  H15X17299   3.965   5.665   5.081  0.0772 -0.9618 -1.0276
  145DOPC  H15Y17300   3.821   5.755   5.154 -1.0900 -0.8557  0.5257
  145DOPC  C31617301   3.783   5.591   5.005  0.6045  0.2487  0.1120
  145DOPC  H16X17302   3.841   5.499   4.983  1.1306  0.1780  1.6224
  145DOPC  H16Y17303   3.680   5.563   5.035  0.7973 -0.7068 -0.0930
  145DOPC  C31717304   3.778   5.677   4.880 -0.7423 -0.7375  0.2249
  145DOPC  H17X17305   3.882   5.714   4.866 -0.4687 -1.1209  1.1377
  145DOPC  H17Y17306   3.758   5.608   4.795  2.4651 -0.6319 -0.7755
  145DOPC  C31817307   3.678   5.788   4.876  0.7395 -0.3120  0.1024
  145DOPC  H18X17308   3.582   5.756   4.921  1.0586  1.1123  1.9188
  145DOPC  H18Y17309   3.721   5.879   4.924  3.8832 -1.8221  0.4024
  145DOPC  H18Z17310   3.646   5.815   4.773 -0.5759  2.1602  1.0723
  146DOPC     N17311   6.161   2.727   7.626 -0.5096  0.2737  0.4616
  146DOPC   C1217312   6.124   2.635   7.507 -0.1521  0.1371  0.2075
  146DOPC  H12A17313   6.020   2.657   7.488 -0.3507 -0.6171  0.3748
  146DOPC  H12B17314   6.147   2.534   7.538  1.2224  0.0637 -0.9656
  146DOPC   C1317315   6.309   2.711   7.668 -0.1621 -0.3206 -0.0380
  146DOPC  H13A17316   6.332   2.607   7.685 -3.4287 -1.4012 -1.3674
  146DOPC  H13B17317   6.381   2.739   7.592  0.5656  1.5317  1.2438
  146DOPC  H13C17318   6.335   2.773   7.753 -2.8902 -0.2975  0.8983
  146DOPC   C1417319   6.075   2.680   7.736 -0.3677 -0.6809 -0.2745
  146DOPC  H14A17320   6.106   2.585   7.778 -0.1546  0.2354  1.7256
  146DOPC  H14B17321   6.078   2.747   7.820  1.1159 -0.4412 -0.4931
  146DOPC  H14C17322   5.972   2.661   7.711  0.0355 -1.6165 -1.3402
  146DOPC   C1517323   6.137   2.878   7.586  0.1594  0.4855  0.6389
  146DOPC  H15A17324   6.189   2.900   7.494  1.1666 -0.6513  0.9080
  146DOPC  H15B17325   6.172   2.932   7.673 -0.2032  0.5183  0.7634
  146DOPC  H15C17326   6.033   2.895   7.566 -0.2103 -1.7998  0.4149
  146DOPC   C1117327   6.207   2.654   7.371  0.5328 -0.3038  0.0829
  146DOPC  H11A17328   6.157   2.605   7.284 -1.4551  1.5364  0.1188
  146DOPC  H11B17329   6.209   2.761   7.343  1.4147 -0.0278  1.1198
  146DOPC     P17330   6.400   2.504   7.306 -0.2941  0.0201  0.0270
  146DOPC   O1317331   6.327   2.379   7.327 -0.0149  0.1640 -0.3082
  146DOPC   O1417332   6.542   2.500   7.340  0.7278  0.4250  0.0403
  146DOPC   O1217333   6.342   2.612   7.396  0.4204 -0.3379  0.3317
  146DOPC   O1117334   6.379   2.547   7.160 -0.6015  0.2219 -0.1076
  146DOPC    C117335   6.438   2.669   7.115 -0.4586  0.2959  0.0990
  146DOPC    HA17336   6.544   2.658   7.085 -0.2112  2.4135 -0.0058
  146DOPC    HB17337   6.435   2.743   7.198  0.8696 -0.3916  0.7935
  146DOPC    C217338   6.354   2.723   6.997  0.2374 -0.2548  0.0427
  146DOPC    HS17339   6.258   2.741   7.050 -0.4202 -1.0256 -0.8674
  146DOPC   O2117340   6.348   2.621   6.887  0.2333  0.6866 -0.0704
  146DOPC   C2117341   6.223   2.611   6.839  0.0408  0.2876 -0.1791
  146DOPC   O2217342   6.123   2.669   6.885 -0.2239  0.3331  0.1008
  146DOPC   C2217343   6.223   2.505   6.728  0.3918 -0.7241  0.1878
  146DOPC   H2R17344   6.159   2.430   6.779 -2.2729  0.0827 -1.7489
  146DOPC   H2S17345   6.322   2.455   6.712  0.3200 -0.8626  0.1695
  146DOPC    C317346   6.407   2.858   6.943  1.1482  0.2874 -0.1683
  146DOPC    HX17347   6.516   2.838   6.939  1.0683 -0.0427 -0.8291
  146DOPC    HY17348   6.387   2.940   7.015  0.8030 -0.0462  0.1181
  146DOPC   O3117349   6.356   2.885   6.816 -0.6702 -0.2945 -0.2232
  146DOPC   C3117350   6.260   2.960   6.793  0.1570  0.1568 -0.6295
  146DOPC   O3217351   6.189   3.021   6.878 -0.0004 -0.1007 -1.0404
  146DOPC   C3217352   6.248   2.966   6.644 -0.5220 -0.3923 -0.0863
  146DOPC   H2X17353   6.284   3.069   6.621  1.5493 -1.2336 -0.9004
  146DOPC   H2Y17354   6.314   2.888   6.600  0.8981  0.3581  0.6403
  146DOPC   C2317355   6.154   2.538   6.591  0.2929  0.0872 -0.1065
  146DOPC   H3R17356   6.218   2.609   6.534  0.7008 -0.4561 -0.3265
  146DOPC   H3S17357   6.052   2.580   6.606  0.2846  0.0025  0.0807
  146DOPC   C2417358   6.152   2.405   6.517  0.2975 -0.5277  0.3867
  146DOPC   H4R17359   6.086   2.334   6.573  0.7280 -1.3253 -0.0924
  146DOPC   H4S17360   6.249   2.351   6.516 -0.0436 -1.1558  0.5686
  146DOPC   C2517361   6.105   2.416   6.373  0.1767  0.4699 -0.1362
  146DOPC   H5R17362   6.193   2.416   6.305  1.6821  1.5498  1.7263
  146DOPC   H5S17363   6.051   2.509   6.343  1.6807  0.9347 -1.5372
  146DOPC   C2617364   6.024   2.285   6.336 -0.3036  0.1740  0.0874
  146DOPC   H6R17365   6.001   2.278   6.227 -0.6630 -0.5447  0.2081
  146DOPC   H6S17366   5.928   2.295   6.391 -0.1976  3.2469 -0.1079
  146DOPC   C2717367   6.091   2.156   6.379  0.2820  0.3093  0.2467
  146DOPC   H7R17368   6.093   2.142   6.489 -2.7112 -3.2947  0.0334
  146DOPC   H7S17369   6.191   2.144   6.332  0.0674 -2.6859  0.3811
  146DOPC   C2817370   6.002   2.036   6.338  0.3112  0.1124 -0.0384
  146DOPC   H8R17371   5.988   2.054   6.230 -0.1089 -1.9266 -0.3731
  146DOPC   H8S17372   5.899   2.041   6.380  0.4158  0.8437  0.1433
  146DOPC   C2917373   6.073   1.899   6.351  0.6368  0.4697  0.3055
  146DOPC   H9R17374   6.095   1.878   6.457  0.5479 -0.3857  0.1593
  146DOPC  C21017375   6.107   1.807   6.254 -0.1061 -0.1093 -0.2057
  146DOPC  H10R17376   6.130   1.706   6.290 -0.2789  0.9223  3.1037
  146DOPC  C21117377   6.064   1.825   6.107 -0.2997 -0.1282  0.0627
  146DOPC  H11R17378   5.958   1.858   6.098  0.9113  3.9876 -1.8363
  146DOPC  H11S17379   6.073   1.738   6.038 -0.2098  0.9774 -1.3692
  146DOPC  C21217380   6.163   1.932   6.046  0.7456 -0.0624 -0.0733
  146DOPC  H12R17381   6.270   1.904   6.055  1.2584  1.3061 -1.5236
  146DOPC  H12S17382   6.155   2.022   6.110 -1.0110 -1.4577  1.8330
  146DOPC  C21317383   6.134   1.962   5.892  0.8620  0.6826  0.1464
  146DOPC  H13R17384   6.142   2.072   5.882  1.1958  0.6001 -0.5850
  146DOPC  H13S17385   6.034   1.923   5.865 -0.9142  3.0460  2.8004
  146DOPC  C21417386   6.232   1.904   5.799 -0.2761 -0.3061  0.4128
  146DOPC  H14R17387   6.226   1.793   5.795 -0.8753 -0.2448 -1.2737
  146DOPC  H14S17388   6.333   1.937   5.831  0.3828 -0.0252 -1.7910
  146DOPC  C21517389   6.219   1.974   5.663  0.0583 -0.2923 -0.0669
  146DOPC  H15R17390   6.276   2.068   5.677  0.6037 -0.6562  0.2069
  146DOPC  H15S17391   6.114   2.007   5.650  0.2618  1.7628  2.7357
  146DOPC  C21617392   6.272   1.897   5.539  0.8178 -0.5626  0.2099
  146DOPC  H16R17393   6.227   1.935   5.445  0.2661  0.9714  1.0569
  146DOPC  H16S17394   6.234   1.793   5.548  0.1769 -0.3175  0.4012
  146DOPC  C21717395   6.420   1.925   5.533  0.3560 -0.0833  0.0488
  146DOPC  H17R17396   6.460   1.877   5.625  0.1904  1.2664  0.8431
  146DOPC  H17S17397   6.443   2.033   5.532  1.1079 -0.2388 -0.5558
  146DOPC  C21817398   6.475   1.857   5.413 -0.1664 -0.5131 -0.2370
  146DOPC  H18R17399   6.422   1.871   5.316  0.2938 -2.8299 -0.8760
  146DOPC  H18S17400   6.474   1.747   5.429  0.4700 -0.4609  0.2019
  146DOPC  H18T17401   6.579   1.894   5.402 -0.0304 -1.0911 -0.9481
  146DOPC   C3317402   6.103   2.951   6.602 -0.3684 -0.0318  0.1290
  146DOPC   H3X17403   6.040   3.007   6.675  0.0012  2.4309 -1.3552
  146DOPC   H3Y17404   6.067   2.846   6.613  0.9302 -0.6683 -1.3886
  146DOPC   C3417405   6.067   2.990   6.463  0.8169 -0.2748 -0.4271
  146DOPC   H4X17406   6.142   2.955   6.389  0.1331  0.9344 -1.7268
  146DOPC   H4Y17407   6.067   3.101   6.458 -0.3380 -0.2494  0.0366
  146DOPC   C3517408   5.930   2.942   6.423 -0.0889  0.6213 -0.1966
  146DOPC   H5X17409   5.900   2.995   6.330  2.1540  0.3617 -1.1373
  146DOPC   H5Y17410   5.862   2.960   6.508  0.6341  0.1760  0.4952
  146DOPC   C3617411   5.920   2.795   6.369 -0.0849  0.0558 -0.6324
  146DOPC   H6X17412   5.937   2.794   6.259  0.6129 -1.8054 -0.5342
  146DOPC   H6Y17413   5.997   2.735   6.422 -3.9002 -2.3764  2.6613
  146DOPC   C3717414   5.787   2.730   6.408  0.4654  1.1180 -1.0396
  146DOPC   H7X17415   5.778   2.729   6.518  1.0864 -0.7980 -0.9683
  146DOPC   H7Y17416   5.697   2.784   6.371 -0.9653 -0.7890 -0.4838
  146DOPC   C3817417   5.788   2.584   6.353 -0.0928 -0.3898  0.1553
  146DOPC   H8X17418   5.844   2.515   6.420  0.7314  0.2743  0.1579
  146DOPC   H8Y17419   5.831   2.591   6.251 -0.6088  2.3093  0.0382
  146DOPC   C3917420   5.645   2.538   6.354  0.4340 -0.8905 -0.1503
  146DOPC   H9X17421   5.606   2.518   6.456  1.4027  1.0962  0.6568
  146DOPC  C31017422   5.569   2.512   6.250  0.0847  1.0847 -0.1113
  146DOPC  H10X17423   5.463   2.490   6.268  0.2542  0.6187  0.3489
  146DOPC  C31117424   5.609   2.528   6.109  0.5492 -0.0608  0.8090
  146DOPC  H11X17425   5.694   2.463   6.079  2.0244  1.2484  1.9682
  146DOPC  H11Y17426   5.637   2.632   6.080 -1.7534  1.1433  2.5891
  146DOPC  C31217427   5.494   2.483   6.014  0.4804 -0.3321  0.1996
  146DOPC  H12X17428   5.405   2.546   6.037 -0.5227 -0.9424 -1.8117
  146DOPC  H12Y17429   5.461   2.381   6.046  2.5004 -0.9306  0.5332
  146DOPC  C31317430   5.532   2.503   5.868  0.0608 -0.2068 -0.8258
  146DOPC  H13X17431   5.541   2.613   5.851 -0.1888  0.0681  0.6896
  146DOPC  H13Y17432   5.627   2.456   5.836  1.6405  1.7202  0.7748
  146DOPC  C31417433   5.416   2.461   5.778  0.5083 -0.4440  0.4995
  146DOPC  H14X17434   5.404   2.351   5.786 -1.0143 -0.4143 -0.8717
  146DOPC  H14Y17435   5.321   2.497   5.822  0.0721  0.6364 -1.2000
  146DOPC  C31517436   5.431   2.514   5.633  0.2102 -0.0328  0.1280
  146DOPC  H15X17437   5.526   2.483   5.584  0.3631 -0.3486  0.6182
  146DOPC  H15Y17438   5.447   2.623   5.645  1.3803 -0.1563 -0.2231
  146DOPC  C31617439   5.317   2.496   5.532  0.3814 -0.4035 -0.4481
  146DOPC  H16X17440   5.332   2.401   5.477 -0.7892 -0.0289 -1.4678
  146DOPC  H16Y17441   5.225   2.488   5.595  1.5435  2.2010  1.8223
  146DOPC  C31717442   5.307   2.620   5.436 -0.6247  0.0775  0.5772
  146DOPC  H17X17443   5.279   2.716   5.484 -2.7481 -0.2855  0.1916
  146DOPC  H17Y17444   5.409   2.627   5.393  0.3937 -1.2565  2.6310
  146DOPC  C31817445   5.205   2.586   5.329  0.1050 -0.2909  0.5393
  146DOPC  H18X17446   5.249   2.525   5.247  1.2462 -0.3981  1.2123
  146DOPC  H18Y17447   5.121   2.534   5.378  0.2742 -1.0162  0.0789
  146DOPC  H18Z17448   5.173   2.683   5.284  0.9484 -0.2252  0.0604
  147DOPC     N17449   2.903   1.809   7.745 -0.4511  0.9423 -0.2314
  147DOPC   C1217450   2.985   1.936   7.748  0.0992  0.7657 -0.7390
  147DOPC  H12A17451   3.089   1.908   7.749  1.1043  4.0442 -1.5451
  147DOPC  H12B17452   2.964   1.990   7.839 -1.0949  0.5735 -0.8826
  147DOPC   C1317453   2.915   1.735   7.618 -0.4256  0.5042  0.0358
  147DOPC  H13A17454   2.900   1.806   7.537  2.1387  1.0518 -0.0465
  147DOPC  H13B17455   3.010   1.687   7.599 -0.6738 -0.0160  0.0926
  147DOPC  H13C17456   2.836   1.663   7.606  1.2769 -1.1071 -2.3376
  147DOPC   C1417457   2.764   1.839   7.764  0.4876 -0.1649 -0.2871
  147DOPC  H14A17458   2.737   1.898   7.678  0.5772 -0.1083 -0.2758
  147DOPC  H14B17459   2.708   1.746   7.767 -1.5450  1.0285  0.9798
  147DOPC  H14C17460   2.749   1.895   7.855 -1.2931  0.3583 -0.8684
  147DOPC   C1517461   2.957   1.723   7.854  0.4028 -0.1452  0.6495
  147DOPC  H15A17462   3.055   1.682   7.834  0.3147 -1.3487  2.4763
  147DOPC  H15B17463   2.887   1.648   7.887 -0.7310  2.4726  4.9717
  147DOPC  H15C17464   2.961   1.787   7.941 -1.1790  1.5195 -0.4295
  147DOPC   C1117465   2.956   2.044   7.638 -0.1052  0.5230 -0.0443
  147DOPC  H11A17466   2.851   2.080   7.644 -1.5913 -3.3052 -0.0833
  147DOPC  H11B17467   3.016   2.135   7.657  2.0240 -1.0945  1.5954
  147DOPC     P17468   3.134   2.010   7.438  0.2480  0.3521  0.3647
  147DOPC   O1317469   3.139   1.885   7.359  0.2057  0.4752  0.1861
  147DOPC   O1417470   3.238   2.034   7.548  0.4477  0.0324 -0.3409
  147DOPC   O1217471   2.994   1.998   7.505  0.0658  0.6416 -0.2385
  147DOPC   O1117472   3.117   2.132   7.335 -0.0405  0.0389 -0.3873
  147DOPC    C117473   3.136   2.265   7.376  0.4926 -0.4754 -0.8223
  147DOPC    HA17474   3.232   2.287   7.428  0.1231 -0.4697 -0.1328
  147DOPC    HB17475   3.062   2.291   7.454  2.2550 -0.2461  0.8456
  147DOPC    C217476   3.130   2.356   7.248 -0.9103  0.9106  0.0424
  147DOPC    HS17477   3.133   2.463   7.278 -0.3763  0.9369 -0.0895
  147DOPC   O2117478   3.017   2.316   7.173 -0.2820  0.1230  0.2179
  147DOPC   C2117479   2.906   2.381   7.223  0.1264 -0.6093  0.0180
  147DOPC   O2217480   2.909   2.455   7.321 -0.3140  0.5963 -0.1825
  147DOPC   C2217481   2.781   2.333   7.144 -0.7302  0.1742 -0.3550
  147DOPC   H2R17482   2.689   2.378   7.186 -0.5284  0.1613  0.1081
  147DOPC   H2S17483   2.782   2.222   7.159 -0.4198  0.3083  0.7423
  147DOPC    C317484   3.256   2.340   7.154 -0.1462 -0.5428 -0.1919
  147DOPC    HX17485   3.260   2.234   7.121 -0.6029 -0.7210  0.3121
  147DOPC    HY17486   3.350   2.357   7.212  0.3230 -0.3556 -0.9956
  147DOPC   O3117487   3.253   2.422   7.037  0.0269 -0.0467 -0.6153
  147DOPC   C3117488   3.196   2.368   6.930 -0.0340  0.3629  0.5770
  147DOPC   O3217489   3.155   2.256   6.916  0.5493  0.1504 -0.1584
  147DOPC   C3217490   3.201   2.459   6.810  0.0316  0.1620  0.6088
  147DOPC   H2X17491   3.140   2.547   6.842 -2.4054 -1.9867  2.3404
  147DOPC   H2Y17492   3.302   2.500   6.789 -0.2316  0.8424  0.6346
  147DOPC   C2317493   2.789   2.356   6.984  0.1609  0.2347  0.3105
  147DOPC   H3R17494   2.688   2.330   6.945  1.8918 -1.9271 -3.2899
  147DOPC   H3S17495   2.859   2.279   6.945 -0.7793  0.2809 -1.6131
  147DOPC   C2417496   2.836   2.496   6.928  0.3523 -1.0361  0.3611
  147DOPC   H4R17497   2.945   2.513   6.945  0.6275 -0.3291 -1.7570
  147DOPC   H4S17498   2.784   2.572   6.991 -2.2095 -1.9829 -0.4980
  147DOPC   C2517499   2.788   2.543   6.787  0.3498 -0.1948 -0.2973
  147DOPC   H5R17500   2.679   2.552   6.802  0.5960  0.4943  1.2864
  147DOPC   H5S17501   2.822   2.461   6.720  1.9486 -1.0002  1.4141
  147DOPC   C2617502   2.848   2.685   6.759  0.2801 -0.1499  0.1274
  147DOPC   H6R17503   2.954   2.674   6.729  0.3370 -1.5411  0.7552
  147DOPC   H6S17504   2.855   2.746   6.852  3.0954 -1.6670  1.0165
  147DOPC   C2717505   2.782   2.750   6.639 -0.0948  0.2939 -0.2390
  147DOPC   H7R17506   2.824   2.850   6.617 -0.0561 -0.1528 -2.3724
  147DOPC   H7S17507   2.678   2.770   6.672  0.5751  3.3562  0.2833
  147DOPC   C2817508   2.788   2.672   6.505 -0.2563 -0.0727 -0.7867
  147DOPC   H8R17509   2.773   2.567   6.536 -0.9630  0.7906  2.1582
  147DOPC   H8S17510   2.884   2.697   6.456  0.5444 -0.8261  0.3453
  147DOPC   C2917511   2.680   2.709   6.408 -0.2340  0.5510 -0.5774
  147DOPC   H9R17512   2.586   2.656   6.429  1.2134 -1.2178  2.0128
  147DOPC  C21017513   2.687   2.792   6.305 -0.1772 -0.7073  0.1485
  147DOPC  H10R17514   2.592   2.817   6.256  0.0208  1.9653  1.0080
  147DOPC  C21117515   2.800   2.887   6.266  0.5138  0.2336  0.0455
  147DOPC  H11R17516   2.883   2.891   6.339 -0.5295  1.5113  1.1986
  147DOPC  H11S17517   2.756   2.988   6.270 -0.8622 -0.3694  0.5959
  147DOPC  C21217518   2.850   2.863   6.121 -0.8703 -0.2165  0.0949
  147DOPC  H12R17519   2.873   2.755   6.110 -0.7669 -0.1872  0.0280
  147DOPC  H12S17520   2.939   2.926   6.100 -2.2086  1.2573 -1.5651
  147DOPC  C21317521   2.747   2.889   6.010 -0.1064  0.3321  0.0499
  147DOPC  H13R17522   2.729   2.998   6.017  0.1067  0.4082 -0.5512
  147DOPC  H13S17523   2.654   2.834   6.038 -1.0613  2.0964  0.4608
  147DOPC  C21417524   2.788   2.840   5.867  0.5131  0.2833 -0.5077
  147DOPC  H14R17525   2.790   2.729   5.865 -0.7508  0.1834  1.1203
  147DOPC  H14S17526   2.888   2.880   5.839  0.2189 -0.7341 -3.3640
  147DOPC  C21517527   2.688   2.891   5.763  0.0022 -0.0900 -0.3262
  147DOPC  H15R17528   2.638   2.984   5.797  1.0793  0.0073  1.0368
  147DOPC  H15S17529   2.609   2.813   5.752 -0.4762  0.3727 -0.1750
  147DOPC  C21617530   2.740   2.910   5.620 -0.0018 -0.3295  0.3031
  147DOPC  H16R17531   2.810   2.996   5.616  0.5163 -0.7525  0.1193
  147DOPC  H16S17532   2.657   2.918   5.546 -0.6516 -2.7232  0.6913
  147DOPC  C21717533   2.830   2.797   5.577 -0.2959 -0.7433 -0.1756
  147DOPC  H17R17534   2.778   2.699   5.574 -1.5198 -0.1387  0.7108
  147DOPC  H17S17535   2.905   2.788   5.659 -0.0918 -1.5681 -0.4431
  147DOPC  C21817536   2.896   2.817   5.432  0.9977 -0.2901 -0.1182
  147DOPC  H18R17537   2.822   2.846   5.355 -0.1908 -0.1287  1.0593
  147DOPC  H18S17538   2.953   2.727   5.400 -1.4531 -1.3295 -1.7953
  147DOPC  H18T17539   2.975   2.895   5.434  1.0856 -0.2397 -2.5472
  147DOPC   C3317540   3.150   2.390   6.676  0.5282  0.6645  0.3360
  147DOPC   H3X17541   3.046   2.353   6.690  0.4499 -1.1903 -3.6279
  147DOPC   H3Y17542   3.213   2.298   6.666  1.4611  0.9244  3.0343
  147DOPC   C3417543   3.167   2.484   6.561  0.5548 -0.4354  0.3231
  147DOPC   H4X17544   3.270   2.502   6.524  0.3124  1.8685  0.6167
  147DOPC   H4Y17545   3.141   2.580   6.610 -0.2359 -1.4437  1.9597
  147DOPC   C3517546   3.077   2.462   6.437  0.6868 -0.2427 -0.4492
  147DOPC   H5X17547   3.076   2.543   6.361  0.1717  1.1276  0.9694
  147DOPC   H5Y17548   2.974   2.446   6.476  0.9504 -0.9364 -0.0251
  147DOPC   C3617549   3.110   2.329   6.364  0.2779  0.1831 -0.7319
  147DOPC   H6X17550   3.210   2.334   6.317 -0.2974 -2.4579 -2.4395
  147DOPC   H6Y17551   3.105   2.243   6.434 -0.7413  0.8060  0.0005
  147DOPC   C3717552   3.007   2.299   6.257 -0.9708  0.4602  0.1829
  147DOPC   H7X17553   3.044   2.206   6.207  0.8625  0.3056  1.7201
  147DOPC   H7Y17554   2.909   2.279   6.303 -1.8204 -0.1025 -1.7605
  147DOPC   C3817555   2.984   2.406   6.148  0.0258  1.0846  0.9200
  147DOPC   H8X17556   2.955   2.498   6.203  0.9305  2.2961 -0.5527
  147DOPC   H8Y17557   2.898   2.364   6.093  0.0639 -0.6463  2.1280
  147DOPC   C3917558   3.112   2.434   6.072 -0.2291  0.4056  0.2594
  147DOPC   H9X17559   3.191   2.482   6.132 -0.8794 -0.2919  1.7422
  147DOPC  C31017560   3.131   2.408   5.943  0.1728 -0.1532  0.2060
  147DOPC  H10X17561   3.228   2.432   5.897 -0.5786  0.0189 -1.3491
  147DOPC  C31117562   3.031   2.367   5.841 -0.6123  0.1929 -0.3152
  147DOPC  H11X17563   2.929   2.335   5.872  0.1068 -1.2350  0.6615
  147DOPC  H11Y17564   3.079   2.282   5.789  0.0051 -1.3748  2.6190
  147DOPC  C31217565   3.017   2.484   5.735  0.5404 -0.1164  0.1296
  147DOPC  H12X17566   3.118   2.527   5.717  0.6552  1.5431  3.7702
  147DOPC  H12Y17567   2.962   2.567   5.783  1.6592  1.2398 -0.8474
  147DOPC  C31317568   2.927   2.441   5.612 -0.1626  0.4652 -0.1698
  147DOPC  H13X17569   2.821   2.419   5.638 -0.2665  0.1605 -0.8209
  147DOPC  H13Y17570   2.929   2.535   5.553 -2.2932  3.1901  3.6634
  147DOPC  C31417571   2.979   2.318   5.539  0.2670 -0.0161  0.1326
  147DOPC  H14X17572   3.090   2.315   5.543  0.5113  3.4674 -0.8775
  147DOPC  H14Y17573   2.943   2.227   5.592  0.2306  0.0314  0.1896
  147DOPC  C31517574   2.938   2.324   5.397  0.1052  0.3869  0.4075
  147DOPC  H15X17575   2.829   2.347   5.390 -0.5558 -1.6711  2.3059
  147DOPC  H15Y17576   2.951   2.221   5.356  2.6842 -0.1430  2.2913
  147DOPC  C31617577   3.007   2.427   5.309 -0.1079  0.3501 -0.1649
  147DOPC  H16X17578   2.965   2.529   5.320  3.1558  1.7750  0.1278
  147DOPC  H16Y17579   3.117   2.422   5.325 -0.0782 -3.6902 -0.6896
  147DOPC  C31717580   3.008   2.381   5.161  0.1270 -0.0119 -0.0892
  147DOPC  H17X17581   3.035   2.273   5.159 -0.4365 -0.1485 -1.4327
  147DOPC  H17Y17582   2.908   2.402   5.119 -0.1193 -0.7797  0.0984
  147DOPC  C31817583   3.114   2.460   5.088 -0.4036 -0.2809 -0.2629
  147DOPC  H18X17584   3.216   2.427   5.117 -0.9975 -0.3022  1.9085
  147DOPC  H18Y17585   3.098   2.449   4.978  0.5627 -0.1227 -0.4299
  147DOPC  H18Z17586   3.111   2.569   5.109  1.5436  0.1590 -1.9172
  148DOPC     N17587   2.898   5.088   7.159  0.2215  0.1866 -0.0758
  148DOPC   C1217588   2.866   5.229   7.103  0.1962 -0.8304 -0.1643
  148DOPC  H12A17589   2.954   5.292   7.112 -0.0575 -0.6002  0.9216
  148DOPC  H12B17590   2.790   5.272   7.167 -0.0121 -0.7770 -0.4473
  148DOPC   C1317591   3.026   5.030   7.112 -0.4351 -0.2463 -0.7687
  148DOPC  H13A17592   3.103   5.090   7.158 -0.9160  1.1157 -1.6591
  148DOPC  H13B17593   3.038   4.926   7.138  1.1811  0.2593  0.7119
  148DOPC  H13C17594   3.037   5.026   7.004 -0.4256 -1.5526 -0.7299
  148DOPC   C1417595   2.785   4.994   7.145 -0.2991  0.4663  0.1698
  148DOPC  H14A17596   2.763   4.976   7.040 -1.4828  1.7353  0.1753
  148DOPC  H14B17597   2.785   4.904   7.205  0.6178  1.1654  1.2600
  148DOPC  H14C17598   2.701   5.041   7.194  1.8602  1.5733  3.0505
  148DOPC   C1517599   2.909   5.105   7.310  0.1421 -0.4238 -0.4296
  148DOPC  H15A17600   2.822   5.149   7.358  1.5026  2.0770 -0.0805
  148DOPC  H15B17601   2.988   5.178   7.320  0.6694 -1.2871  2.7894
  148DOPC  H15C17602   2.931   5.012   7.359 -0.5094  0.3081  1.3669
  148DOPC   C1117603   2.836   5.248   6.950  0.2436 -0.1215  0.3765
  148DOPC  H11A17604   2.729   5.218   6.945  0.0722  0.4825  0.3417
  148DOPC  H11B17605   2.842   5.355   6.922  0.9988  0.1566  1.5296
  148DOPC     P17606   3.046   5.246   6.787  0.6252  0.2238  0.4169
  148DOPC   O1317607   3.140   5.142   6.734  0.5115 -0.6797  0.1779
  148DOPC   O1417608   3.110   5.358   6.865  0.2210 -0.6373  0.0531
  148DOPC   O1217609   2.930   5.177   6.875 -0.1313  0.1219 -0.3027
  148DOPC   O1117610   2.955   5.304   6.669  0.3860  0.1739 -0.3222
  148DOPC    C117611   2.914   5.193   6.581 -0.2171 -0.3688 -0.5806
  148DOPC    HA17612   2.830   5.135   6.627  3.6280 -5.1773  1.2482
  148DOPC    HB17613   2.988   5.114   6.559 -1.1560 -1.6621  0.6644
  148DOPC    C217614   2.877   5.258   6.449 -0.0563 -0.8156 -0.0857
  148DOPC    HS17615   2.841   5.179   6.380 -1.3641 -1.8847  1.7526
  148DOPC   O2117616   2.990   5.311   6.378 -0.1152 -0.4042 -0.0561
  148DOPC   C2117617   3.102   5.240   6.362 -0.4322 -0.3145  0.9919
  148DOPC   O2217618   3.120   5.121   6.370 -0.2103 -0.8708  0.2629
  148DOPC   C2217619   3.217   5.340   6.331 -0.6635  0.6828  0.0233
  148DOPC   H2R17620   3.199   5.424   6.402  0.4513  0.9993 -0.0373
  148DOPC   H2S17621   3.199   5.372   6.226 -1.8752  0.2502  0.0924
  148DOPC    C317622   2.760   5.358   6.457 -0.4627 -0.2054 -0.1314
  148DOPC    HX17623   2.777   5.423   6.545  3.3086 -0.4494 -0.5029
  148DOPC    HY17624   2.673   5.293   6.481 -0.1090 -0.0316  1.7511
  148DOPC   O3117625   2.739   5.433   6.338 -0.2351 -0.1689  0.5638
  148DOPC   C3117626   2.790   5.558   6.333  0.4005 -0.4755 -0.0541
  148DOPC   O3217627   2.827   5.618   6.430  0.2742  0.1339  0.3167
  148DOPC   C3217628   2.807   5.599   6.189 -0.7825 -0.3042 -1.3172
  148DOPC   H2X17629   2.808   5.507   6.128  1.9409 -1.3978  0.1840
  148DOPC   H2Y17630   2.724   5.662   6.151 -0.1643 -0.0353 -2.2445
  148DOPC   C2317631   3.363   5.288   6.336 -0.4616 -0.1405  0.6343
  148DOPC   H3R17632   3.381   5.214   6.417 -0.7801 -0.0298  0.8107
  148DOPC   H3S17633   3.421   5.380   6.356 -0.5574  0.1027 -0.1965
  148DOPC   C2417634   3.421   5.231   6.201 -0.7357 -0.5197 -0.0646
  148DOPC   H4R17635   3.395   5.292   6.112  0.0953 -3.0826 -2.1598
  148DOPC   H4S17636   3.367   5.137   6.180  0.3555 -1.1236 -0.2304
  148DOPC   C2517637   3.569   5.187   6.202  0.9561 -0.4934 -0.1397
  148DOPC   H5R17638   3.591   5.098   6.264  0.9207 -0.2280  0.2573
  148DOPC   H5S17639   3.635   5.271   6.233 -0.8496  1.4030 -1.1573
  148DOPC   C2617640   3.613   5.149   6.059 -0.0408  0.0197 -0.6110
  148DOPC   H6R17641   3.597   5.234   5.989 -0.0436 -0.2118 -0.8926
  148DOPC   H6S17642   3.550   5.069   6.016  1.8075 -0.5734 -2.4310
  148DOPC   C2717643   3.765   5.102   6.044  0.3273  0.4193 -1.1135
  148DOPC   H7R17644   3.765   5.035   5.955 -0.1745  0.4367 -1.1289
  148DOPC   H7S17645   3.787   5.041   6.134  0.6746 -0.2176 -1.6201
  148DOPC   C2817646   3.873   5.221   6.041  0.2194  0.5126 -0.4018
  148DOPC   H8R17647   3.973   5.175   6.026  0.4814  0.6396  0.8500
  148DOPC   H8S17648   3.875   5.269   6.141  0.9445 -0.6403  0.1527
  148DOPC   C2917649   3.845   5.326   5.935  0.5286 -0.2160 -0.0104
  148DOPC   H9R17650   3.793   5.411   5.982  2.9279  0.7229  1.1049
  148DOPC  C21017651   3.876   5.319   5.802 -0.5010  0.0972  0.4163
  148DOPC  H10R17652   3.859   5.405   5.736 -0.4373  1.4355  2.0819
  148DOPC  C21117653   3.939   5.200   5.733 -0.8143 -0.0131  0.0021
  148DOPC  H11R17654   3.955   5.104   5.786  2.0218 -0.3805 -1.3281
  148DOPC  H11S17655   4.047   5.222   5.720  0.1231 -4.7927 -3.2014
  148DOPC  C21217656   3.885   5.172   5.592 -0.6848  0.1842 -0.5156
  148DOPC  H12R17657   3.777   5.145   5.602 -0.4930 -0.0805  1.1417
  148DOPC  H12S17658   3.927   5.078   5.551 -0.9117  0.6874 -1.9505
  148DOPC  C21317659   3.913   5.277   5.483 -0.0208 -0.1402 -0.2856
  148DOPC  H13R17660   4.021   5.299   5.493 -0.2478  1.1011 -0.3554
  148DOPC  H13S17661   3.849   5.365   5.508 -1.2153 -0.7378 -1.1645
  148DOPC  C21417662   3.886   5.221   5.340  0.2309  0.2257 -0.4482
  148DOPC  H14R17663   3.966   5.144   5.333  0.8485  0.5164  2.2381
  148DOPC  H14S17664   3.919   5.297   5.267 -0.0478  1.4643  0.6704
  148DOPC  C21517665   3.750   5.163   5.314 -0.5658  0.2293  1.0533
  148DOPC  H15R17666   3.672   5.238   5.338 -2.2632 -0.5799 -1.4933
  148DOPC  H15S17667   3.722   5.084   5.387  0.6775 -1.2823 -0.0448
  148DOPC  C21617668   3.707   5.113   5.176 -0.5696  0.2978  1.0291
  148DOPC  H16R17669   3.717   5.197   5.104  1.1384 -0.2085  0.6185
  148DOPC  H16S17670   3.602   5.079   5.189 -0.5495 -0.3167 -0.2214
  148DOPC  C21717671   3.783   4.992   5.108  0.8044 -0.3299  0.7706
  148DOPC  H17R17672   3.887   5.017   5.078 -0.1031 -0.0639 -2.6181
  148DOPC  H17S17673   3.730   4.969   5.013 -0.1045  2.4416  0.5332
  148DOPC  C21817674   3.782   4.869   5.201  0.2116 -0.0435  0.2674
  148DOPC  H18R17675   3.835   4.784   5.151 -1.5422 -0.7019 -0.5330
  148DOPC  H18S17676   3.678   4.833   5.214 -0.1790  0.6207 -0.8967
  148DOPC  H18T17677   3.830   4.894   5.298  1.0860 -0.2159 -0.1066
  148DOPC   C3317678   2.953   5.660   6.178 -0.7777  0.0299  0.5930
  148DOPC   H3X17679   3.021   5.590   6.231 -2.1062 -2.1291 -0.3874
  148DOPC   H3Y17680   2.961   5.758   6.230  4.1620  0.0417  0.2047
  148DOPC   C3417681   3.013   5.676   6.034 -0.1141  0.2859  0.0549
  148DOPC   H4X17682   3.110   5.731   6.046  0.9036 -1.2513 -0.7897
  148DOPC   H4Y17683   2.938   5.732   5.975 -2.9508 -3.2463 -0.0034
  148DOPC   C3517684   3.037   5.539   5.966 -0.0450 -0.3365 -0.0522
  148DOPC   H5X17685   2.949   5.473   5.979 -0.9551  0.5137 -1.6334
  148DOPC   H5Y17686   3.126   5.493   6.014 -0.0688  1.6723  2.0788
  148DOPC   C3617687   3.064   5.566   5.820  0.2624  0.0303 -0.2909
  148DOPC   H6X17688   3.016   5.484   5.761  1.7403 -0.1829 -1.2639
  148DOPC   H6Y17689   3.003   5.655   5.792  1.1999  0.2493 -1.7943
  148DOPC   C3717690   3.206   5.572   5.767 -0.9768 -0.9005  0.1483
  148DOPC   H7X17691   3.205   5.624   5.669 -0.1742  0.5070  0.8590
  148DOPC   H7Y17692   3.259   5.636   5.840  0.5719  0.1701 -1.8210
  148DOPC   C3817693   3.269   5.434   5.734  0.1743  0.5629 -0.4123
  148DOPC   H8X17694   3.188   5.394   5.669 -0.8560  2.4025 -0.3290
  148DOPC   H8Y17695   3.272   5.365   5.821 -0.1441  0.8602 -0.1619
  148DOPC   C3917696   3.401   5.435   5.666  0.2829 -0.1765 -0.1973
  148DOPC   H9X17697   3.480   5.463   5.738  1.9733 -2.1287 -1.1795
  148DOPC  C31017698   3.445   5.404   5.538  0.2754  0.6688 -0.8914
  148DOPC  H10X17699   3.551   5.408   5.510  1.2031 -2.1157  1.6686
  148DOPC  C31117700   3.369   5.363   5.411  0.6044  0.0119 -0.0677
  148DOPC  H11X17701   3.276   5.310   5.440  0.6133 -0.2493 -0.5102
  148DOPC  H11Y17702   3.432   5.289   5.358  2.8409  1.4498  0.4748
  148DOPC  C31217703   3.347   5.480   5.319 -0.8424 -0.6707 -0.1328
  148DOPC  H12X17704   3.446   5.527   5.300 -0.4013  0.3265  3.8697
  148DOPC  H12Y17705   3.286   5.555   5.373  0.7599 -0.0327  0.8446
  148DOPC  C31317706   3.270   5.431   5.197 -1.2090 -0.1438 -0.4789
  148DOPC  H13X17707   3.315   5.342   5.149  0.4807  0.8377 -0.7920
  148DOPC  H13Y17708   3.167   5.401   5.227 -0.3796 -1.1339  1.5538
  148DOPC  C31417709   3.259   5.541   5.086  0.1991 -0.1417 -0.1746
  148DOPC  H14X17710   3.206   5.624   5.136  0.7414 -1.2968  2.5082
  148DOPC  H14Y17711   3.358   5.573   5.050 -0.2650  1.1441 -0.3726
  148DOPC  C31517712   3.176   5.484   4.972  0.4560  0.1209  0.3097
  148DOPC  H15X17713   3.073   5.495   5.012  1.0263 -1.3382  2.3292
  148DOPC  H15Y17714   3.192   5.377   4.949 -1.3989 -0.0844 -0.1729
  148DOPC  C31617715   3.192   5.572   4.846  0.0873  0.2735  0.2047
  148DOPC  H16X17716   3.112   5.549   4.772  0.3965 -2.4188  0.5914
  148DOPC  H16Y17717   3.178   5.678   4.877  0.5104  0.0545  1.1819
  148DOPC  C31717718   3.330   5.573   4.783  0.4201 -0.0242  0.6116
  148DOPC  H17X17719   3.328   5.629   4.687  1.8849  1.4033  1.3550
  148DOPC  H17Y17720   3.386   5.642   4.849  1.0086  0.9223 -0.8232
  148DOPC  C31817721   3.404   5.443   4.769  0.3692  0.3916 -0.2039
  148DOPC  H18X17722   3.445   5.416   4.869  2.7874  0.1545 -1.2028
  148DOPC  H18Y17723   3.341   5.354   4.743  2.1086 -0.7023 -0.8318
  148DOPC  H18Z17724   3.486   5.457   4.696 -1.1595  1.0794 -1.8877
  149DOPC     N17725   0.601   2.747   6.499 -0.8769  0.1162 -0.1336
  149DOPC   C1217726   0.702   2.693   6.594 -0.0926  0.5251  0.0743
  149DOPC  H12A17727   0.745   2.767   6.661  0.8945  1.9054 -1.9889
  149DOPC  H12B17728   0.782   2.651   6.534  0.1702  0.0078  0.7620
  149DOPC   C1317729   0.660   2.846   6.403 -0.5217 -0.0148  0.4282
  149DOPC  H13A17730   0.590   2.882   6.329 -0.2796 -1.9770 -0.8045
  149DOPC  H13B17731   0.695   2.933   6.457 -1.3608  0.7018 -0.1408
  149DOPC  H13C17732   0.740   2.803   6.346  0.6512 -0.1233  2.0930
  149DOPC   C1417733   0.498   2.815   6.581  0.1489 -0.1712 -0.1918
  149DOPC  H14A17734   0.437   2.868   6.509  1.0882  0.8024 -0.3122
  149DOPC  H14B17735   0.425   2.755   6.633 -1.3426  3.4222  2.2790
  149DOPC  H14C17736   0.535   2.873   6.664 -2.2479  0.2052  0.6835
  149DOPC   C1517737   0.541   2.629   6.428 -0.0527  0.2366  0.4866
  149DOPC  H15A17738   0.611   2.589   6.355 -0.9102  0.6710 -0.6014
  149DOPC  H15B17739   0.450   2.655   6.376 -0.2198 -0.4759  0.4230
  149DOPC  H15C17740   0.527   2.557   6.506  2.0209 -2.0011 -1.0633
  149DOPC   C1117741   0.653   2.593   6.703  1.1616 -0.1034  1.2097
  149DOPC  H11A17742   0.603   2.653   6.781 -1.4935  1.4295 -1.4516
  149DOPC  H11B17743   0.577   2.523   6.662  2.5788 -0.2627 -1.3972
  149DOPC     P17744   0.883   2.573   6.825  0.2311  0.0183  0.0662
  149DOPC   O1317745   0.894   2.524   6.964 -0.2083 -0.3445 -0.3629
  149DOPC   O1417746   0.894   2.720   6.802  0.1439 -0.5093  0.4004
  149DOPC   O1217747   0.758   2.514   6.755  0.6581  0.4705 -0.2505
  149DOPC   O1117748   0.995   2.503   6.740 -0.1390  0.0405  0.2274
  149DOPC    C117749   0.994   2.352   6.723  0.4911 -0.6334  0.4264
  149DOPC    HA17750   0.898   2.307   6.757 -0.1005  0.4485  0.2527
  149DOPC    HB17751   1.081   2.308   6.776  1.5311 -1.2080 -1.6669
  149DOPC    C217752   1.006   2.303   6.572  0.6808 -0.7223  0.1866
  149DOPC    HS17753   0.977   2.195   6.570 -2.7786  0.0944 -0.2731
  149DOPC   O2117754   1.134   2.325   6.515  0.2931  0.0845 -1.0576
  149DOPC   C2117755   1.232   2.251   6.567  0.3059 -0.7951 -0.2094
  149DOPC   O2217756   1.216   2.161   6.651  0.4047  0.5855  0.6303
  149DOPC   C2217757   1.365   2.289   6.513 -0.2726 -0.5041 -0.0535
  149DOPC   H2R17758   1.368   2.398   6.539 -0.2432 -0.8360  1.4505
  149DOPC   H2S17759   1.365   2.275   6.403  0.5593  1.7165 -0.3882
  149DOPC    C317760   0.898   2.371   6.478 -0.0798  0.3235  0.5882
  149DOPC    HX17761   0.917   2.479   6.457 -1.4194  0.0852 -2.3031
  149DOPC    HY17762   0.799   2.367   6.528 -0.9515  0.3265 -1.0880
  149DOPC   O3117763   0.882   2.303   6.349 -0.3118 -0.2612  0.3341
  149DOPC   C3117764   0.789   2.343   6.265  0.2117 -0.4878  0.0347
  149DOPC   O3217765   0.713   2.436   6.287  0.2617 -0.9302 -0.6808
  149DOPC   C3217766   0.810   2.271   6.128  0.1594 -0.0881  0.3506
  149DOPC   H2X17767   0.919   2.258   6.119  0.2530  1.3627 -1.4019
  149DOPC   H2Y17768   0.757   2.174   6.134 -1.6615  0.8697  0.8110
  149DOPC   C2317769   1.487   2.220   6.573  0.0869  0.6518  0.7646
  149DOPC   H3R17770   1.490   2.109   6.568  0.0340  0.6987 -0.7013
  149DOPC   H3S17771   1.492   2.253   6.679  0.3605 -1.7385  1.5499
  149DOPC   C2417772   1.614   2.283   6.518  0.5390 -0.2469  0.1913
  149DOPC   H4R17773   1.622   2.253   6.412 -2.1811 -0.4976 -0.0133
  149DOPC   H4S17774   1.702   2.236   6.567  0.1998  0.6669  1.7586
  149DOPC   C2517775   1.631   2.435   6.528  0.3532  0.1752  0.4814
  149DOPC   H5R17776   1.623   2.465   6.634 -1.6767 -1.4042  0.8372
  149DOPC   H5S17777   1.543   2.478   6.475  1.6237  1.5054 -0.6205
  149DOPC   C2617778   1.754   2.503   6.470 -0.3418 -0.2998  0.1801
  149DOPC   H6R17779   1.845   2.470   6.525 -1.3789 -0.3674  1.9286
  149DOPC   H6S17780   1.751   2.613   6.486  0.6489 -0.4830  1.9508
  149DOPC   C2717781   1.795   2.452   6.328 -0.5519  0.0695  0.2701
  149DOPC   H7R17782   1.806   2.342   6.333 -1.0358  0.0043 -0.0768
  149DOPC   H7S17783   1.894   2.494   6.298 -0.6714 -0.3370 -0.7457
  149DOPC   C2817784   1.696   2.486   6.216 -0.1631  0.5190 -0.4953
  149DOPC   H8R17785   1.684   2.597   6.219  1.2419  0.6792  0.8747
  149DOPC   H8S17786   1.598   2.439   6.239  0.7064 -1.8534 -1.4381
  149DOPC   C2917787   1.736   2.430   6.085 -0.2982  0.3995 -0.9372
  149DOPC   H9R17788   1.724   2.321   6.083 -1.6332  0.5195 -0.3649
  149DOPC  C21017789   1.808   2.500   6.001 -0.3242  0.0027 -0.1261
  149DOPC  H10R17790   1.843   2.454   5.908  3.0508  0.5692  0.7425
  149DOPC  C21117791   1.857   2.642   6.022 -0.1561  0.4199 -0.6276
  149DOPC  H11R17792   1.879   2.656   6.130  0.5729 -0.8669 -0.5921
  149DOPC  H11S17793   1.785   2.714   5.978 -0.4271  1.6952  1.7557
  149DOPC  C21217794   1.991   2.662   5.942  0.0536  0.2193 -0.1057
  149DOPC  H12R17795   2.025   2.767   5.947  3.2894 -0.7104 -0.2781
  149DOPC  H12S17796   1.981   2.635   5.835 -1.2125  0.6053 -0.0983
  149DOPC  C21317797   2.103   2.578   6.001  0.4701 -0.2691 -0.3242
  149DOPC  H13R17798   2.090   2.469   5.981 -3.3972  0.1698 -0.9951
  149DOPC  H13S17799   2.116   2.594   6.110 -0.2672  1.0769 -0.4117
  149DOPC  C21417800   2.237   2.622   5.931  0.4725  0.3330 -0.0300
  149DOPC  H14R17801   2.257   2.727   5.963 -2.5178  0.7384  0.7581
  149DOPC  H14S17802   2.216   2.623   5.822 -1.4845  0.9754  0.3177
  149DOPC  C21517803   2.351   2.525   5.962  0.0191 -0.2119  0.0255
  149DOPC  H15R17804   2.322   2.431   5.910  1.6948 -1.1683  0.7450
  149DOPC  H15S17805   2.346   2.502   6.070 -0.7609  0.6482  0.1860
  149DOPC  C21617806   2.489   2.576   5.910 -0.8073 -0.1384 -0.7132
  149DOPC  H16R17807   2.507   2.680   5.943  0.2914 -0.4578 -0.2648
  149DOPC  H16S17808   2.478   2.582   5.800  0.5423  0.5077 -0.8204
  149DOPC  C21717809   2.599   2.474   5.948  0.1789  0.0688  0.2467
  149DOPC  H17R17810   2.589   2.459   6.058  1.1839 -0.1629  0.3139
  149DOPC  H17S17811   2.695   2.523   5.923 -0.0700 -0.3535 -1.6566
  149DOPC  C21817812   2.598   2.350   5.871  0.0795 -0.1922  0.1856
  149DOPC  H18R17813   2.585   2.368   5.762  3.1536  3.7107  0.2654
  149DOPC  H18S17814   2.521   2.280   5.909  1.0571 -1.5010 -0.1747
  149DOPC  H18T17815   2.697   2.300   5.879  0.1603 -0.4709 -1.9372
  149DOPC   C3317816   0.762   2.347   6.008  0.3982 -0.2888 -0.1496
  149DOPC   H3X17817   0.788   2.455   6.016 -0.2410  0.3732 -4.3321
  149DOPC   H3Y17818   0.652   2.338   6.019  0.0669  1.6370 -1.4511
  149DOPC   C3417819   0.805   2.299   5.871  0.4374 -0.6917  0.1328
  149DOPC   H4X17820   0.915   2.310   5.854  0.3782  1.7330  0.9168
  149DOPC   H4Y17821   0.766   2.361   5.787 -0.1281 -0.3969  0.6131
  149DOPC   C3517822   0.777   2.157   5.841  1.0448  0.5900  0.0760
  149DOPC   H5X17823   0.672   2.133   5.867  1.7844 -1.0349  1.8002
  149DOPC   H5Y17824   0.842   2.106   5.915  0.2523  0.5230  0.7368
  149DOPC   C3617825   0.819   2.106   5.701  0.5718 -0.3427  0.4511
  149DOPC   H6X17826   0.743   2.142   5.629 -1.5264 -3.4216  0.9119
  149DOPC   H6Y17827   0.920   2.148   5.680  0.8239 -0.0296  2.1177
  149DOPC   C3717828   0.816   1.954   5.692  1.0638  0.5043 -0.1260
  149DOPC   H7X17829   0.897   1.919   5.759  1.6528 -1.5399 -1.7948
  149DOPC   H7Y17830   0.721   1.908   5.727  1.0563  0.4634 -0.1994
  149DOPC   C3817831   0.844   1.892   5.552 -0.1934 -0.7434  0.3868
  149DOPC   H8X17832   0.777   1.941   5.479  2.6280  1.3363 -0.9992
  149DOPC   H8Y17833   0.822   1.783   5.556 -1.2096 -0.6263 -1.2748
  149DOPC   C3917834   0.985   1.913   5.487 -0.0207  0.8949  0.0506
  149DOPC   H9X17835   1.012   2.016   5.461  2.8759  0.0648 -0.6250
  149DOPC  C31017836   1.077   1.817   5.460  0.3036 -0.5739 -0.2054
  149DOPC  H10X17837   1.177   1.844   5.421  0.8352 -0.2928  1.3029
  149DOPC  C31117838   1.046   1.673   5.466 -0.5047  0.5192 -0.1867
  149DOPC  H11X17839   1.085   1.626   5.374  1.0758  0.0295  0.6934
  149DOPC  H11Y17840   0.937   1.652   5.468 -0.2008 -1.4395  3.1225
  149DOPC  C31217841   1.117   1.593   5.575 -0.1972 -0.7895 -0.1205
  149DOPC  H12X17842   1.226   1.615   5.571  0.1223 -0.9468  3.9170
  149DOPC  H12Y17843   1.084   1.488   5.562 -0.0095 -0.9451  0.6116
  149DOPC  C31317844   1.079   1.646   5.721  0.1218  0.5965  0.0582
  149DOPC  H13X17845   1.170   1.623   5.780 -0.0679  1.6400  0.7886
  149DOPC  H13Y17846   1.050   1.754   5.725 -0.9463  0.3066  0.2597
  149DOPC  C31417847   0.958   1.574   5.789 -0.1517 -1.3196 -0.9844
  149DOPC  H14X17848   0.874   1.554   5.720 -1.9694 -0.2075  0.7694
  149DOPC  H14Y17849   0.997   1.472   5.810  0.6053 -0.9827 -0.7016
  149DOPC  C31517850   0.920   1.628   5.931 -0.1463  0.2342  0.2068
  149DOPC  H15X17851   0.865   1.725   5.926  0.8861  0.8187  0.0059
  149DOPC  H15Y17852   1.016   1.624   5.986 -0.2410  2.6793  0.6408
  149DOPC  C31617853   0.826   1.534   6.010  0.3278 -0.0086 -0.6713
  149DOPC  H16X17854   0.730   1.512   5.959  0.5036 -2.7155  0.0414
  149DOPC  H16Y17855   0.882   1.439   6.007 -1.6659 -1.2227 -1.3656
  149DOPC  C31717856   0.806   1.574   6.160  0.3978  0.1064 -0.1561
  149DOPC  H17X17857   0.801   1.482   6.222 -2.4915 -1.8450 -2.9479
  149DOPC  H17Y17858   0.894   1.634   6.191  1.0885 -0.4699 -0.9481
  149DOPC  C31817859   0.674   1.652   6.180 -1.0304 -0.2525 -0.2253
  149DOPC  H18X17860   0.581   1.614   6.133 -1.4896  0.1784  0.3167
  149DOPC  H18Y17861   0.642   1.665   6.285 -0.1684 -2.1392  0.3082
  149DOPC  H18Z17862   0.694   1.751   6.134  0.5731 -0.1282  0.6599
  150DOPC     N17863   5.391   5.823   7.454 -0.1410 -0.0017 -0.6391
  150DOPC   C1217864   5.487   5.711   7.428  0.5537  0.3308 -0.0247
  150DOPC  H12A17865   5.489   5.651   7.518  0.7392  0.8347  0.3072
  150DOPC  H12B17866   5.586   5.748   7.405 -0.0534  2.1857  0.2092
  150DOPC   C1317867   5.242   5.791   7.461  0.3235 -0.0188  0.1548
  150DOPC  H13A17868   5.181   5.876   7.485 -1.2878 -0.8292 -0.9090
  150DOPC  H13B17869   5.214   5.756   7.363 -0.5466 -0.7754  0.6562
  150DOPC  H13C17870   5.213   5.708   7.524  0.5105 -0.5347 -0.4240
  150DOPC   C1417871   5.415   5.933   7.358  0.6713  0.0106  0.9580
  150DOPC  H14A17872   5.516   5.971   7.358  0.7136 -0.0839  1.8521
  150DOPC  H14B17873   5.381   5.910   7.258 -1.3417  0.2116  1.5409
  150DOPC  H14C17874   5.349   6.017   7.372  0.0587 -0.0222 -1.3582
  150DOPC   C1517875   5.415   5.869   7.597  0.2567  0.4013 -0.1900
  150DOPC  H15A17876   5.341   5.940   7.630  1.5131  1.3413  0.6868
  150DOPC  H15B17877   5.513   5.912   7.608  0.5155 -0.3098  0.4054
  150DOPC  H15C17878   5.410   5.785   7.665  2.5588 -0.3629 -0.8724
  150DOPC   C1117879   5.459   5.618   7.307  0.2236  0.3348  0.4498
  150DOPC  H11A17880   5.492   5.671   7.215  0.3645  0.6300  0.6693
  150DOPC  H11B17881   5.534   5.536   7.309  3.1593  2.7760 -1.2940
  150DOPC     P17882   5.275   5.444   7.382  0.5394 -0.1070 -0.3007
  150DOPC   O1317883   5.145   5.462   7.441  0.5095  0.5673 -0.4888
  150DOPC   O1417884   5.386   5.413   7.482 -0.1376  0.1722  0.1984
  150DOPC   O1217885   5.321   5.572   7.300  0.5722 -0.4648  0.4542
  150DOPC   O1117886   5.269   5.335   7.268 -0.2256 -0.3825 -0.4006
  150DOPC    C117887   5.309   5.358   7.130  0.2733 -0.3245  0.3642
  150DOPC    HA17888   5.332   5.260   7.082 -3.5833 -0.2476 -2.0912
  150DOPC    HB17889   5.404   5.415   7.129 -0.6755  1.3522  1.4760
  150DOPC    C217890   5.198   5.417   7.045  0.0282 -0.5043 -0.6113
  150DOPC    HS17891   5.168   5.506   7.103 -3.7964 -1.6732 -0.5005
  150DOPC   O2117892   5.089   5.324   7.039 -0.2607 -0.3250 -0.3363
  150DOPC   C2117893   4.972   5.383   7.043 -0.0888  0.5025 -0.2201
  150DOPC   O2217894   4.946   5.498   7.029 -0.2495 -0.6441 -0.0973
  150DOPC   C2217895   4.872   5.273   7.053 -0.0752 -0.6089  0.4942
  150DOPC   H2R17896   4.872   5.235   7.158  1.7462  1.4100  1.3022
  150DOPC   H2S17897   4.897   5.175   7.008 -1.2954  0.1469 -1.9758
  150DOPC    C317898   5.243   5.455   6.901  0.1745 -0.4577 -0.0896
  150DOPC    HX17899   5.303   5.549   6.907 -0.0905 -0.3030  0.1614
  150DOPC    HY17900   5.157   5.494   6.843 -0.8525 -0.0872  1.6009
  150DOPC   O3117901   5.323   5.353   6.832 -0.1904 -0.2733 -0.1883
  150DOPC   C3117902   5.253   5.248   6.781  0.6641 -0.6449 -0.1125
  150DOPC   O3217903   5.133   5.233   6.786  0.3511 -0.2762  0.5995
  150DOPC   C3217904   5.355   5.161   6.710 -0.2675 -0.7363 -0.3073
  150DOPC   H2X17905   5.410   5.240   6.654 -0.1383  1.2444  2.4209
  150DOPC   H2Y17906   5.415   5.118   6.794 -0.5601  0.3169  0.4594
  150DOPC   C2317907   4.730   5.316   7.009 -0.1541 -0.2676 -1.2449
  150DOPC   H3R17908   4.703   5.420   7.040  0.3155 -0.7180  0.8207
  150DOPC   H3S17909   4.654   5.247   7.052 -0.4042  0.4114 -0.5792
  150DOPC   C2417910   4.711   5.311   6.862  0.4536 -0.9332 -0.0057
  150DOPC   H4R17911   4.777   5.388   6.816 -1.0335  0.6803  0.4291
  150DOPC   H4S17912   4.610   5.352   6.840  0.8436  1.5566  2.2470
  150DOPC   C2517913   4.730   5.178   6.792 -0.3056 -0.5890  0.3405
  150DOPC   H5R17914   4.647   5.116   6.831 -1.5147  1.4287  1.1675
  150DOPC   H5S17915   4.824   5.127   6.821  0.4176  0.9606  0.8445
  150DOPC   C2617916   4.724   5.177   6.634 -0.2306  0.1259  0.0347
  150DOPC   H6R17917   4.824   5.209   6.597 -0.2986  1.3040  0.8179
  150DOPC   H6S17918   4.643   5.243   6.596  0.8190  2.3015  1.3730
  150DOPC   C2717919   4.688   5.028   6.587 -0.7333 -0.6969 -0.0793
  150DOPC   H7R17920   4.587   5.017   6.631 -0.9681  2.6353  0.4918
  150DOPC   H7S17921   4.752   4.951   6.634  0.6214 -1.2239 -2.6261
  150DOPC   C2817922   4.665   5.014   6.433  0.0056 -0.1325 -0.0731
  150DOPC   H8R17923   4.750   5.042   6.368 -0.2474  1.3205  0.2017
  150DOPC   H8S17924   4.598   5.098   6.404  0.2293 -0.0361 -0.3115
  150DOPC   C2917925   4.608   4.881   6.379  0.2720 -0.2586 -0.0645
  150DOPC   H9R17926   4.541   4.828   6.448 -0.9545  1.3431  0.0365
  150DOPC  C21017927   4.641   4.810   6.269  0.5177 -0.1860  0.5097
  150DOPC  H10R17928   4.596   4.713   6.245 -1.3649  0.0629  2.7558
  150DOPC  C21117929   4.745   4.851   6.168  0.1045 -0.2482 -0.6024
  150DOPC  H11R17930   4.808   4.761   6.156  1.5150  0.8633 -2.0061
  150DOPC  H11S17931   4.815   4.932   6.199 -0.9542 -0.3848  2.4813
  150DOPC  C21217932   4.669   4.874   6.035 -0.3347 -0.2733 -0.1921
  150DOPC  H12R17933   4.614   4.971   6.034 -1.7801 -1.0564 -1.1001
  150DOPC  H12S17934   4.594   4.795   6.015 -2.5112  1.8407 -0.9160
  150DOPC  C21317935   4.756   4.869   5.908 -0.1905  0.0622 -0.1335
  150DOPC  H13R17936   4.816   4.776   5.902  0.2250  0.3788 -1.1053
  150DOPC  H13S17937   4.840   4.942   5.916  0.3232 -0.5692  0.3748
  150DOPC  C21417938   4.683   4.888   5.769 -0.7671  0.2007  0.6073
  150DOPC  H14R17939   4.627   4.983   5.785  0.8133  1.3775 -0.5504
  150DOPC  H14S17940   4.612   4.807   5.740  0.4681 -0.5466 -0.4662
  150DOPC  C21517941   4.782   4.890   5.651 -0.1742  0.2110 -0.1623
  150DOPC  H15R17942   4.845   4.798   5.652 -0.0967  0.2560 -0.5689
  150DOPC  H15S17943   4.856   4.969   5.676  0.5938 -0.3829 -0.5211
  150DOPC  C21617944   4.723   4.908   5.514  0.2366  0.6366  0.2481
  150DOPC  H16R17945   4.665   5.002   5.501 -2.1962 -0.7655  0.2814
  150DOPC  H16S17946   4.636   4.839   5.505  1.5939 -1.0200 -0.8300
  150DOPC  C21717947   4.825   4.871   5.404 -0.2694 -0.5779 -0.1609
  150DOPC  H17R17948   4.846   4.762   5.415 -2.2204 -1.0580 -0.7961
  150DOPC  H17S17949   4.915   4.935   5.421  1.1199 -1.3039 -3.7939
  150DOPC  C21817950   4.786   4.884   5.254  0.0941  0.5767  0.0450
  150DOPC  H18R17951   4.696   4.820   5.243  0.0578  0.5497  0.4650
  150DOPC  H18S17952   4.870   4.846   5.193  0.3707  2.7835 -1.0607
  150DOPC  H18T17953   4.769   4.991   5.230  0.4286  1.0261  1.6743
  150DOPC   C3317954   5.293   5.047   6.624 -0.8949  0.1672  0.1051
  150DOPC   H3X17955   5.247   5.090   6.532  1.0360 -1.5887 -1.7900
  150DOPC   H3Y17956   5.222   5.002   6.697  1.7332 -1.1142  2.0682
  150DOPC   C3417957   5.384   4.925   6.588  0.2299 -0.4938  0.8167
  150DOPC   H4X17958   5.460   4.905   6.666  0.9275  0.8885  0.5126
  150DOPC   H4Y17959   5.440   4.960   6.499 -0.5130 -1.6291 -0.1353
  150DOPC   C3517960   5.306   4.803   6.538 -0.0700  0.5687 -0.1043
  150DOPC   H5X17961   5.244   4.776   6.627 -0.7654  0.9725 -0.4619
  150DOPC   H5Y17962   5.368   4.713   6.517  0.8829  0.9071  1.1198
  150DOPC   C3617963   5.213   4.829   6.415 -0.0035  0.0602 -0.2010
  150DOPC   H6X17964   5.158   4.924   6.429  0.1108 -0.1815  2.3702
  150DOPC   H6Y17965   5.271   4.839   6.320 -1.5173 -0.6177 -1.2468
  150DOPC   C3717966   5.113   4.720   6.383  0.2374  0.0146 -0.1473
  150DOPC   H7X17967   5.162   4.623   6.406  1.9657  0.7438 -0.5590
  150DOPC   H7Y17968   5.024   4.722   6.450 -1.3358 -2.0398 -2.0399
  150DOPC   C3817969   5.076   4.715   6.237  0.1684 -0.2381  0.7381
  150DOPC   H8X17970   5.159   4.726   6.164 -3.1162  1.8790 -3.1221
  150DOPC   H8Y17971   5.004   4.795   6.208  2.8234  2.0104 -0.0923
  150DOPC   C3917972   5.000   4.587   6.202  0.4833 -0.5767  0.0170
  150DOPC   H9X17973   4.898   4.580   6.242  0.8124 -0.2149  0.9499
  150DOPC  C31017974   5.057   4.492   6.132  0.0787 -0.2776 -0.6274
  150DOPC  H10X17975   5.003   4.397   6.133  0.2426 -0.3800  0.8300
  150DOPC  C31117976   5.205   4.474   6.091 -0.4796 -0.4892 -0.2272
  150DOPC  H11X17977   5.267   4.445   6.178 -1.7757 -0.6435  0.6761
  150DOPC  H11Y17978   5.243   4.573   6.057 -1.1461  0.4370  1.6093
  150DOPC  C31217979   5.232   4.366   5.990  0.6818  0.7066  0.3286
  150DOPC  H12X17980   5.195   4.271   6.035  1.8780  0.6856  1.3014
  150DOPC  H12Y17981   5.338   4.348   5.962  0.2117 -1.0513 -0.4811
  150DOPC  C31317982   5.162   4.394   5.850 -0.1631 -0.2153  0.1533
  150DOPC  H13X17983   5.053   4.412   5.858 -0.2177 -0.8132  0.9314
  150DOPC  H13Y17984   5.196   4.491   5.809  1.7598 -2.4021 -4.0401
  150DOPC  C31417985   5.208   4.302   5.741 -0.6443  0.1997 -0.2745
  150DOPC  H14X17986   5.319   4.306   5.733 -0.7370  1.4539 -1.4175
  150DOPC  H14Y17987   5.185   4.197   5.769  1.4304 -0.0197  0.8001
  150DOPC  C31517988   5.151   4.329   5.597  0.0595  0.4092  0.2000
  150DOPC  H15X17989   5.048   4.357   5.630 -0.4504  0.0975 -1.0657
  150DOPC  H15Y17990   5.144   4.249   5.520  1.7926 -0.0523  0.4951
  150DOPC  C31617991   5.213   4.450   5.526  0.3444  0.1017 -0.6169
  150DOPC  H16X17992   5.243   4.514   5.612  5.3040  0.1236 -2.0402
  150DOPC  H16Y17993   5.308   4.428   5.473  1.1499  0.5182  0.6135
  150DOPC  C31717994   5.101   4.512   5.438  0.3088 -0.3270 -0.3388
  150DOPC  H17X17995   5.035   4.434   5.395  2.1119 -1.7317 -0.6821
  150DOPC  H17Y17996   5.040   4.560   5.518  0.4968  0.0990 -0.4448
  150DOPC  C31817997   5.156   4.614   5.342 -0.1046  0.3930 -0.1984
  150DOPC  H18X17998   5.242   4.577   5.282 -0.9869  1.5205 -2.2363
  150DOPC  H18Y17999   5.083   4.620   5.259  0.4151 -0.2769 -0.7174
  150DOPC  H18Z18000   5.181   4.711   5.390 -1.7699 -0.0044  1.5919
  151DOPC     N18001   1.517   2.957   7.449  0.1711  0.3386  0.6670
  151DOPC   C1218002   1.494   2.817   7.499  0.2714 -0.2110 -0.2803
  151DOPC  H12A18003   1.393   2.802   7.532  0.6954 -1.1505  0.6505
  151DOPC  H12B18004   1.565   2.803   7.579  2.0209  2.5997 -1.1882
  151DOPC   C1318005   1.659   2.970   7.411 -0.0765  0.3293  0.2264
  151DOPC  H13A18006   1.720   2.974   7.500 -0.9154 -1.8962  0.9749
  151DOPC  H13B18007   1.684   2.879   7.359  0.4979  0.9977 -0.6999
  151DOPC  H13C18008   1.671   3.053   7.343  2.0681 -1.6308 -2.0100
  151DOPC   C1418009   1.476   3.052   7.552 -0.4254  0.9170  0.2954
  151DOPC  H14A18010   1.374   3.045   7.586 -0.9295 -0.6523 -1.4353
  151DOPC  H14B18011   1.540   3.050   7.640  1.1881 -2.3142 -0.7835
  151DOPC  H14C18012   1.477   3.156   7.522  1.0340  1.9750  3.4513
  151DOPC   C1518013   1.429   2.989   7.329  0.6801  0.4646 -0.5242
  151DOPC  H15A18014   1.471   2.938   7.243  0.3712  0.2874 -0.5716
  151DOPC  H15B18015   1.442   3.093   7.304 -0.3642  0.0760 -2.9647
  151DOPC  H15C18016   1.326   2.958   7.338  1.3945 -1.6097  1.5120
  151DOPC   C1118017   1.520   2.706   7.397  0.2408  0.9317 -0.4564
  151DOPC  H11A18018   1.483   2.611   7.441  1.1285  0.9040  0.2542
  151DOPC  H11B18019   1.464   2.730   7.305  0.9005 -0.9828 -1.4186
  151DOPC     P18020   1.719   2.571   7.291 -0.1125  0.3551  0.2175
  151DOPC   O1318021   1.607   2.514   7.208 -0.3111  0.0336  0.4381
  151DOPC   O1418022   1.791   2.480   7.384  0.4334  0.3613  0.4577
  151DOPC   O1218023   1.659   2.683   7.378  0.9181 -0.1932  0.2303
  151DOPC   O1118024   1.825   2.643   7.199 -0.0676  0.5206  0.3162
  151DOPC    C118025   1.897   2.758   7.253  0.4799 -0.5867 -0.0482
  151DOPC    HA18026   1.941   2.742   7.354  0.8669  1.5075  0.1581
  151DOPC    HB18027   1.831   2.846   7.270  1.7054  0.0796  1.5858
  151DOPC    C218028   2.016   2.790   7.167  0.3774 -0.7139 -0.5143
  151DOPC    HS18029   2.077   2.867   7.219  0.1466 -0.1223 -1.0935
  151DOPC   O2118030   1.989   2.823   7.029 -0.3128  0.1717  0.1965
  151DOPC   C2118031   1.938   2.935   7.006  0.9258  0.2457 -0.9305
  151DOPC   O2218032   1.894   3.016   7.082 -0.3661 -0.3577 -0.2422
  151DOPC   C2218033   1.931   2.942   6.855 -0.1074  0.2451  0.6533
  151DOPC   H2R18034   1.915   2.845   6.804  1.0110  0.1818  0.3870
  151DOPC   H2S18035   2.035   2.967   6.823  0.3096 -2.0174  0.0277
  151DOPC    C318036   2.116   2.665   7.163  0.0351 -0.0503 -0.1084
  151DOPC    HX18037   2.078   2.578   7.106  0.3188 -1.8373  2.2928
  151DOPC    HY18038   2.128   2.616   7.262 -1.3587  0.1349  0.1877
  151DOPC   O3118039   2.237   2.700   7.097 -0.2788  0.0132  0.2693
  151DOPC   C3118040   2.320   2.774   7.167 -0.5644  0.4120 -0.0680
  151DOPC   O3218041   2.316   2.791   7.285 -0.1723  0.1177 -0.5994
  151DOPC   C3218042   2.418   2.844   7.069 -0.2210 -0.0858  0.0091
  151DOPC   H2X18043   2.521   2.836   7.111  0.2307  1.4447 -0.7224
  151DOPC   H2Y18044   2.408   2.804   6.966 -1.1653  1.0501 -0.3687
  151DOPC   C2318045   1.832   3.041   6.791  0.4242 -0.4261  0.1782
  151DOPC   H3R18046   1.855   3.146   6.819  1.8007 -0.1499 -1.8186
  151DOPC   H3S18047   1.727   3.008   6.810  0.1153  1.3932  2.0002
  151DOPC   C2418048   1.831   3.043   6.638  0.0246 -0.8321 -0.1242
  151DOPC   H4R18049   1.928   3.052   6.585 -1.0299 -1.4450 -2.2557
  151DOPC   H4S18050   1.775   3.132   6.603  1.7957  0.1664 -0.5432
  151DOPC   C2518051   1.751   2.926   6.576  0.6202  0.5068 -0.1364
  151DOPC   H5R18052   1.655   2.919   6.630  1.0158 -1.4944  0.3825
  151DOPC   H5S18053   1.812   2.836   6.600  1.5312  1.2622  0.4879
  151DOPC   C2618054   1.742   2.930   6.422 -0.2400  0.1167  0.2082
  151DOPC   H6R18055   1.664   2.857   6.391  0.0769 -0.5799  1.0383
  151DOPC   H6S18056   1.840   2.901   6.380  0.2496  0.2126  1.2682
  151DOPC   C2718057   1.695   3.063   6.359  0.4664  0.1494 -0.9249
  151DOPC   H7R18058   1.759   3.151   6.381  0.7686  0.0619 -1.4342
  151DOPC   H7S18059   1.598   3.089   6.407 -0.6601 -3.5531 -0.8385
  151DOPC   C2818060   1.667   3.059   6.204  0.4749  0.2151 -0.0349
  151DOPC   H8R18061   1.600   3.142   6.176  0.1706 -0.4819 -1.4304
  151DOPC   H8S18062   1.613   2.964   6.184  0.8116  0.1396 -0.6216
  151DOPC   C2918063   1.795   3.070   6.127  0.3466 -0.4472 -0.6563
  151DOPC   H9R18064   1.888   3.073   6.186 -0.2619  0.2214  0.3015
  151DOPC  C21018065   1.806   3.096   5.997  0.1913  0.7204 -0.3099
  151DOPC  H10R18066   1.906   3.099   5.950  0.1391  0.3480 -0.4450
  151DOPC  C21118067   1.687   3.100   5.909 -0.3372 -0.5796 -0.2567
  151DOPC  H11R18068   1.596   3.120   5.970 -0.6790 -1.9900 -0.2632
  151DOPC  H11S18069   1.670   3.003   5.857  1.2338 -1.7124  1.2024
  151DOPC  C21218070   1.705   3.202   5.799  0.2245  0.2953  0.1303
  151DOPC  H12R18071   1.722   3.302   5.843  1.3978  1.1631 -2.1153
  151DOPC  H12S18072   1.609   3.221   5.747  0.1394  0.1505  0.2337
  151DOPC  C21318073   1.818   3.171   5.696 -0.0062  0.3704 -0.0354
  151DOPC  H13R18074   1.808   3.070   5.652  2.5404  0.6098 -1.3590
  151DOPC  H13S18075   1.915   3.168   5.750 -0.6667 -1.3623  1.1233
  151DOPC  C21418076   1.829   3.283   5.594 -0.1462 -0.0474  0.1920
  151DOPC  H14R18077   1.922   3.277   5.533 -0.2989  1.1220 -0.1874
  151DOPC  H14S18078   1.825   3.371   5.662 -1.7615 -1.0921  1.5390
  151DOPC  C21518079   1.712   3.306   5.502  0.2703 -1.1103 -0.3043
  151DOPC  H15R18080   1.615   3.324   5.555  0.3295  0.6724 -0.7311
  151DOPC  H15S18081   1.703   3.225   5.427 -1.2053  0.4776 -1.9233
  151DOPC  C21618082   1.737   3.415   5.396 -0.5305  0.5014  0.1314
  151DOPC  H16R18083   1.778   3.502   5.452 -1.3418  0.2567  1.1318
  151DOPC  H16S18084   1.639   3.451   5.357 -0.3538  1.4861  0.5500
  151DOPC  C21718085   1.828   3.374   5.273  0.0224  0.1269 -0.4667
  151DOPC  H17R18086   1.766   3.294   5.226 -0.4240 -0.5878  1.2424
  151DOPC  H17S18087   1.930   3.339   5.301  0.4528  0.0353 -2.0552
  151DOPC  C21818088   1.826   3.492   5.173 -0.4869  0.2864 -0.6333
  151DOPC  H18R18089   1.874   3.581   5.219 -2.7949  0.3657  1.9127
  151DOPC  H18S18090   1.723   3.518   5.141 -0.8146 -0.3426 -0.1189
  151DOPC  H18T18091   1.883   3.452   5.087 -0.3202  1.0754 -0.8931
  151DOPC   C3318092   2.391   2.995   7.060  0.6039 -0.1877  0.0723
  151DOPC   H3X18093   2.397   3.039   7.162 -0.5419  2.6425 -0.9784
  151DOPC   H3Y18094   2.292   3.012   7.013  1.9895  1.0822 -2.6053
  151DOPC   C3418095   2.488   3.068   6.972 -0.1581 -0.5224  0.2353
  151DOPC   H4X18096   2.589   3.021   6.965 -0.3732 -0.8489 -0.8605
  151DOPC   H4Y18097   2.486   3.177   6.990  0.7136  0.1019 -2.8398
  151DOPC   C3518098   2.439   3.061   6.828 -0.6067  0.7313 -0.3291
  151DOPC   H5X18099   2.351   3.127   6.815 -0.4417  1.0155 -0.0272
  151DOPC   H5Y18100   2.398   2.960   6.808  0.8582 -0.5645  2.4657
  151DOPC   C3618101   2.551   3.087   6.715 -0.3507 -0.0435 -1.0464
  151DOPC   H6X18102   2.589   3.191   6.714  1.0246 -0.4945 -3.4079
  151DOPC   H6Y18103   2.643   3.027   6.732  1.7680  3.0916 -0.6260
  151DOPC   C3718104   2.501   3.060   6.572  0.5573 -0.2267  0.4704
  151DOPC   H7X18105   2.487   2.950   6.562 -1.9374  0.1425 -0.5566
  151DOPC   H7Y18106   2.402   3.106   6.552  1.4400  1.7125  0.3176
  151DOPC   C3818107   2.593   3.108   6.460 -0.4906  0.1804 -0.7028
  151DOPC   H8X18108   2.550   3.056   6.372 -0.0591 -1.9001  0.2519
  151DOPC   H8Y18109   2.693   3.064   6.478 -0.0589  0.8529 -1.3648
  151DOPC   C3918110   2.599   3.262   6.437  0.1298 -0.2078 -0.7690
  151DOPC   H9X18111   2.509   3.319   6.465  0.6371 -0.0600  0.6342
  151DOPC  C31018112   2.699   3.340   6.390  0.2120 -0.1215  0.1237
  151DOPC  H10X18113   2.673   3.446   6.378  0.0525 -0.2031 -0.2580
  151DOPC  C31118114   2.830   3.286   6.343  0.2014 -0.8314 -0.0377
  151DOPC  H11X18115   2.858   3.187   6.387 -2.1103 -0.1793  3.2988
  151DOPC  H11Y18116   2.912   3.359   6.358 -1.1593  1.2851 -2.2723
  151DOPC  C31218117   2.826   3.263   6.185 -0.5025 -0.5605 -0.0449
  151DOPC  H12X18118   2.743   3.192   6.165 -1.7473  0.8740 -0.0657
  151DOPC  H12Y18119   2.921   3.216   6.151  0.4896  0.6591  0.9487
  151DOPC  C31318120   2.788   3.386   6.089 -0.0227 -1.3584 -0.4547
  151DOPC  H13X18121   2.680   3.406   6.110  0.2394 -0.0770 -0.2512
  151DOPC  H13Y18122   2.841   3.480   6.113 -1.3206 -0.6931 -0.0553
  151DOPC  C31418123   2.818   3.356   5.939  0.0357  1.0348 -0.1609
  151DOPC  H14X18124   2.926   3.382   5.938  0.3480  0.0950  2.3580
  151DOPC  H14Y18125   2.812   3.248   5.916 -1.8267  0.9627  0.5077
  151DOPC  C31518126   2.743   3.437   5.833  0.3718  0.2393 -0.1577
  151DOPC  H15X18127   2.784   3.540   5.842 -1.4328  0.8813  1.7609
  151DOPC  H15Y18128   2.637   3.442   5.867 -0.1501  0.8943 -1.7784
  151DOPC  C31618129   2.766   3.377   5.698  0.6698 -0.1299  0.1251
  151DOPC  H16X18130   2.714   3.279   5.687 -1.5314  1.1498 -1.6281
  151DOPC  H16Y18131   2.710   3.442   5.628 -0.1380 -0.1435  0.7428
  151DOPC  C31718132   2.913   3.383   5.657  0.1071  0.0392  0.0565
  151DOPC  H17X18133   2.944   3.488   5.637 -1.0135  0.0698 -1.7427
  151DOPC  H17Y18134   2.970   3.336   5.741  1.4215 -3.0515 -2.3697
  151DOPC  C31818135   2.937   3.300   5.532  0.2181 -0.0253  0.1941
  151DOPC  H18X18136   2.878   3.334   5.444 -0.9804  0.2373  1.0714
  151DOPC  H18Y18137   3.045   3.295   5.506 -0.1795 -1.1932 -1.4048
  151DOPC  H18Z18138   2.909   3.193   5.545 -4.3577  1.0170  0.7176
  152DOPC     N18139   3.792   3.155   7.525  0.0744 -0.2163 -0.2509
  152DOPC   C1218140   3.928   3.129   7.464 -0.6406  0.4784 -0.1333
  152DOPC  H12A18141   3.998   3.209   7.488  1.2518 -0.4079 -2.3220
  152DOPC  H12B18142   3.927   3.114   7.357  0.7155 -0.3792 -0.0533
  152DOPC   C1318143   3.704   3.037   7.510 -0.3143 -0.0481  0.1127
  152DOPC  H13A18144   3.608   3.042   7.560 -1.5156  2.0783 -2.1910
  152DOPC  H13B18145   3.689   3.007   7.408  0.1961 -1.7548  0.5177
  152DOPC  H13C18146   3.764   2.951   7.534  1.0703  0.1670 -2.2416
  152DOPC   C1418147   3.724   3.268   7.455  0.1542 -0.0794  0.4123
  152DOPC  H14A18148   3.778   3.360   7.468  2.6177 -1.0792 -1.8025
  152DOPC  H14B18149   3.693   3.240   7.356  0.3308 -1.1236  0.6390
  152DOPC  H14C18150   3.630   3.298   7.498 -0.9747 -2.0791 -0.4982
  152DOPC   C1518151   3.802   3.196   7.667 -0.2696  0.2107  0.0341
  152DOPC  H15A18152   3.833   3.120   7.738 -0.2693 -0.5945 -0.8105
  152DOPC  H15B18153   3.709   3.243   7.696 -0.0202  0.1197  1.0290
  152DOPC  H15C18154   3.878   3.272   7.681  0.2990 -0.3498  0.0688
  152DOPC   C1118155   4.003   3.000   7.516 -0.2741 -0.1830  0.5711
  152DOPC  H11A18156   4.110   3.009   7.490 -0.1425 -0.6558  0.9350
  152DOPC  H11B18157   3.998   2.999   7.627  0.2598 -0.0510  0.5970
  152DOPC     P18158   3.978   2.818   7.324  0.0827 -0.0346  0.2079
  152DOPC   O1318159   3.857   2.745   7.276 -0.5739 -0.8246  0.1599
  152DOPC   O1418160   4.102   2.741   7.334 -0.5979 -0.2008  0.6875
  152DOPC   O1218161   3.946   2.873   7.468 -0.5473 -0.1320 -0.7443
  152DOPC   O1118162   4.009   2.943   7.238  0.0687 -0.1295 -0.2449
  152DOPC    C118163   3.914   3.002   7.146 -0.1595 -0.0293  0.0655
  152DOPC    HA18164   3.932   3.112   7.144  0.2712 -0.0970  0.0964
  152DOPC    HB18165   3.814   2.987   7.192  0.0424 -3.4619 -0.3791
  152DOPC    C218166   3.915   2.943   7.002  1.1699  0.5032  0.8108
  152DOPC    HS18167   3.892   2.837   7.028  3.4615 -0.0874  0.6505
  152DOPC   O2118168   4.040   2.976   6.945  0.1222  0.2088  0.0032
  152DOPC   C2118169   4.083   2.878   6.866 -0.4083 -0.7194  0.7261
  152DOPC   O2218170   4.050   2.761   6.868 -0.6232 -0.4067  0.2830
  152DOPC   C2218171   4.195   2.944   6.781  0.3631  0.7217 -0.0957
  152DOPC   H2R18172   4.238   3.026   6.843 -0.2749  0.8677  0.1551
  152DOPC   H2S18173   4.153   2.997   6.693 -2.1977  0.0653  0.6502
  152DOPC    C318174   3.797   2.997   6.922 -0.1548 -0.3957 -0.0321
  152DOPC    HX18175   3.828   3.098   6.888 -0.5822 -0.3712 -0.3496
  152DOPC    HY18176   3.702   3.020   6.976 -0.1554  2.5554 -1.0705
  152DOPC   O3118177   3.787   2.926   6.801  0.9805  0.5014  0.2460
  152DOPC   C3118178   3.696   2.830   6.811 -0.1422 -0.2277 -0.4372
  152DOPC   O3218179   3.629   2.798   6.907  0.2812  0.8548  0.0023
  152DOPC   C3218180   3.688   2.753   6.674 -0.1337  0.3722  0.4837
  152DOPC   H2X18181   3.581   2.732   6.652  0.2676 -0.6625 -0.5938
  152DOPC   H2Y18182   3.722   2.820   6.592 -0.4738  0.5994  0.5259
  152DOPC   C2318183   4.296   2.831   6.745  0.5688 -0.3271 -0.8490
  152DOPC   H3R18184   4.314   2.768   6.835 -1.1519 -1.6670 -1.3789
  152DOPC   H3S18185   4.393   2.877   6.719  1.0847 -1.6474 -1.3666
  152DOPC   C2418186   4.266   2.729   6.633  0.3926  0.2874 -0.0438
  152DOPC   H4R18187   4.184   2.664   6.672  1.4040 -1.5119 -0.7980
  152DOPC   H4S18188   4.361   2.678   6.606 -0.4660 -0.8019 -1.0900
  152DOPC   C2518189   4.219   2.797   6.503  0.0034  0.1762 -0.1280
  152DOPC   H5R18190   4.260   2.898   6.477 -1.4055  0.4526 -1.4847
  152DOPC   H5S18191   4.113   2.822   6.522 -1.1811 -2.6215 -2.3970
  152DOPC   C2618192   4.233   2.722   6.371 -0.4845 -0.0678  0.3993
  152DOPC   H6R18193   4.312   2.644   6.373  0.5566  0.9209 -0.7043
  152DOPC   H6S18194   4.256   2.782   6.281  0.3113 -0.3203  0.4286
  152DOPC   C2718195   4.104   2.646   6.341 -0.4377  0.3630 -0.1367
  152DOPC   H7R18196   4.019   2.714   6.319 -0.4815  0.7443  1.1557
  152DOPC   H7S18197   4.084   2.575   6.423 -1.8518  2.2094  1.2066
  152DOPC   C2818198   4.119   2.561   6.214  1.0774 -0.1957 -0.2200
  152DOPC   H8R18199   4.207   2.495   6.231  1.1097  0.4257  2.4311
  152DOPC   H8S18200   4.149   2.627   6.130  2.5526 -0.0664  0.3862
  152DOPC   C2918201   4.002   2.470   6.170  0.3147 -0.3863  0.1812
  152DOPC   H9R18202   3.946   2.430   6.256  1.8503 -0.2791  1.2813
  152DOPC  C21018203   3.951   2.456   6.041  0.1238 -0.7929 -0.2221
  152DOPC  H10R18204   3.863   2.391   6.036  0.0779 -0.9808  2.1469
  152DOPC  C21118205   4.014   2.501   5.913  0.2320 -1.1344 -0.4355
  152DOPC  H11R18206   4.119   2.532   5.930  0.7852 -2.0182 -2.0586
  152DOPC  H11S18207   3.955   2.589   5.880 -0.8446 -2.3123 -1.7753
  152DOPC  C21218208   4.012   2.396   5.804  0.0560  0.3248 -0.3016
  152DOPC  H12R18209   3.921   2.332   5.797  1.7349 -2.0341 -2.2065
  152DOPC  H12S18210   4.094   2.322   5.819  0.2344  0.6423  0.3407
  152DOPC  C21318211   4.046   2.464   5.671  0.1059  0.4480  0.6818
  152DOPC  H13R18212   4.145   2.513   5.685  0.7060 -0.9342  1.4357
  152DOPC  H13S18213   3.967   2.538   5.644  0.2948 -0.1298 -1.6687
  152DOPC  C21418214   4.053   2.368   5.548  0.4071  0.1802 -0.4667
  152DOPC  H14R18215   4.148   2.311   5.545 -0.5295 -1.4032 -0.7043
  152DOPC  H14S18216   4.056   2.441   5.464 -2.1122 -0.4414 -1.1594
  152DOPC  C21518217   3.919   2.285   5.535 -0.6255  0.2890 -1.3351
  152DOPC  H15R18218   3.834   2.354   5.556  0.1395  0.7910  0.2734
  152DOPC  H15S18219   3.904   2.218   5.622 -3.8950  3.2480  0.6908
  152DOPC  C21618220   3.891   2.222   5.404 -0.1700 -0.1522 -0.1028
  152DOPC  H16R18221   3.967   2.144   5.382  0.8146  1.2698 -2.0317
  152DOPC  H16S18222   3.921   2.297   5.328  0.5429 -0.6054 -0.2852
  152DOPC  C21718223   3.742   2.178   5.373 -0.2500 -0.1364 -0.2122
  152DOPC  H17R18224   3.741   2.142   5.268 -0.5167  0.5720 -0.4613
  152DOPC  H17S18225   3.671   2.263   5.384  1.1555  1.0965 -0.4830
  152DOPC  C21818226   3.699   2.057   5.461  0.3755 -0.2694 -0.1569
  152DOPC  H18R18227   3.591   2.033   5.453  1.0114 -2.7372 -2.8916
  152DOPC  H18S18228   3.709   2.081   5.569  0.0505  0.4382 -0.2777
  152DOPC  H18T18229   3.768   1.972   5.443  0.9453  0.3369 -0.9186
  152DOPC   C3318230   3.778   2.625   6.657 -0.4605 -0.0641 -0.6420
  152DOPC   H3X18231   3.753   2.559   6.743 -1.4927  0.0575 -0.8320
  152DOPC   H3Y18232   3.884   2.642   6.686 -0.5952 -1.6369  0.9702
  152DOPC   C3418233   3.783   2.561   6.520  0.4459  0.0707  0.0082
  152DOPC   H4X18234   3.859   2.481   6.510 -0.4683 -1.2806  2.8376
  152DOPC   H4Y18235   3.806   2.642   6.448  1.3632  0.4165  0.6723
  152DOPC   C3518236   3.651   2.493   6.478 -0.5628  0.3893  0.3323
  152DOPC   H5X18237   3.571   2.569   6.494 -2.4882 -1.4103 -0.2098
  152DOPC   H5Y18238   3.644   2.413   6.555  3.3696 -1.1076 -0.6364
  152DOPC   C3618239   3.652   2.452   6.332 -0.2917 -0.3974  0.0796
  152DOPC   H6X18240   3.682   2.536   6.266  1.3743 -0.0489  1.2374
  152DOPC   H6Y18241   3.737   2.383   6.310  2.5163  1.8336  2.9513
  152DOPC   C3718242   3.523   2.388   6.290 -0.3672 -0.0423 -0.1292
  152DOPC   H7X18243   3.518   2.293   6.347 -1.7613  0.9138  1.4095
  152DOPC   H7Y18244   3.434   2.450   6.313 -0.1106  0.4068 -0.3106
  152DOPC   C3818245   3.540   2.348   6.142  0.4053 -0.6148  0.5276
  152DOPC   H8X18246   3.464   2.275   6.106  1.0681 -1.4447  0.7835
  152DOPC   H8Y18247   3.636   2.292   6.140 -0.1298 -1.7345  2.8852
  152DOPC   C3918248   3.534   2.469   6.049 -0.2591  0.3128  0.1348
  152DOPC   H9X18249   3.509   2.567   6.094  0.8500  1.9891 -2.6157
  152DOPC  C31018250   3.557   2.465   5.918  0.4248  0.4157  0.0147
  152DOPC  H10X18251   3.552   2.556   5.857  0.1678 -1.2516 -2.6002
  152DOPC  C31118252   3.592   2.349   5.833 -0.2398  0.9099 -0.1244
  152DOPC  H11X18253   3.607   2.256   5.893 -0.0360  0.5247 -0.7629
  152DOPC  H11Y18254   3.695   2.364   5.794 -0.7239  0.8646 -1.4846
  152DOPC  C31218255   3.501   2.316   5.715  0.2758 -0.5721 -0.2534
  152DOPC  H12X18256   3.396   2.297   5.746  0.4279 -0.0277  0.6222
  152DOPC  H12Y18257   3.541   2.221   5.674  1.2564  0.4535 -1.7616
  152DOPC  C31318258   3.509   2.429   5.606 -0.0460  0.0644  0.2590
  152DOPC  H13X18259   3.478   2.521   5.660 -1.3210 -1.0370  1.4677
  152DOPC  H13Y18260   3.614   2.439   5.570  0.0911  0.6142  0.7802
  152DOPC  C31418261   3.415   2.397   5.490 -0.4035 -0.0225 -0.4333
  152DOPC  H14X18262   3.419   2.292   5.455 -0.7202 -0.4920  0.8780
  152DOPC  H14Y18263   3.313   2.411   5.531  0.9870  1.3869  2.9892
  152DOPC  C31518264   3.439   2.494   5.384 -0.3158  0.0177 -0.0975
  152DOPC  H15X18265   3.426   2.446   5.284  0.7393 -1.1648  0.3032
  152DOPC  H15Y18266   3.546   2.523   5.388 -0.2076 -0.3499 -0.2950
  152DOPC  C31618267   3.353   2.621   5.388  0.1164 -0.5965 -0.3965
  152DOPC  H16X18268   3.247   2.591   5.398  0.3979 -1.4918  0.0511
  152DOPC  H16Y18269   3.380   2.683   5.476 -1.0240  1.9256 -1.7177
  152DOPC  C31718270   3.379   2.719   5.270  0.7676 -0.1914  0.5141
  152DOPC  H17X18271   3.488   2.736   5.258  0.6949  0.6608  0.9860
  152DOPC  H17Y18272   3.336   2.681   5.174  1.8591  0.9255 -0.4513
  152DOPC  C31818273   3.315   2.858   5.309 -0.0127  0.6050  0.1899
  152DOPC  H18X18274   3.365   2.902   5.398  1.1071  1.1834 -0.6914
  152DOPC  H18Y18275   3.333   2.931   5.227  0.3756  0.7731  0.4240
  152DOPC  H18Z18276   3.207   2.854   5.334 -0.1179  0.2312 -0.2995
  153DOPC     N18277   3.210   6.890   7.107  0.0390 -0.1503  0.1628
  153DOPC   C1218278   3.263   7.000   7.019 -0.1036  0.3032  0.0377
  153DOPC  H12A18279   3.187   7.075   7.000 -0.3705 -0.2969 -1.4116
  153DOPC  H12B18280   3.285   6.964   6.919 -1.2459  1.4953 -0.6923
  153DOPC   C1318281   3.182   6.929   7.246  0.5514 -0.0382  0.4456
  153DOPC  H13A18282   3.262   6.980   7.298  0.4141  0.9073 -0.2536
  153DOPC  H13B18283   3.105   7.002   7.264  0.1372 -0.7903  1.9847
  153DOPC  H13C18284   3.158   6.840   7.304 -0.6737  0.8906  1.4190
  153DOPC   C1418285   3.315   6.783   7.127  0.0969  0.0977  0.5819
  153DOPC  H14A18286   3.340   6.726   7.039  1.4398  2.8981 -0.9704
  153DOPC  H14B18287   3.406   6.834   7.157  0.7601 -0.6026 -0.1708
  153DOPC  H14C18288   3.285   6.711   7.201 -0.8815 -2.0439 -1.7413
  153DOPC   C1518289   3.092   6.822   7.043  0.0751  0.2319  0.4485
  153DOPC  H15A18290   3.127   6.769   6.955  0.2409  1.2267 -0.0967
  153DOPC  H15B18291   3.005   6.880   7.017  1.1582  2.1513  0.9507
  153DOPC  H15C18292   3.055   6.752   7.116 -1.1069  0.2184 -0.1342
  153DOPC   C1118293   3.385   7.089   7.063  0.1791  0.5428  0.0521
  153DOPC  H11A18294   3.404   7.147   6.970  1.7438 -0.7622 -0.4857
  153DOPC  H11B18295   3.346   7.152   7.147 -1.6221  0.2882 -0.5404
  153DOPC     P18296   3.626   6.966   7.026 -0.0325 -0.0123  0.3411
  153DOPC   O1318297   3.645   6.819   7.029 -0.0510 -0.0791 -0.1015
  153DOPC   O1418298   3.742   7.043   7.085 -0.4714  0.1838  0.0550
  153DOPC   O1218299   3.495   7.015   7.108 -0.1700 -0.2000 -0.2178
  153DOPC   O1118300   3.589   7.003   6.873 -0.4484  0.8253 -0.0478
  153DOPC    C118301   3.655   6.919   6.776 -0.4977 -0.1094 -0.3373
  153DOPC    HA18302   3.627   6.812   6.781  1.3691 -0.7635 -2.2684
  153DOPC    HB18303   3.763   6.924   6.801 -0.5412  3.4882 -0.3595
  153DOPC    C218304   3.627   6.965   6.633  0.0542 -0.6294 -0.0188
  153DOPC    HS18305   3.518   6.965   6.611 -0.3091 -0.3182  1.6867
  153DOPC   O2118306   3.693   6.870   6.547 -0.0109  0.7947  0.4618
  153DOPC   C2118307   3.624   6.755   6.518  0.0463 -0.2062 -0.2535
  153DOPC   O2218308   3.510   6.725   6.560 -0.5215  0.6983  0.0538
  153DOPC   C2218309   3.724   6.679   6.428  0.4167  0.7731  0.0565
  153DOPC   H2R18310   3.803   6.636   6.493 -0.8136 -0.5932  0.7101
  153DOPC   H2S18311   3.767   6.745   6.350 -0.6492  0.8199 -0.5100
  153DOPC    C318312   3.694   7.105   6.616  0.8873 -0.1140 -0.2382
  153DOPC    HX18313   3.799   7.097   6.653  0.2258  0.4236  1.9204
  153DOPC    HY18314   3.649   7.179   6.685  1.6906  1.5317 -1.4049
  153DOPC   O3118315   3.677   7.155   6.480 -0.3260  0.0612  0.1781
  153DOPC   C3118316   3.760   7.253   6.445 -0.3858  0.9123 -0.3511
  153DOPC   O3218317   3.839   7.307   6.523 -0.4201 -0.2612  0.6871
  153DOPC   C3218318   3.736   7.274   6.301  0.4166 -0.7704  0.2075
  153DOPC   H2X18319   3.774   7.181   6.254  1.9606  0.5613 -1.3039
  153DOPC   H2Y18320   3.626   7.290   6.297  0.4445 -0.3766  0.8237
  153DOPC   C2318321   3.666   6.552   6.358 -0.3435  1.0423  0.5950
  153DOPC   H3R18322   3.576   6.581   6.300 -0.8866  0.8143  1.3019
  153DOPC   H3S18323   3.626   6.476   6.429  0.9974 -1.7222 -1.4107
  153DOPC   C2418324   3.778   6.485   6.278  0.1825  0.1757 -0.6365
  153DOPC   H4R18325   3.739   6.387   6.244  0.1759  0.5099 -1.6223
  153DOPC   H4S18326   3.860   6.450   6.345 -1.1606 -1.0872  0.3955
  153DOPC   C2518327   3.840   6.575   6.171  0.3929  0.0500  0.3809
  153DOPC   H5R18328   3.913   6.514   6.114  0.2500  1.4632 -1.3919
  153DOPC   H5S18329   3.889   6.670   6.202  2.3413 -0.5202 -0.7988
  153DOPC   C2618330   3.728   6.628   6.075 -0.3731 -0.1643  0.4122
  153DOPC   H6R18331   3.678   6.694   6.149  2.6805  0.0342  2.5177
  153DOPC   H6S18332   3.676   6.537   6.039  0.4864 -0.3803 -0.3128
  153DOPC   C2718333   3.776   6.709   5.953  0.7755 -0.6040  0.0871
  153DOPC   H7R18334   3.873   6.673   5.914  0.0979 -0.4564 -1.8241
  153DOPC   H7S18335   3.793   6.816   5.976 -2.0417  0.0901 -0.6895
  153DOPC   C2818336   3.664   6.706   5.845 -0.0045  0.5014  0.1059
  153DOPC   H8R18337   3.574   6.714   5.911  0.9479  1.6347  1.3231
  153DOPC   H8S18338   3.672   6.604   5.802 -2.1048 -0.3022  1.4239
  153DOPC   C2918339   3.664   6.817   5.742 -0.1787 -0.7725  0.3543
  153DOPC   H9R18340   3.589   6.894   5.762 -0.3026 -0.6064 -0.6747
  153DOPC  C21018341   3.767   6.844   5.656 -0.3857 -0.5348 -0.2882
  153DOPC  H10R18342   3.752   6.929   5.589 -0.6965 -0.3749 -0.0245
  153DOPC  C21118343   3.880   6.753   5.603  0.4337  0.1833  0.6129
  153DOPC  H11R18344   3.888   6.668   5.673 -2.3106 -2.0318 -1.4922
  153DOPC  H11S18345   3.977   6.802   5.579  0.7405 -1.2367 -1.2687
  153DOPC  C21218346   3.840   6.682   5.472 -0.6667 -0.0196 -0.6657
  153DOPC  H12R18347   3.733   6.654   5.478 -0.0798 -2.5368 -0.5142
  153DOPC  H12S18348   3.899   6.588   5.461  0.9263  0.8582 -0.0150
  153DOPC  C21318349   3.848   6.767   5.343 -0.1865 -0.0780  0.3497
  153DOPC  H13R18350   3.950   6.808   5.328 -0.1474 -0.2838  0.0613
  153DOPC  H13S18351   3.779   6.851   5.364  0.8645  1.0189 -0.4453
  153DOPC  C21418352   3.813   6.709   5.210  0.1761  0.0224  0.6117
  153DOPC  H14R18353   3.821   6.793   5.138  2.2474  0.5405  1.3704
  153DOPC  H14S18354   3.713   6.663   5.204  1.9585 -4.2302 -0.1670
  153DOPC  C21518355   3.922   6.608   5.158  0.3155 -0.1668  0.4429
  153DOPC  H15R18356   3.888   6.577   5.057  1.9085 -3.0175  0.6604
  153DOPC  H15S18357   3.927   6.512   5.215  1.9719  0.3085  1.1603
  153DOPC  C21618358   4.067   6.665   5.145  0.7211  0.3053  1.1468
  153DOPC  H16R18359   4.115   6.694   5.240  0.0705 -2.5579  2.4452
  153DOPC  H16S18360   4.053   6.761   5.090  0.2124 -0.7361 -0.6538
  153DOPC  C21718361   4.168   6.577   5.064  0.4547 -0.3134 -0.2771
  153DOPC  H17R18362   4.256   6.638   5.036  0.4466 -0.6033 -0.9556
  153DOPC  H17S18363   4.126   6.540   4.968  2.4540 -2.0860 -0.5296
  153DOPC  C21818364   4.203   6.452   5.149 -0.1398  0.5500  0.4087
  153DOPC  H18R18365   4.277   6.384   5.102  0.8571 -1.1173  3.9877
  153DOPC  H18S18366   4.107   6.397   5.154 -0.9753  2.0075  1.0696
  153DOPC  H18T18367   4.241   6.469   5.253  1.2615 -0.8196  0.1627
  153DOPC   C3318368   3.808   7.409   6.245  0.4147  0.4700 -0.3149
  153DOPC   H3X18369   3.914   7.391   6.276  0.3402  1.2917  0.5039
  153DOPC   H3Y18370   3.769   7.499   6.298  2.0855  1.4007 -0.5724
  153DOPC   C3418371   3.790   7.425   6.094 -0.1771  0.7165  0.4507
  153DOPC   H4X18372   3.683   7.409   6.067  0.2749 -0.3560 -0.8575
  153DOPC   H4Y18373   3.842   7.338   6.047  1.1774  1.4940  0.4722
  153DOPC   C3518374   3.864   7.544   6.040 -0.3978 -0.4594 -0.0563
  153DOPC   H5X18375   3.923   7.583   6.126  2.4595  0.7834 -2.4025
  153DOPC   H5Y18376   3.803   7.630   6.004  0.1309  0.1021  0.3567
  153DOPC   C3618377   3.966   7.523   5.924 -0.6930 -0.0049  0.1987
  153DOPC   H6X18378   4.058   7.464   5.948 -0.1900 -0.7598 -3.1882
  153DOPC   H6Y18379   3.916   7.472   5.839 -0.6787 -0.3282  0.3808
  153DOPC   C3718380   4.023   7.647   5.866 -0.6329  0.5087 -0.0964
  153DOPC   H7X18381   3.943   7.707   5.817 -0.4221 -0.6570 -1.9617
  153DOPC   H7Y18382   4.070   7.708   5.947 -0.6561 -1.0780  1.1552
  153DOPC   C3818383   4.123   7.630   5.751 -0.9981  0.4219 -0.5877
  153DOPC   H8X18384   4.147   7.728   5.703  2.5592  0.0795  0.2257
  153DOPC   H8Y18385   4.070   7.590   5.662 -1.0117  0.8097 -0.7595
  153DOPC   C3918386   4.246   7.553   5.778 -0.2531 -0.4957 -0.6092
  153DOPC   H9X18387   4.218   7.456   5.821  0.8139  0.0414  1.4439
  153DOPC  C31018388   4.372   7.603   5.784 -0.4027  0.0017 -0.1354
  153DOPC  H10X18389   4.446   7.526   5.812 -0.4895 -0.2996 -0.7082
  153DOPC  C31118390   4.418   7.737   5.741 -0.5059 -0.0175 -0.9768
  153DOPC  H11X18391   4.361   7.778   5.655 -3.9659 -1.3525  0.5171
  153DOPC  H11Y18392   4.523   7.730   5.705 -0.8948  1.0396 -2.3665
  153DOPC  C31218393   4.416   7.831   5.866  0.4277  0.6991 -0.7486
  153DOPC  H12X18394   4.492   7.784   5.932  0.0039  1.7330  0.5127
  153DOPC  H12Y18395   4.317   7.833   5.917  1.1139  1.7744  0.5904
  153DOPC  C31318396   4.463   7.974   5.844 -0.0397 -0.0676 -0.3708
  153DOPC  H13X18397   4.407   7.995   5.750  0.0504  0.1428 -0.3793
  153DOPC  H13Y18398   4.427   8.032   5.932 -2.1805 -1.3073 -0.3716
  153DOPC  C31418399   4.613   7.983   5.819  0.3357 -0.3915 -0.3274
  153DOPC  H14X18400   4.668   7.940   5.905  1.3449  0.1261 -0.6919
  153DOPC  H14Y18401   4.636   7.939   5.719 -0.3821 -1.0031 -0.2339
  153DOPC  C31518402   4.670   8.122   5.814 -0.0700 -0.3552 -0.8262
  153DOPC  H15X18403   4.667   8.177   5.911 -0.8370 -1.1900 -0.3690
  153DOPC  H15Y18404   4.617   8.186   5.740 -1.1258 -1.7667 -1.3303
  153DOPC  C31618405   4.816   8.100   5.773 -0.4373  0.9143 -0.6221
  153DOPC  H16X18406   4.866   8.025   5.838 -1.7974  0.5572  0.0354
  153DOPC  H16Y18407   4.824   8.060   5.670 -1.1120 -1.9840  0.3719
  153DOPC  C31718408   4.896   8.233   5.778  0.5798 -0.0759  0.6803
  153DOPC  H17X18409   4.829   8.309   5.732 -0.6815 -1.7040 -0.3117
  153DOPC  H17Y18410   4.903   8.247   5.888 -3.2026  0.0954  1.0411
  153DOPC  C31818411   5.035   8.244   5.715 -0.2658 -0.2776  0.3228
  153DOPC  H18X18412   5.099   8.159   5.747  0.3234  0.4563  1.1305
  153DOPC  H18Y18413   5.036   8.226   5.605 -1.2972  3.7970 -0.5057
  153DOPC  H18Z18414   5.095   8.334   5.741  1.8709 -1.4624 -0.2503
  154DOPC     N18415   7.156   5.023   7.421 -0.3910  0.1519  0.3868
  154DOPC   C1218416   7.152   4.982   7.273  0.7720  0.1750 -0.5551
  154DOPC  H12A18417   7.197   4.885   7.260 -0.6140 -0.6425  0.4904
  154DOPC  H12B18418   7.222   5.046   7.221  0.9557 -0.7449 -1.4690
  154DOPC   C1318419   7.074   4.937   7.504  0.4137 -0.0554  0.2547
  154DOPC  H13A18420   7.095   4.832   7.490 -1.3322 -0.1773 -1.8994
  154DOPC  H13B18421   7.072   4.967   7.608  1.1918  2.2807 -0.3488
  154DOPC  H13C18422   6.970   4.952   7.479  0.0503  0.7705  2.0879
  154DOPC   C1418423   7.136   5.171   7.436  0.3804  0.8130  0.3154
  154DOPC  H14A18424   7.214   5.242   7.409  1.3173 -0.5166 -0.6008
  154DOPC  H14B18425   7.038   5.207   7.408 -0.1639  2.0134  3.3798
  154DOPC  H14C18426   7.130   5.188   7.543 -1.5593  2.6512 -0.0209
  154DOPC   C1518427   7.300   4.997   7.458 -0.5400 -0.2267 -0.5759
  154DOPC  H15A18428   7.334   4.898   7.433  0.9601  0.7916 -2.9266
  154DOPC  H15B18429   7.309   5.014   7.564  0.6906  2.7851 -1.0721
  154DOPC  H15C18430   7.369   5.065   7.410  0.1297 -0.4220  0.0902
  154DOPC   C1118431   7.015   5.003   7.202  0.2272  0.5379 -0.1245
  154DOPC  H11A18432   6.971   5.103   7.225 -1.0407 -0.1697  0.6435
  154DOPC  H11B18433   7.021   4.999   7.092 -1.3815 -0.3055 -0.2200
  154DOPC     P18434   6.913   4.755   7.193 -0.0526  0.2257 -0.1316
  154DOPC   O1318435   6.861   4.669   7.304  0.5587 -0.6725 -0.1421
  154DOPC   O1418436   7.037   4.708   7.125  0.4858 -0.8957  0.4138
  154DOPC   O1218437   6.914   4.909   7.241 -0.4487 -0.0924  0.2863
  154DOPC   O1118438   6.803   4.747   7.082  0.0341  0.0107  0.1355
  154DOPC    C118439   6.722   4.868   7.059  0.7611  0.1249 -0.2925
  154DOPC    HA18440   6.788   4.942   7.009  0.1001  2.3772  1.9259
  154DOPC    HB18441   6.671   4.915   7.145 -2.0291 -0.4733 -1.5106
  154DOPC    C218442   6.617   4.839   6.957 -0.3050 -0.0281  0.7616
  154DOPC    HS18443   6.550   4.761   6.999 -0.1835  0.7574  2.5015
  154DOPC   O2118444   6.674   4.799   6.828 -0.1306  0.0297 -0.2123
  154DOPC   C2118445   6.641   4.689   6.773  0.0640 -0.2568 -0.4540
  154DOPC   O2218446   6.568   4.604   6.822  0.1306  0.0800  0.1417
  154DOPC   C2218447   6.696   4.681   6.630  0.4535 -0.0762 -0.5267
  154DOPC   H2R18448   6.807   4.685   6.625  0.5514  0.3957  1.2454
  154DOPC   H2S18449   6.660   4.773   6.578 -0.2815  0.5634  1.0379
  154DOPC    C318450   6.520   4.961   6.938  0.1137 -0.7103 -0.4324
  154DOPC    HX18451   6.580   5.051   6.913 -0.7621 -0.4890 -1.8751
  154DOPC    HY18452   6.468   4.969   7.035 -0.6879  0.2535 -0.9290
  154DOPC   O3118453   6.424   4.948   6.826  0.0284  0.3899  0.4325
  154DOPC   C3118454   6.329   4.855   6.846  0.3624  0.2475 -0.9011
  154DOPC   O3218455   6.325   4.785   6.945  0.0019  0.5684  0.0370
  154DOPC   C3218456   6.228   4.854   6.728 -0.5583  0.1106  0.2923
  154DOPC   H2X18457   6.160   4.769   6.747  0.6527 -0.5386  1.9716
  154DOPC   H2Y18458   6.183   4.956   6.732  0.6576  0.7911 -1.8816
  154DOPC   C2318459   6.630   4.560   6.559  0.1733  0.0086 -0.3378
  154DOPC   H3R18460   6.534   4.527   6.604 -0.4086  0.2980 -1.3209
  154DOPC   H3S18461   6.693   4.471   6.580 -0.8253 -0.3490  1.3193
  154DOPC   C2418462   6.614   4.589   6.410 -0.1194 -0.5237  0.4810
  154DOPC   H4R18463   6.713   4.609   6.363  0.5621 -0.1976  1.9921
  154DOPC   H4S18464   6.551   4.679   6.393 -0.2424 -0.1028  2.9031
  154DOPC   C2518465   6.548   4.473   6.341 -0.6541 -0.0522 -0.1515
  154DOPC   H5R18466   6.440   4.463   6.364 -0.5329  0.2870  0.5807
  154DOPC   H5S18467   6.596   4.378   6.373 -1.1807 -0.6959 -1.2252
  154DOPC   C2618468   6.567   4.506   6.186  0.4613  0.2262 -0.3563
  154DOPC   H6R18469   6.548   4.411   6.132  2.6335 -1.7840  2.1162
  154DOPC   H6S18470   6.675   4.507   6.159  0.8258  0.1109  1.0341
  154DOPC   C2718471   6.484   4.624   6.133 -0.1529 -0.1876  0.5180
  154DOPC   H7R18472   6.538   4.719   6.153  0.9911 -0.6450 -0.2545
  154DOPC   H7S18473   6.391   4.614   6.193  0.0364 -0.7958  0.7256
  154DOPC   C2818474   6.452   4.631   5.986 -0.1133  0.3859  0.0677
  154DOPC   H8R18475   6.388   4.717   5.957  0.4582  0.2140 -1.8279
  154DOPC   H8S18476   6.393   4.541   5.958 -0.8668  1.0330 -0.4899
  154DOPC   C2918477   6.575   4.627   5.901 -0.0396 -0.2273 -0.1802
  154DOPC   H9R18478   6.628   4.532   5.887 -0.7111 -0.6230 -0.0551
  154DOPC  C21018479   6.635   4.736   5.836 -0.0376  0.2451 -0.7179
  154DOPC  H10R18480   6.719   4.712   5.769  0.5522 -1.3398  0.5082
  154DOPC  C21118481   6.603   4.881   5.865  0.4095 -0.0970  0.7560
  154DOPC  H11R18482   6.700   4.935   5.868  0.5792 -0.1811 -1.5767
  154DOPC  H11S18483   6.553   4.885   5.964  0.8765 -3.3452  1.2402
  154DOPC  C21218484   6.526   4.954   5.752  0.1372  0.2333  0.0797
  154DOPC  H12R18485   6.511   5.061   5.776  0.5529  0.6791 -1.5284
  154DOPC  H12S18486   6.423   4.912   5.750 -0.5103  1.7827 -1.0720
  154DOPC  C21318487   6.584   4.944   5.613  0.2711  0.6064 -0.2094
  154DOPC  H13R18488   6.585   4.836   5.588  1.5312  0.9379 -1.7482
  154DOPC  H13S18489   6.682   4.994   5.605  0.2218  0.5470 -1.4350
  154DOPC  C21418490   6.494   5.005   5.502 -0.2529  0.1817  0.1734
  154DOPC  H14R18491   6.479   5.108   5.541  1.0005 -0.7924  3.6851
  154DOPC  H14S18492   6.401   4.945   5.494  0.0850 -0.4250  0.6846
  154DOPC  C21518493   6.565   5.001   5.364  0.5269  0.0432  0.2367
  154DOPC  H15R18494   6.588   4.894   5.342  2.7823  0.6696 -0.7741
  154DOPC  H15S18495   6.655   5.062   5.389 -0.2773  1.2766  0.1667
  154DOPC  C21618496   6.474   5.068   5.256 -0.2039  0.1531 -0.6458
  154DOPC  H16R18497   6.453   5.169   5.298 -1.3606 -1.0306  1.8681
  154DOPC  H16S18498   6.379   5.011   5.247  0.2259 -0.5630 -0.7519
  154DOPC  C21718499   6.548   5.088   5.118  0.3015 -0.0996  0.2745
  154DOPC  H17R18500   6.467   5.141   5.064  1.2429  1.9834  0.8038
  154DOPC  H17S18501   6.561   4.985   5.078  2.6348  0.2028  0.0747
  154DOPC  C21818502   6.685   5.156   5.126 -0.1498 -0.3376 -0.9211
  154DOPC  H18R18503   6.679   5.247   5.190  1.6597  2.0129 -3.7827
  154DOPC  H18S18504   6.735   5.190   5.033  3.1760 -2.0918  0.0448
  154DOPC  H18T18505   6.750   5.079   5.174 -1.1241 -0.5501  0.0929
  154DOPC   C3318506   6.303   4.831   6.596 -0.2617  0.4672 -0.2116
  154DOPC   H3X18507   6.348   4.729   6.592 -1.9577 -0.4330  2.0899
  154DOPC   H3Y18508   6.381   4.905   6.568  0.8508 -1.2587 -2.0458
  154DOPC   C3418509   6.196   4.837   6.478  0.1988  0.2589  0.7810
  154DOPC   H4X18510   6.127   4.922   6.498  0.6633  0.9685 -0.4808
  154DOPC   H4Y18511   6.132   4.746   6.478  0.9940 -0.4261 -2.4587
  154DOPC   C3518512   6.257   4.879   6.341 -0.4746 -0.7858 -0.4118
  154DOPC   H5X18513   6.336   4.804   6.319  1.8231  0.8513  1.6988
  154DOPC   H5Y18514   6.309   4.973   6.370 -1.9051  0.2525 -1.1040
  154DOPC   C3618515   6.161   4.907   6.229  0.5284  0.2525 -0.3237
  154DOPC   H6X18516   6.135   4.804   6.197  0.0842 -0.2183  1.4370
  154DOPC   H6Y18517   6.073   4.967   6.260 -0.2469 -0.7143 -0.6234
  154DOPC   C3718518   6.245   4.974   6.120 -0.1012 -0.5032 -0.3463
  154DOPC   H7X18519   6.305   5.051   6.173 -0.5646 -1.5421  1.7631
  154DOPC   H7Y18520   6.319   4.907   6.071 -1.1724 -0.4905 -2.0843
  154DOPC   C3818521   6.155   5.033   6.008 -0.8122  0.7676  0.3093
  154DOPC   H8X18522   6.217   5.094   5.940  0.6862  0.4962  1.3884
  154DOPC   H8Y18523   6.087   5.112   6.045 -1.5993 -0.2334  1.0774
  154DOPC   C3918524   6.079   4.931   5.927  0.4782 -0.8112  0.1031
  154DOPC   H9X18525   6.080   4.832   5.975  2.5079 -0.1265  1.6274
  154DOPC  C31018526   6.020   4.946   5.807  0.2046 -0.9478 -0.9104
  154DOPC  H10X18527   5.972   4.855   5.767 -0.8148 -1.9084  2.2671
  154DOPC  C31118528   6.005   5.074   5.732  0.4420 -0.2140  0.9577
  154DOPC  H11X18529   6.007   5.171   5.785 -0.1632  1.8122 -2.3759
  154DOPC  H11Y18530   5.910   5.077   5.675  1.5656 -0.8358 -1.0589
  154DOPC  C31218531   6.090   5.099   5.601 -0.0475 -0.0331 -0.6139
  154DOPC  H12X18532   6.061   5.013   5.537 -0.6305  0.7443 -1.4158
  154DOPC  H12Y18533   6.199   5.093   5.620  0.0251 -1.3190 -1.3232
  154DOPC  C31318534   6.058   5.224   5.529  0.9259 -0.1005  0.3906
  154DOPC  H13X18535   5.952   5.213   5.498  0.8334  1.6279 -0.0002
  154DOPC  H13Y18536   6.049   5.307   5.603 -3.9874 -0.3001  0.3834
  154DOPC  C31418537   6.149   5.249   5.406  0.3973 -0.1123  0.7009
  154DOPC  H14X18538   6.253   5.258   5.443  0.6881 -2.2457  0.4837
  154DOPC  H14Y18539   6.131   5.160   5.343  0.3181  0.4659 -0.1093
  154DOPC  C31518540   6.122   5.370   5.318 -0.5486  0.5672 -0.0516
  154DOPC  H15X18541   6.203   5.378   5.243  0.6548 -1.1628  0.9840
  154DOPC  H15Y18542   6.115   5.446   5.399  0.0187 -0.9340  1.4868
  154DOPC  C31618543   5.987   5.358   5.255  0.2004  0.0098 -0.6914
  154DOPC  H16X18544   5.897   5.353   5.319  2.0445  0.8419  2.1721
  154DOPC  H16Y18545   5.968   5.452   5.199  0.7230  0.5469  0.0090
  154DOPC  C31718546   5.976   5.247   5.153  0.1810  0.4074 -1.0206
  154DOPC  H17X18547   6.077   5.240   5.108  0.4959 -0.0662 -0.2532
  154DOPC  H17Y18548   5.943   5.156   5.208 -0.4595  2.1776  1.7238
  154DOPC  C31818549   5.882   5.267   5.037  0.5506  0.7250  0.5078
  154DOPC  H18X18550   5.776   5.272   5.069  0.0331 -6.4008  1.4217
  154DOPC  H18Y18551   5.916   5.354   4.976 -2.1409  1.3352 -0.2567
  154DOPC  H18Z18552   5.874   5.177   4.973 -0.3198  0.9360  0.2921
  155DOPC     N18553   2.190   2.105   7.601 -0.0222  0.4233 -0.0263
  155DOPC   C1218554   2.242   2.067   7.458 -0.0404 -0.0698  0.2525
  155DOPC  H12A18555   2.207   1.968   7.433  1.1860 -0.1854 -1.1019
  155DOPC  H12B18556   2.349   2.074   7.461 -0.0554  0.1771  0.2032
  155DOPC   C1318557   2.283   2.043   7.692  0.7575  0.1240  0.0414
  155DOPC  H13A18558   2.386   2.049   7.659 -0.1708 -1.4226 -3.7489
  155DOPC  H13B18559   2.261   2.090   7.786 -2.6983  0.5836 -0.8728
  155DOPC  H13C18560   2.265   1.936   7.698  1.7464 -0.0429  0.3426
  155DOPC   C1418561   2.056   2.056   7.614 -0.1284  0.0023  0.5063
  155DOPC  H14A18562   2.053   1.949   7.601 -1.5563  0.0218  0.5398
  155DOPC  H14B18563   2.028   2.078   7.716  0.4420  0.3989  0.5840
  155DOPC  H14C18564   1.989   2.098   7.541 -1.6253 -0.4954  1.5534
  155DOPC   C1518565   2.185   2.255   7.606 -0.0978 -0.5425 -0.4000
  155DOPC  H15A18566   2.185   2.301   7.704 -1.0294  0.1518 -0.7186
  155DOPC  H15B18567   2.104   2.293   7.547 -0.0969  0.4378  0.2035
  155DOPC  H15C18568   2.274   2.301   7.565 -1.2488  0.9873 -1.2898
  155DOPC   C1118569   2.180   2.145   7.338  0.2462  0.0724  0.7039
  155DOPC  H11A18570   2.222   2.248   7.332 -0.6347  0.3806 -0.6828
  155DOPC  H11B18571   2.218   2.108   7.240 -3.4301  1.7818 -1.5995
  155DOPC     P18572   1.949   2.060   7.254 -0.0298  0.0235  0.3125
  155DOPC   O1318573   1.810   2.105   7.273  0.1633 -0.1469 -0.1833
  155DOPC   O1418574   1.972   1.930   7.317 -0.4310 -0.1618  0.5297
  155DOPC   O1218575   2.041   2.159   7.339  0.2889  0.0323 -0.5264
  155DOPC   O1118576   1.997   2.066   7.104  0.2362  0.8808  0.3031
  155DOPC    C118577   2.017   2.186   7.031 -0.2591 -0.1368  0.1189
  155DOPC    HA18578   2.102   2.170   6.962 -1.9523  0.1552 -2.1271
  155DOPC    HB18579   2.059   2.276   7.082  0.7812  0.2457 -1.3634
  155DOPC    C218580   1.897   2.216   6.946  0.4794 -0.2483  0.1598
  155DOPC    HS18581   1.812   2.199   7.016  1.3845  0.5751  1.5171
  155DOPC   O2118582   1.894   2.121   6.833 -0.2219  0.0514  0.1753
  155DOPC   C2118583   1.779   2.065   6.806  0.8431  0.6282 -0.3712
  155DOPC   O2218584   1.677   2.089   6.871  0.3925 -0.0745  0.3300
  155DOPC   C2218585   1.785   1.968   6.687  0.9036 -0.1806 -0.3497
  155DOPC   H2R18586   1.893   1.945   6.673  1.4818  1.7658  0.5582
  155DOPC   H2S18587   1.733   2.006   6.596  2.3476  2.7480 -0.0715
  155DOPC    C318588   1.887   2.366   6.901 -0.2111 -0.0336  0.1377
  155DOPC    HX18589   1.869   2.436   6.985 -1.5507  0.8252 -0.8262
  155DOPC    HY18590   1.798   2.376   6.836 -0.0738 -4.7166 -1.1744
  155DOPC   O3118591   1.998   2.403   6.825  0.2115 -0.1033 -0.0380
  155DOPC   C3118592   1.984   2.525   6.769  0.8682 -0.5232 -0.5669
  155DOPC   O3218593   1.881   2.589   6.780 -0.2927 -0.2695  0.0652
  155DOPC   C3218594   2.117   2.565   6.703 -0.2124 -0.8297  0.3252
  155DOPC   H2X18595   2.181   2.605   6.784  0.4300  2.3108 -1.5367
  155DOPC   H2Y18596   2.166   2.474   6.663 -1.7709 -1.6905  0.3112
  155DOPC   C2318597   1.722   1.835   6.718  0.5186  0.2293  0.0093
  155DOPC   H3R18598   1.624   1.860   6.765 -0.1560 -1.7148 -0.3072
  155DOPC   H3S18599   1.775   1.782   6.800  0.4669 -1.5466 -1.0786
  155DOPC   C2418600   1.708   1.742   6.598 -0.3508  0.2202 -0.2000
  155DOPC   H4R18601   1.643   1.783   6.518  0.5114  1.0486 -0.4874
  155DOPC   H4S18602   1.651   1.655   6.637 -2.9356  1.7257 -0.3271
  155DOPC   C2518603   1.840   1.699   6.536 -0.0766  0.2393  0.3530
  155DOPC   H5R18604   1.906   1.638   6.602 -1.2299 -2.4253 -0.8024
  155DOPC   H5S18605   1.892   1.795   6.516  0.7054 -0.4358 -0.9801
  155DOPC   C2618606   1.812   1.629   6.399  0.2905  0.0125  0.4052
  155DOPC   H6R18607   1.750   1.702   6.342 -1.1986 -1.5687 -0.1010
  155DOPC   H6S18608   1.748   1.538   6.408 -0.5872  0.4057 -1.3081
  155DOPC   C2718609   1.939   1.594   6.319 -0.3148  0.5355 -0.3680
  155DOPC   H7R18610   1.978   1.501   6.367 -1.0032  1.8288  2.9158
  155DOPC   H7S18611   2.020   1.664   6.347 -2.4218  2.1366  2.1763
  155DOPC   C2818612   1.916   1.569   6.173 -0.1109 -0.2806 -0.1308
  155DOPC   H8R18613   1.861   1.656   6.130  0.7824 -0.0440 -0.8217
  155DOPC   H8S18614   1.855   1.476   6.167  0.0367 -0.4909  1.2209
  155DOPC   C2918615   2.052   1.550   6.115  0.7488 -0.5391  0.0677
  155DOPC   H9R18616   2.095   1.631   6.053  1.0649  0.4912  1.5740
  155DOPC  C21018617   2.123   1.439   6.123  0.1974 -0.0544 -0.5921
  155DOPC  H10R18618   2.228   1.446   6.093  0.5323  0.2380  0.5962
  155DOPC  C21118619   2.078   1.304   6.170  0.4871 -0.0587  0.1561
  155DOPC  H11R18620   1.974   1.281   6.137  1.2547 -2.1784 -1.0461
  155DOPC  H11S18621   2.080   1.317   6.280 -1.3462  0.9484  0.1105
  155DOPC  C21218622   2.165   1.179   6.129  0.4300 -0.7263 -0.1159
  155DOPC  H12R18623   2.128   1.088   6.179  0.7937  0.8075  3.2254
  155DOPC  H12S18624   2.271   1.201   6.154  0.5241 -0.1927 -0.9198
  155DOPC  C21318625   2.174   1.160   5.981 -0.4658  0.4564  0.0779
  155DOPC  H13R18626   2.181   1.257   5.928  0.4963  0.4290  0.1413
  155DOPC  H13S18627   2.077   1.126   5.937  0.2474 -0.5581 -0.7834
  155DOPC  C21418628   2.282   1.058   5.948 -0.0019 -0.6625 -0.1369
  155DOPC  H14R18629   2.252   1.021   5.848 -1.0418  0.9305 -0.4382
  155DOPC  H14S18630   2.281   0.973   6.021  0.4104  1.2835  2.2759
  155DOPC  C21518631   2.421   1.121   5.931 -0.3575 -0.1515  0.0323
  155DOPC  H15R18632   2.423   1.205   6.004 -0.2420  2.1867 -2.4853
  155DOPC  H15S18633   2.423   1.175   5.834  1.2432  1.9141  1.1202
  155DOPC  C21618634   2.545   1.026   5.951  0.1355  0.1653  0.4966
  155DOPC  H16R18635   2.632   1.068   5.896 -0.4106  0.5200 -0.1028
  155DOPC  H16S18636   2.516   0.934   5.896 -0.0445 -0.8474  2.1855
  155DOPC  C21718637   2.586   1.004   6.093 -0.5723  0.4731 -0.0516
  155DOPC  H17R18638   2.628   0.902   6.101  0.2507  0.8923  1.4905
  155DOPC  H17S18639   2.505   1.019   6.167  0.2515 -0.2359  1.0191
  155DOPC  C21818640   2.697   1.101   6.124  0.0564  0.5574 -0.0008
  155DOPC  H18R18641   2.755   1.082   6.217  0.2217 -0.7765 -0.3578
  155DOPC  H18S18642   2.652   1.203   6.126 -1.1902  0.0177  0.1675
  155DOPC  H18T18643   2.772   1.096   6.042 -0.3327 -1.1834 -0.2840
  155DOPC   C3318644   2.094   2.672   6.597  0.7008 -0.5426 -0.1999
  155DOPC   H3X18645   2.026   2.751   6.633 -0.8296 -1.1947 -1.5250
  155DOPC   H3Y18646   2.048   2.636   6.502  1.3946  3.1044 -2.1109
  155DOPC   C3418647   2.221   2.736   6.547  0.1746 -0.6496  0.2959
  155DOPC   H4X18648   2.306   2.665   6.536 -0.2544 -1.3215  1.2368
  155DOPC   H4Y18649   2.247   2.819   6.617  0.2900 -0.6095  0.2057
  155DOPC   C3518650   2.199   2.801   6.409  0.3166 -0.5884  0.3811
  155DOPC   H5X18651   2.142   2.896   6.414  0.3932 -0.3764 -1.9986
  155DOPC   H5Y18652   2.135   2.737   6.345  0.1446  2.3494 -2.6562
  155DOPC   C3618653   2.325   2.834   6.339  0.1695 -0.8418  0.2769
  155DOPC   H6X18654   2.362   2.931   6.377 -1.7592  0.2172 -0.3697
  155DOPC   H6Y18655   2.398   2.759   6.373  0.6415 -0.1096  0.9013
  155DOPC   C3718656   2.319   2.842   6.184  0.6476  0.6992 -0.4279
  155DOPC   H7X18657   2.368   2.752   6.142 -0.7850 -0.0461 -0.5608
  155DOPC   H7Y18658   2.215   2.844   6.147 -0.4917  0.4089  2.4747
  155DOPC   C3818659   2.389   2.955   6.111 -0.6012  0.1595  0.2790
  155DOPC   H8X18660   2.459   2.907   6.038 -0.1091 -0.4817  1.1474
  155DOPC   H8Y18661   2.459   3.007   6.180  0.8326 -1.2772 -0.0185
  155DOPC   C3918662   2.292   3.052   6.056  0.1199 -0.6736 -0.9620
  155DOPC   H9X18663   2.278   3.139   6.122  0.3135 -1.9547  0.8329
  155DOPC  C31018664   2.249   3.052   5.931  0.6517 -0.0537  0.3978
  155DOPC  H10X18665   2.207   3.147   5.894  0.3336  0.2556  1.4966
  155DOPC  C31118666   2.267   2.941   5.829  0.0694  0.3203  0.3796
  155DOPC  H11X18667   2.170   2.886   5.829 -0.1012  0.5035 -2.1012
  155DOPC  H11Y18668   2.347   2.869   5.859  1.3626  2.9128  3.7021
  155DOPC  C31218669   2.293   2.996   5.679  0.2971  0.1913 -0.4331
  155DOPC  H12X18670   2.397   3.033   5.677  1.4334 -2.4259  2.3830
  155DOPC  H12Y18671   2.210   3.068   5.664  0.2911  0.3865  0.4811
  155DOPC  C31318672   2.275   2.885   5.574 -0.5610 -0.3484 -0.0161
  155DOPC  H13X18673   2.342   2.907   5.488 -0.3441  0.2854  0.3012
  155DOPC  H13Y18674   2.306   2.787   5.617 -0.3960 -1.3188 -2.2191
  155DOPC  C31418675   2.125   2.875   5.525 -0.3990 -0.5598 -0.0228
  155DOPC  H14X18676   2.065   2.833   5.608 -0.7114 -0.5948 -0.2601
  155DOPC  H14Y18677   2.090   2.977   5.499 -0.0933 -0.4093  0.1540
  155DOPC  C31518678   2.112   2.784   5.398  0.6157  0.6548 -0.3953
  155DOPC  H15X18679   2.159   2.686   5.419  0.5732  0.9286  1.1412
  155DOPC  H15Y18680   2.165   2.833   5.314 -0.9385 -1.4533 -2.7528
  155DOPC  C31618681   1.969   2.737   5.365  0.8734  0.0513 -0.7416
  155DOPC  H16X18682   1.987   2.654   5.293 -0.7198 -1.8503  0.9240
  155DOPC  H16Y18683   1.920   2.690   5.453 -1.5377  0.8613 -1.5736
  155DOPC  C31718684   1.875   2.851   5.317 -0.0350  0.1824 -0.3705
  155DOPC  H17X18685   1.777   2.807   5.288 -1.1393  1.5193  1.1097
  155DOPC  H17Y18686   1.856   2.907   5.411 -0.4335  0.5356 -0.6590
  155DOPC  C31818687   1.923   2.943   5.204 -0.1601 -0.7366 -0.0693
  155DOPC  H18X18688   2.001   3.013   5.241 -1.6180  0.8228  0.1681
  155DOPC  H18Y18689   1.957   2.884   5.116  1.5734 -0.3810  0.3193
  155DOPC  H18Z18690   1.838   3.003   5.165 -0.5496 -0.8918  0.5299
  156DOPC     N18691   5.597   6.665   7.482 -0.2282 -0.3457 -0.3916
  156DOPC   C1218692   5.613   6.615   7.337  0.2831  0.4158 -0.4859
  156DOPC  H12A18693   5.608   6.509   7.355 -2.0042  0.5969  0.2228
  156DOPC  H12B18694   5.714   6.632   7.302  0.8681  1.6220  1.6188
  156DOPC   C1318695   5.464   6.642   7.540 -0.2055 -0.5977 -0.4885
  156DOPC  H13A18696   5.391   6.706   7.492 -0.0817  0.7101  1.0126
  156DOPC  H13B18697   5.432   6.539   7.553 -0.1075 -0.3027  2.7950
  156DOPC  H13C18698   5.468   6.676   7.642  1.5354  1.7332 -1.2426
  156DOPC   C1418699   5.617   6.812   7.470 -0.1460 -0.3021  0.4527
  156DOPC  H14A18700   5.617   6.868   7.562 -2.8401  0.4432  0.0734
  156DOPC  H14B18701   5.714   6.822   7.422 -1.2643 -0.9521 -2.1515
  156DOPC  H14C18702   5.548   6.852   7.397  0.3830  1.5996  0.9415
  156DOPC   C1518703   5.698   6.591   7.571  0.4227  0.4996  0.6094
  156DOPC  H15A18704   5.678   6.485   7.560  0.6330  0.5600 -0.5463
  156DOPC  H15B18705   5.700   6.622   7.674 -0.2365 -1.9655  1.4334
  156DOPC  H15C18706   5.802   6.599   7.540  0.8096 -1.9791  1.0414
  156DOPC   C1118707   5.505   6.646   7.237 -0.6966  0.5061 -0.2172
  156DOPC  H11A18708   5.506   6.575   7.152  0.3008 -1.0443  1.0287
  156DOPC  H11B18709   5.412   6.622   7.293 -0.6513  2.1185  0.5914
  156DOPC     P18710   5.609   6.819   7.086  0.1418  0.1036 -0.0072
  156DOPC   O1318711   5.702   6.705   7.057  0.1148 -0.2436 -0.3174
  156DOPC   O1418712   5.669   6.949   7.118  0.4563 -0.3227 -0.0986
  156DOPC   O1218713   5.507   6.781   7.203 -0.3774 -0.0975 -0.3065
  156DOPC   O1118714   5.513   6.837   6.968  0.7176 -0.2966  0.0029
  156DOPC    C118715   5.423   6.729   6.920 -0.5184  0.5369 -0.1150
  156DOPC    HA18716   5.326   6.739   6.973 -1.4294  1.9612 -1.9154
  156DOPC    HB18717   5.458   6.629   6.953 -0.2045  0.6198 -0.2004
  156DOPC    C218718   5.421   6.740   6.767  0.5365  0.0699  0.5028
  156DOPC    HS18719   5.348   6.666   6.727  4.6503 -2.9780 -2.2932
  156DOPC   O2118720   5.547   6.714   6.708  0.3073 -0.1621 -1.1266
  156DOPC   C2118721   5.588   6.587   6.719  0.5159  0.4906 -0.8069
  156DOPC   O2218722   5.525   6.491   6.771 -0.2543  0.1344 -0.1888
  156DOPC   C2218723   5.727   6.579   6.658  0.1702  0.4312  0.0422
  156DOPC   H2R18724   5.801   6.636   6.718  3.1314 -1.4261 -1.6358
  156DOPC   H2S18725   5.732   6.616   6.553  4.8676 -1.2496 -0.5219
  156DOPC    C318726   5.372   6.872   6.702 -0.2224 -0.0010 -0.4293
  156DOPC    HX18727   5.448   6.948   6.734 -2.1128  0.6435  3.1055
  156DOPC    HY18728   5.276   6.906   6.746  0.6314  2.2111 -0.1343
  156DOPC   O3118729   5.354   6.872   6.558 -0.4850  0.0820  0.2266
  156DOPC   C3118730   5.457   6.877   6.473 -0.3439  0.4523  0.5054
  156DOPC   O3218731   5.576   6.890   6.501  0.2192  0.7314 -0.2814
  156DOPC   C3218732   5.405   6.844   6.333  0.4490  0.4066 -0.2919
  156DOPC   H2X18733   5.324   6.768   6.339  1.3534 -0.4976  0.8448
  156DOPC   H2Y18734   5.363   6.934   6.284  0.7344  0.1581 -0.9977
  156DOPC   C2318735   5.762   6.432   6.644 -0.0432  0.5564 -0.0483
  156DOPC   H3R18736   5.700   6.371   6.575  0.0771 -0.6387  0.8650
  156DOPC   H3S18737   5.764   6.381   6.743 -0.5087 -0.3196 -0.4757
  156DOPC   C2418738   5.907   6.416   6.585  0.0892 -0.5478 -0.0679
  156DOPC   H4R18739   5.917   6.314   6.541 -0.7153 -0.9251  0.5904
  156DOPC   H4S18740   5.985   6.430   6.662 -0.0204  0.2000 -0.0847
  156DOPC   C2518741   5.933   6.502   6.456  0.5117  0.6068 -0.7402
  156DOPC   H5R18742   5.975   6.597   6.497  3.0811 -1.8352  2.9365
  156DOPC   H5S18743   5.833   6.500   6.407 -1.8360  0.3903  3.5465
  156DOPC   C2618744   6.032   6.442   6.355 -0.0858 -0.0963 -0.2862
  156DOPC   H6R18745   5.996   6.342   6.320  0.6557 -0.0683 -1.1863
  156DOPC   H6S18746   6.134   6.429   6.399  0.2943  1.0972 -0.7936
  156DOPC   C2718747   6.046   6.541   6.239 -0.4732  0.3699  0.3489
  156DOPC   H7R18748   6.078   6.641   6.274  1.2718 -0.8509  2.5435
  156DOPC   H7S18749   5.941   6.567   6.212 -0.8319 -2.2686 -1.2011
  156DOPC   C2818750   6.120   6.489   6.115 -0.2445  0.6357  0.2670
  156DOPC   H8R18751   6.099   6.550   6.025  3.1928  1.0359 -0.4278
  156DOPC   H8S18752   6.084   6.387   6.091 -1.1199  0.6229  1.5350
  156DOPC   C2918753   6.267   6.491   6.151 -0.3336  0.3312 -0.2725
  156DOPC   H9R18754   6.300   6.439   6.243  0.3928 -0.7216 -1.0898
  156DOPC  C21018755   6.360   6.566   6.093  0.2848  0.7925  0.3176
  156DOPC  H10R18756   6.463   6.564   6.134 -0.0273  0.3006  1.1016
  156DOPC  C21118757   6.341   6.650   5.966  0.2537 -0.2601 -0.2770
  156DOPC  H11R18758   6.413   6.735   5.962  1.7740 -1.4927  0.1215
  156DOPC  H11S18759   6.243   6.703   5.967 -0.0725 -0.8301 -1.0839
  156DOPC  C21218760   6.363   6.551   5.850 -0.6077  0.0847 -0.6178
  156DOPC  H12R18761   6.285   6.473   5.840 -0.0697 -0.4225 -0.8707
  156DOPC  H12S18762   6.447   6.482   5.869 -1.8542 -1.3660 -0.1537
  156DOPC  C21318763   6.360   6.633   5.723 -0.1186  0.1215  0.2851
  156DOPC  H13R18764   6.420   6.726   5.731  1.2593 -0.8133  1.1892
  156DOPC  H13S18765   6.256   6.671   5.712  0.5049  2.0409  0.5502
  156DOPC  C21418766   6.406   6.556   5.592  0.0085  0.0248 -0.4750
  156DOPC  H14R18767   6.407   6.446   5.607  0.3995  0.3072  1.9669
  156DOPC  H14S18768   6.513   6.584   5.590 -0.2181  0.8836 -0.7809
  156DOPC  C21518769   6.317   6.594   5.475  0.0965  0.1679 -0.3608
  156DOPC  H15R18770   6.386   6.600   5.388 -1.3581  1.5657 -1.4751
  156DOPC  H15S18771   6.283   6.699   5.491 -0.2037 -0.2444  2.2219
  156DOPC  C21618772   6.220   6.494   5.433 -0.4840  0.2281 -0.1834
  156DOPC  H16R18773   6.263   6.395   5.408 -0.3476 -0.5510  2.7908
  156DOPC  H16S18774   6.167   6.533   5.343  0.0322 -0.7053 -0.9038
  156DOPC  C21718775   6.106   6.461   5.539 -0.3133  0.1658  0.8885
  156DOPC  H17R18776   6.044   6.553   5.547 -2.8374 -1.3235 -0.3993
  156DOPC  H17S18777   6.154   6.431   5.634  0.3160 -1.4139  0.1112
  156DOPC  C21818778   6.013   6.347   5.498 -0.1757 -0.3655 -0.6098
  156DOPC  H18R18779   5.935   6.319   5.572  0.4917  0.8560  0.6000
  156DOPC  H18S18780   6.083   6.263   5.477  1.6683  1.4895 -2.4502
  156DOPC  H18T18781   5.964   6.382   5.405  1.3166  1.1652 -0.8808
  156DOPC   C3318782   5.518   6.790   6.252 -0.5410 -0.0400 -0.2286
  156DOPC   H3X18783   5.598   6.866   6.246 -1.5974  1.1952  0.5929
  156DOPC   H3Y18784   5.485   6.768   6.149  0.5110  0.7419 -0.7438
  156DOPC   C3418785   5.570   6.650   6.297  0.5757 -0.0517  0.3429
  156DOPC   H4X18786   5.632   6.671   6.387 -0.2473  0.2295  0.8587
  156DOPC   H4Y18787   5.641   6.630   6.214  0.0707 -0.5826  0.0381
  156DOPC   C3518788   5.474   6.527   6.302 -0.1155 -0.0863  0.4603
  156DOPC   H5X18789   5.403   6.523   6.387  1.9564 -2.3030  2.2271
  156DOPC   H5Y18790   5.543   6.446   6.334  0.1864  0.5690  1.5293
  156DOPC   C3618791   5.398   6.505   6.170 -0.2820 -0.5108  0.3983
  156DOPC   H6X18792   5.325   6.587   6.154 -1.9387 -1.8397  0.9241
  156DOPC   H6Y18793   5.477   6.508   6.091  0.6752 -3.7776  1.0947
  156DOPC   C3718794   5.320   6.380   6.162  0.3591 -0.1849  0.3351
  156DOPC   H7X18795   5.383   6.296   6.196  1.1902  0.3517  0.1757
  156DOPC   H7Y18796   5.230   6.387   6.226  0.1721 -1.2913  0.2084
  156DOPC   C3818797   5.291   6.337   6.019 -0.1041  0.2356  0.0827
  156DOPC   H8X18798   5.228   6.246   6.014 -1.1154  0.9507 -0.9615
  156DOPC   H8Y18799   5.376   6.311   5.952 -0.3091  2.3268 -1.0800
  156DOPC   C3918800   5.223   6.455   5.948 -0.1600  0.3497  0.6762
  156DOPC   H9X18801   5.299   6.517   5.899  0.7541  1.5888  3.4436
  156DOPC  C31018802   5.090   6.496   5.970 -0.6710 -0.8402  0.2582
  156DOPC  H10X18803   5.058   6.586   5.915 -0.4572 -0.5174  0.6583
  156DOPC  C31118804   4.987   6.431   6.061  0.8336  0.2494 -0.4404
  156DOPC  H11X18805   4.954   6.501   6.141  2.7378 -2.2290  2.7932
  156DOPC  H11Y18806   5.019   6.338   6.113 -1.2597 -0.5522 -0.4841
  156DOPC  C31218807   4.855   6.403   5.983  0.0738 -0.0610  0.0470
  156DOPC  H12X18808   4.818   6.493   5.929  0.9180 -1.0773 -2.3982
  156DOPC  H12Y18809   4.766   6.377   6.043 -1.3169  1.4853 -1.2444
  156DOPC  C31318810   4.868   6.290   5.879  0.3990  0.6852  0.0398
  156DOPC  H13X18811   4.942   6.323   5.803  1.5725  0.1915  0.9336
  156DOPC  H13Y18812   4.905   6.197   5.928  2.9348  1.4100 -0.3551
  156DOPC  C31418813   4.742   6.258   5.799 -0.0873 -0.6754  0.1633
  156DOPC  H14X18814   4.698   6.348   5.752  3.2900  1.1300  0.1326
  156DOPC  H14Y18815   4.772   6.193   5.714  0.5359  1.3084 -1.1988
  156DOPC  C31518816   4.647   6.175   5.885 -0.3406  0.4244 -0.2005
  156DOPC  H15X18817   4.629   6.242   5.972  1.3706  1.1259 -0.3374
  156DOPC  H15Y18818   4.718   6.100   5.925  1.6149  0.6381 -2.9384
  156DOPC  C31618819   4.516   6.134   5.816 -0.1035  0.3832 -0.0153
  156DOPC  H16X18820   4.464   6.229   5.793  1.1774  0.8298 -1.2583
  156DOPC  H16Y18821   4.542   6.065   5.732  1.2082  0.5333  0.2377
  156DOPC  C31718822   4.424   6.068   5.913 -0.3636  0.7306  0.7145
  156DOPC  H17X18823   4.370   5.987   5.858  0.3309  1.6241 -1.3895
  156DOPC  H17Y18824   4.482   6.012   5.989 -2.0684 -2.1636  0.0597
  156DOPC  C31818825   4.334   6.157   5.990  0.2816 -0.3834 -0.5833
  156DOPC  H18X18826   4.392   6.222   6.059 -0.6075  0.7110 -0.8473
  156DOPC  H18Y18827   4.267   6.220   5.929  1.5323  0.4173 -1.1809
  156DOPC  H18Z18828   4.266   6.092   6.050 -1.0825  2.0385  0.6197
  157DOPC     N18829   6.342   1.188   7.608 -0.4993 -0.0576 -0.3348
  157DOPC   C1218830   6.463   1.101   7.602 -0.4451  0.1255  0.8663
  157DOPC  H12A18831   6.434   1.001   7.631  1.0118 -1.0183 -1.3386
  157DOPC  H12B18832   6.526   1.142   7.680 -0.1393  1.5338 -0.0836
  157DOPC   C1318833   6.283   1.177   7.749  0.0842 -0.2257 -0.0956
  157DOPC  H13A18834   6.237   1.081   7.763 -2.1822  1.0583  2.0541
  157DOPC  H13B18835   6.368   1.192   7.814  1.2646  0.6003 -1.7498
  157DOPC  H13C18836   6.221   1.262   7.772  3.4127  1.9497  1.6996
  157DOPC   C1418837   6.239   1.151   7.514  0.3151  0.3601 -0.2215
  157DOPC  H14A18838   6.207   1.048   7.508 -1.8028  0.7028  2.8182
  157DOPC  H14B18839   6.151   1.212   7.521 -0.2533 -0.0291 -2.9899
  157DOPC  H14C18840   6.285   1.171   7.418 -0.2238  0.4224 -0.4686
  157DOPC   C1518841   6.380   1.330   7.583  1.0905 -0.6756 -0.3636
  157DOPC  H15A18842   6.298   1.400   7.573  3.9260  2.9170 -0.9842
  157DOPC  H15B18843   6.426   1.345   7.486  1.8283 -0.9481 -0.0658
  157DOPC  H15C18844   6.446   1.376   7.656  2.4757 -2.5763 -0.3439
  157DOPC   C1118845   6.546   1.089   7.473 -0.8101  0.6974 -0.4711
  157DOPC  H11A18846   6.584   1.190   7.444  2.4437  0.0022  0.9718
  157DOPC  H11B18847   6.641   1.037   7.499 -0.4312  1.0188 -1.1777
  157DOPC     P18848   6.483   0.889   7.323 -0.0827 -0.2745  0.2079
  157DOPC   O1318849   6.403   0.808   7.425  0.0773 -0.1347  0.1631
  157DOPC   O1418850   6.621   0.856   7.295 -0.1515 -0.3985 -0.1397
  157DOPC   O1218851   6.469   1.037   7.363  0.1978 -0.2661  0.0729
  157DOPC   O1118852   6.414   0.884   7.185 -0.2670 -0.8737 -0.3114
  157DOPC    C118853   6.299   0.950   7.139 -0.3115  0.2248  0.0096
  157DOPC    HA18854   6.299   1.056   7.170  2.2908 -0.2089  1.8633
  157DOPC    HB18855   6.205   0.905   7.177  1.2593 -2.9718  0.4564
  157DOPC    C218856   6.287   0.936   6.986 -0.1991  0.1269 -0.6331
  157DOPC    HS18857   6.224   1.024   6.959  0.4317  0.0875 -2.3645
  157DOPC   O2118858   6.250   0.806   6.949  0.4638 -0.1470  0.3719
  157DOPC   C2118859   6.136   0.812   6.870  0.2903 -0.1924 -0.1826
  157DOPC   O2218860   6.075   0.914   6.839  0.6506 -0.0806 -0.0768
  157DOPC   C2218861   6.095   0.668   6.819 -0.4161  0.4955 -0.8024
  157DOPC   H2R18862   6.037   0.613   6.897 -0.2016  2.1291  0.5666
  157DOPC   H2S18863   6.186   0.605   6.822 -1.3988 -0.9850 -0.8501
  157DOPC    C318864   6.426   0.977   6.914  0.2628  0.5423 -0.1248
  157DOPC    HX18865   6.509   0.907   6.937  0.2076  1.2929  2.8212
  157DOPC    HY18866   6.454   1.074   6.961 -0.5590  0.5954  0.2747
  157DOPC   O3118867   6.403   0.999   6.779  0.5089  0.0463  0.0497
  157DOPC   C3118868   6.514   1.047   6.719 -0.1205  0.3845  0.2294
  157DOPC   O3218869   6.624   1.076   6.770 -0.3715  0.4585 -0.1695
  157DOPC   C3218870   6.479   1.057   6.566 -0.8975  0.3316  0.4283
  157DOPC   H2X18871   6.453   0.955   6.529  0.5067 -0.0864  0.5411
  157DOPC   H2Y18872   6.397   1.130   6.548 -0.7448  0.7649  1.4247
  157DOPC   C2318873   6.035   0.670   6.679  1.1247  0.1452  0.1456
  157DOPC   H3R18874   5.936   0.720   6.682  0.1925 -1.6437  0.5382
  157DOPC   H3S18875   6.010   0.566   6.648 -0.4112  0.1832  1.1655
  157DOPC   C2418876   6.121   0.734   6.569 -0.1703 -0.0121 -0.0356
  157DOPC   H4R18877   6.210   0.676   6.537  1.2725  0.8697  2.0585
  157DOPC   H4S18878   6.158   0.831   6.609 -0.9242 -0.2120  1.2069
  157DOPC   C2518879   6.045   0.770   6.433 -0.4137  0.2542 -0.1012
  157DOPC   H5R18880   5.963   0.832   6.472 -0.7622 -0.8766  1.0393
  157DOPC   H5S18881   6.003   0.674   6.395 -1.5063  1.5485 -2.3792
  157DOPC   C2618882   6.142   0.830   6.328 -0.1095  0.1551 -0.0073
  157DOPC   H6R18883   6.211   0.744   6.313  1.0918  0.8759  1.1381
  157DOPC   H6S18884   6.204   0.912   6.372 -0.3798  1.1705 -1.4280
  157DOPC   C2718885   6.066   0.867   6.205  0.4572 -0.0550  0.4158
  157DOPC   H7R18886   5.990   0.946   6.221 -0.9916 -1.3524  0.1879
  157DOPC   H7S18887   6.008   0.774   6.184  2.3328 -1.3233  0.5230
  157DOPC   C2818888   6.157   0.912   6.086 -0.0601  0.1097 -0.2126
  157DOPC   H8R18889   6.095   0.937   5.997  0.2373  0.6015 -0.2848
  157DOPC   H8S18890   6.222   0.824   6.066  0.8371  0.2814  1.7806
  157DOPC   C2918891   6.262   1.024   6.107 -0.4089 -0.4182 -0.2843
  157DOPC   H9R18892   6.349   0.998   6.169  0.5288  1.7512 -0.5991
  157DOPC  C21018893   6.254   1.147   6.059 -0.6432 -0.6728  0.3084
  157DOPC  H10R18894   6.341   1.214   6.064 -1.8656  1.1837 -1.7169
  157DOPC  C21118895   6.141   1.207   5.982  0.0926 -0.7943  0.4608
  157DOPC  H11R18896   6.054   1.138   5.993 -0.3084 -0.7350 -1.8603
  157DOPC  H11S18897   6.170   1.222   5.876  4.9928 -1.4658  1.4722
  157DOPC  C21218898   6.090   1.350   6.029 -0.5961  0.4223 -0.1082
  157DOPC  H12R18899   6.170   1.424   6.009 -0.5181  0.5658  0.7099
  157DOPC  H12S18900   6.084   1.344   6.139 -2.3271  0.8051 -0.1625
  157DOPC  C21318901   5.959   1.401   5.973 -0.0754 -0.2126  0.7214
  157DOPC  H13R18902   5.935   1.495   6.027 -0.4837  0.1028  0.0009
  157DOPC  H13S18903   5.874   1.333   5.994 -1.1835  0.8602 -0.1876
  157DOPC  C21418904   5.964   1.417   5.822 -0.7391 -0.0652 -0.7462
  157DOPC  H14R18905   5.856   1.422   5.795 -1.4800  0.8557  2.0279
  157DOPC  H14S18906   6.011   1.323   5.787  1.7936  0.0907  1.8713
  157DOPC  C21518907   6.047   1.537   5.779 -0.9704  0.1209  0.0246
  157DOPC  H15R18908   6.153   1.523   5.807 -0.5372  1.6465 -0.7565
  157DOPC  H15S18909   6.012   1.628   5.831 -0.3136  0.6905 -0.5200
  157DOPC  C21618910   6.033   1.559   5.624 -0.7228  0.3502  0.3548
  157DOPC  H16R18911   6.073   1.478   5.560 -2.5104 -0.4243  0.1688
  157DOPC  H16S18912   6.094   1.647   5.591 -2.4831  1.2384 -0.6866
  157DOPC  C21718913   5.890   1.581   5.566  0.3796  0.0837  0.0961
  157DOPC  H17R18914   5.806   1.559   5.634 -0.9592 -1.4299 -1.9298
  157DOPC  H17S18915   5.856   1.507   5.490 -1.6545 -0.7552  1.7249
  157DOPC  C21818916   5.886   1.720   5.500 -0.0006 -0.1509  0.2375
  157DOPC  H18R18917   5.792   1.746   5.447  1.0012  2.0604 -0.5808
  157DOPC  H18S18918   5.959   1.729   5.417  0.3227  0.1763  0.5494
  157DOPC  H18T18919   5.917   1.795   5.576  0.8892  0.2863 -0.5358
  157DOPC   C3318920   6.606   1.107   6.492 -0.3193  0.6137 -0.2835
  157DOPC   H3X18921   6.678   1.025   6.515 -1.1989 -0.4793 -1.2809
  157DOPC   H3Y18922   6.656   1.198   6.531 -1.2360  1.0096 -0.0185
  157DOPC   C3418923   6.599   1.105   6.336 -0.3197 -0.4547  0.1787
  157DOPC   H4X18924   6.521   1.167   6.288  0.2287  0.2411  0.1698
  157DOPC   H4Y18925   6.574   1.001   6.307  0.7639 -0.4927 -0.6947
  157DOPC   C3518926   6.728   1.170   6.291 -0.3943  0.0685 -0.0931
  157DOPC   H5X18927   6.789   1.102   6.228  0.2354 -0.3920  0.9732
  157DOPC   H5Y18928   6.793   1.197   6.377 -1.6644 -2.1705  1.6882
  157DOPC   C3618929   6.701   1.293   6.205  0.0841  0.7916  0.0530
  157DOPC   H6X18930   6.632   1.279   6.119  2.7236  1.6459 -2.3556
  157DOPC   H6Y18931   6.652   1.362   6.277  0.3444  2.3812 -1.2137
  157DOPC   C3718932   6.830   1.351   6.151  0.1988  0.3939 -0.3025
  157DOPC   H7X18933   6.916   1.287   6.181  0.2177  0.5778  0.0403
  157DOPC   H7Y18934   6.823   1.359   6.041 -1.6710  0.8264 -0.1819
  157DOPC   C3818935   6.859   1.493   6.207  0.0326  0.1866 -0.1687
  157DOPC   H8X18936   6.847   1.505   6.316 -0.5832  0.7001 -0.2891
  157DOPC   H8Y18937   6.777   1.553   6.161 -0.4771  0.1841  0.7136
  157DOPC   C3918938   7.001   1.534   6.160  0.0508  0.0204 -0.8317
  157DOPC   H9X18939   7.078   1.463   6.191  0.1161  0.2305 -0.5028
  157DOPC  C31018940   7.033   1.647   6.095 -0.0017  0.4702 -0.8105
  157DOPC  H10X18941   7.139   1.673   6.082  0.7863 -2.1207 -0.1537
  157DOPC  C31118942   6.931   1.748   6.032  0.1493 -0.3433 -0.0871
  157DOPC  H11X18943   6.980   1.847   6.019  3.6846 -1.8340  0.9089
  157DOPC  H11Y18944   6.852   1.782   6.103 -0.4675 -0.9899 -0.4459
  157DOPC  C31218945   6.869   1.705   5.899 -0.1385  0.1438  0.4427
  157DOPC  H12X18946   6.789   1.629   5.913 -1.7277  1.8149  0.7680
  157DOPC  H12Y18947   6.949   1.662   5.835  0.4679  0.3206  1.0624
  157DOPC  C31318948   6.803   1.816   5.812  0.5510  0.5007  0.3569
  157DOPC  H13X18949   6.785   1.772   5.712  0.1283 -1.9185  1.4330
  157DOPC  H13Y18950   6.711   1.844   5.867  2.1922  1.3480  2.8675
  157DOPC  C31418951   6.894   1.934   5.780  0.2189  0.5103 -0.0719
  157DOPC  H14X18952   6.897   1.996   5.872  0.7500  0.9941 -0.4007
  157DOPC  H14Y18953   6.996   1.899   5.752 -1.0308 -0.3594 -4.4093
  157DOPC  C31518954   6.840   2.018   5.671  0.7843  0.4911  0.1774
  157DOPC  H15X18955   6.735   2.046   5.691  0.5415 -0.9123  1.0161
  157DOPC  H15Y18956   6.835   1.953   5.580  1.0596  2.0147 -0.9647
  157DOPC  C31618957   6.921   2.137   5.631  0.0246 -0.0164 -0.4949
  157DOPC  H16X18958   6.875   2.230   5.672  2.4363  1.4406 -0.9339
  157DOPC  H16Y18959   7.019   2.131   5.683 -0.7067  1.3087  1.1715
  157DOPC  C31718960   6.915   2.167   5.481 -0.4605  0.0507 -0.0616
  157DOPC  H17X18961   6.998   2.235   5.455 -1.3693  0.5536 -1.8095
  157DOPC  H17Y18962   6.934   2.074   5.423 -0.0418  1.3354 -2.0540
  157DOPC  C31818963   6.785   2.239   5.438 -0.0110  0.5096 -0.4779
  157DOPC  H18X18964   6.704   2.168   5.468 -0.7181  1.1525 -0.8379
  157DOPC  H18Y18965   6.778   2.332   5.499  1.8140  0.2804  0.1535
  157DOPC  H18Z18966   6.778   2.277   5.334 -2.5634  1.1305 -0.1618
  158DOPC     N18967   3.766   7.391   7.245 -0.1525 -0.6148 -0.6960
  158DOPC   C1218968   3.635   7.370   7.182 -0.1081  0.0591  0.1470
  158DOPC  H12A18969   3.566   7.446   7.217 -2.3384 -1.8023  0.0428
  158DOPC  H12B18970   3.603   7.273   7.216  0.2828  0.4190  1.6270
  158DOPC   C1318971   3.875   7.308   7.172 -0.0935 -0.4915  0.0458
  158DOPC  H13A18972   3.963   7.301   7.234 -0.4517  1.2629  0.8147
  158DOPC  H13B18973   3.829   7.211   7.161 -2.1694  0.4642 -0.4222
  158DOPC  H13C18974   3.912   7.353   7.081  2.0231 -0.4469  0.8736
  158DOPC   C1418975   3.772   7.345   7.392 -0.6185  0.0855  0.2595
  158DOPC  H14A18976   3.873   7.350   7.431 -1.0309  2.0374  1.2170
  158DOPC  H14B18977   3.701   7.389   7.461  1.4125 -0.4748  2.8683
  158DOPC  H14C18978   3.749   7.240   7.400  1.6883 -0.5327 -0.4567
  158DOPC   C1518979   3.804   7.535   7.244  0.0027  0.1680 -0.1011
  158DOPC  H15A18980   3.794   7.554   7.138  0.5886 -1.6910 -0.5239
  158DOPC  H15B18981   3.906   7.557   7.272  0.4542 -0.6622 -1.0383
  158DOPC  H15C18982   3.740   7.601   7.301 -1.5861  0.2647 -1.8867
  158DOPC   C1118983   3.621   7.379   7.035  0.0596 -0.3970 -0.2524
  158DOPC  H11A18984   3.696   7.315   6.983  0.9010 -0.9344  1.5135
  158DOPC  H11B18985   3.525   7.336   7.002  0.5740 -1.4154 -0.4805
  158DOPC     P18986   3.529   7.620   6.972  0.2067  0.2879  0.2376
  158DOPC   O1318987   3.584   7.754   6.937  0.3617  0.0443  0.1903
  158DOPC   O1418988   3.446   7.628   7.092 -0.2351  1.2305  0.2604
  158DOPC   O1218989   3.645   7.516   6.993  0.3402  0.5696  0.5810
  158DOPC   O1118990   3.443   7.550   6.853  0.0825  0.4145  0.0301
  158DOPC    C118991   3.488   7.515   6.723  0.4023  0.4203  0.6328
  158DOPC    HA18992   3.426   7.435   6.677  2.5742  0.8372 -3.4914
  158DOPC    HB18993   3.587   7.464   6.726 -0.2707 -1.1761 -1.5585
  158DOPC    C218994   3.479   7.633   6.621 -0.2519 -0.3328 -0.3854
  158DOPC    HS18995   3.516   7.722   6.677 -0.3389  1.0517 -2.3990
  158DOPC   O2118996   3.336   7.652   6.605 -0.5895 -0.3587  0.6534
  158DOPC   C2118997   3.298   7.781   6.595  0.0829 -0.2821  0.6063
  158DOPC   O2218998   3.365   7.882   6.603 -0.8138 -0.2098  0.9519
  158DOPC   C2218999   3.153   7.781   6.559 -0.1128 -0.2106 -0.7718
  158DOPC   H2R19000   3.125   7.885   6.530 -1.9917 -0.2917  0.5650
  158DOPC   H2S19001   3.094   7.752   6.648  1.0335 -2.0883 -0.5586
  158DOPC    C319002   3.555   7.606   6.490  0.6222 -0.2465  0.1835
  158DOPC    HX19003   3.504   7.517   6.448  0.9627 -0.2851 -0.1538
  158DOPC    HY19004   3.657   7.570   6.512  1.7462  1.9334 -1.1207
  158DOPC   O3119005   3.557   7.720   6.398 -0.1088 -1.2319  0.1313
  158DOPC   C3119006   3.644   7.817   6.408  0.0794  0.5120  0.0454
  158DOPC   O3219007   3.734   7.821   6.486 -0.3941 -0.6707 -0.2722
  158DOPC   C3219008   3.617   7.902   6.282 -0.3672  0.0773  0.2122
  158DOPC   H2X19009   3.658   7.861   6.187 -0.8510 -3.6272  1.4444
  158DOPC   H2Y19010   3.507   7.910   6.268 -0.3603  0.8851  0.5538
  158DOPC   C2319011   3.115   7.682   6.445 -0.2718 -0.7164 -0.4586
  158DOPC   H3R19012   3.095   7.579   6.483 -2.1566 -0.9870 -2.0017
  158DOPC   H3S19013   3.199   7.673   6.374  0.8229  0.7967  0.5903
  158DOPC   C2419014   2.991   7.708   6.361 -0.7078 -0.2055 -0.5252
  158DOPC   H4R19015   2.904   7.703   6.430 -2.0316  3.4587 -1.7263
  158DOPC   H4S19016   2.978   7.624   6.289 -1.9193  0.4572 -1.1058
  158DOPC   C2519017   2.996   7.842   6.281 -0.3003  0.2100 -0.8167
  158DOPC   H5R19018   2.983   7.931   6.345  0.2453  0.1101 -0.5662
  158DOPC   H5S19019   2.905   7.830   6.216 -0.8258  0.2676 -0.1011
  158DOPC   C2619020   3.116   7.873   6.194  0.2537  0.4216 -0.1920
  158DOPC   H6R19021   3.111   7.812   6.101  0.3446  0.4530 -0.2183
  158DOPC   H6S19022   3.211   7.840   6.242  1.1645  1.2581 -1.3555
  158DOPC   C2719023   3.131   8.025   6.162 -0.0827 -0.4845  0.2171
  158DOPC   H7R19024   3.204   8.025   6.078 -0.8614  1.8709 -0.5520
  158DOPC   H7S19025   3.167   8.077   6.253  0.4870 -0.4508 -0.0218
  158DOPC   C2819026   3.011   8.094   6.093 -0.0168  0.1116 -0.6940
  158DOPC   H8R19027   3.041   8.191   6.049  1.4712 -0.3424 -0.7499
  158DOPC   H8S19028   2.938   8.103   6.176  0.9082 -1.5324  0.3706
  158DOPC   C2919029   2.945   8.022   5.981 -0.0088  0.5326 -0.0134
  158DOPC   H9R19030   2.869   7.951   6.015  1.4698 -0.5243  1.1990
  158DOPC  C21019031   2.957   8.031   5.847 -0.0586  0.3641  0.2399
  158DOPC  H10R19032   2.893   7.974   5.778  0.1389  0.6490 -0.1840
  158DOPC  C21119033   3.050   8.115   5.765 -0.4045  0.0014 -0.0636
  158DOPC  H11R19034   3.154   8.077   5.761 -0.1191  0.8219 -1.0640
  158DOPC  H11S19035   3.068   8.218   5.803 -1.8718 -0.1879  1.2518
  158DOPC  C21219036   3.027   8.118   5.612  0.5548 -0.5088 -0.9131
  158DOPC  H12R19037   2.928   8.165   5.594 -0.3526 -1.9206  0.1797
  158DOPC  H12S19038   3.029   8.013   5.576  0.8410 -0.7645 -0.1666
  158DOPC  C21319039   3.132   8.204   5.542 -0.4208  0.5544  0.9053
  158DOPC  H13R19040   3.239   8.175   5.555 -0.7917 -1.5629 -0.4246
  158DOPC  H13S19041   3.120   8.302   5.594 -3.6199  0.9989 -0.4520
  158DOPC  C21419042   3.093   8.211   5.396 -0.4317 -0.1146 -0.2760
  158DOPC  H14R19043   2.986   8.240   5.385  0.0781  1.9005 -0.3587
  158DOPC  H14S19044   3.106   8.115   5.342  0.5475  0.5814 -1.3339
  158DOPC  C21519045   3.172   8.317   5.322  0.3801  0.9550 -0.1472
  158DOPC  H15R19046   3.177   8.305   5.212  0.7051 -1.7081  0.0968
  158DOPC  H15S19047   3.276   8.314   5.360  0.0044  1.1649  0.9340
  158DOPC  C21619048   3.108   8.455   5.348 -0.9789 -0.2015  0.4326
  158DOPC  H16R19049   3.090   8.476   5.455 -1.7937 -1.7432  0.6237
  158DOPC  H16S19050   3.005   8.469   5.308 -0.6884  0.7513 -0.0119
  158DOPC  C21719051   3.210   8.565   5.306 -0.3259 -0.5351 -0.8330
  158DOPC  H17R19052   3.237   8.529   5.204 -0.3867  0.1240 -1.0900
  158DOPC  H17S19053   3.294   8.560   5.378  0.0916 -1.2807 -1.3615
  158DOPC  C21819054   3.141   8.710   5.304 -0.5364 -0.2954 -0.1144
  158DOPC  H18R19055   3.077   8.714   5.213 -0.7320 -0.8382 -0.0020
  158DOPC  H18S19056   3.221   8.787   5.304 -2.2930  1.6287  1.6047
  158DOPC  H18T19057   3.090   8.726   5.401 -0.6321  0.1926 -0.2445
  158DOPC   C3319058   3.673   8.041   6.310 -0.1899 -0.3816  0.2795
  158DOPC   H3X19059   3.779   8.035   6.278 -0.9008  1.2572 -2.8268
  158DOPC   H3Y19060   3.660   8.070   6.417  0.8559 -1.3698  0.6915
  158DOPC   C3419061   3.602   8.156   6.234 -0.0019  0.0380  0.1036
  158DOPC   H4X19062   3.627   8.150   6.125 -2.5131 -0.9220 -0.4854
  158DOPC   H4Y19063   3.655   8.251   6.260 -0.4236  0.8231 -1.7262
  158DOPC   C3519064   3.457   8.185   6.254  0.0534 -0.0198  0.0761
  158DOPC   H5X19065   3.442   8.169   6.363 -1.3559 -2.1351 -0.3439
  158DOPC   H5Y19066   3.398   8.106   6.202 -0.6230 -0.5036  1.5031
  158DOPC   C3619067   3.419   8.328   6.218  0.0506  0.1481  0.3791
  158DOPC   H6X19068   3.312   8.336   6.248  0.0894 -0.1131  0.5932
  158DOPC   H6Y19069   3.479   8.400   6.276  1.9086 -0.0985 -1.1391
  158DOPC   C3719070   3.423   8.357   6.072 -0.1098 -0.5012  0.1290
  158DOPC   H7X19071   3.515   8.327   6.018  0.0321 -0.5029  0.3668
  158DOPC   H7Y19072   3.350   8.285   6.030 -1.7647  2.3979 -2.3509
  158DOPC   C3819073   3.388   8.505   6.038  0.0551  0.4378  0.0399
  158DOPC   H8X19074   3.466   8.573   6.078 -1.3432  2.4947 -0.5309
  158DOPC   H8Y19075   3.294   8.526   6.094 -0.3065 -0.3152 -0.2765
  158DOPC   C3919076   3.381   8.512   5.885 -0.4689  1.1779 -0.5385
  158DOPC   H9X19077   3.367   8.414   5.837  0.0676  0.7814  0.0893
  158DOPC  C31019078   3.361   8.624   5.816  0.2220 -0.0832 -0.0628
  158DOPC  H10X19079   3.352   8.625   5.707  3.3258 -0.4488 -0.4290
  158DOPC  C31119080   3.359   8.765   5.879 -0.5474 -0.4179 -0.0097
  158DOPC  H11X19081   3.395   8.755   5.983  1.6061  2.9391 -0.3000
  158DOPC  H11Y19082   3.257   8.809   5.882 -0.1497  0.4927  0.3756
  158DOPC  C31219083   3.451   8.864   5.810 -1.3403 -0.6994 -0.3651
  158DOPC  H12X19084   3.554   8.822   5.820 -1.2967 -0.5603 -0.2331
  158DOPC  H12Y19085   3.438   8.960   5.864 -2.5034 -2.0915  2.0153
  158DOPC  C31319086   3.408   8.904   5.659 -0.0429  0.1562  0.3912
  158DOPC  H13X19087   3.437   8.818   5.594  1.5458 -0.1159  1.4027
  158DOPC  H13Y19088   3.298   8.917   5.654  0.0006  0.1405 -1.8963
  158DOPC  C31419089   3.466   9.031   5.592  0.5056  0.9027 -0.1291
  158DOPC  H14X19090   3.410   9.058   5.500 -0.3852 -0.9830 -0.1867
  158DOPC  H14Y19091   3.450   9.114   5.665 -3.5115 -1.0013  1.4663
  158DOPC  C31519092   3.610   9.011   5.555 -0.5307  0.1853 -0.2045
  158DOPC  H15X19093   3.612   8.918   5.494  0.3308 -0.3704  0.6458
  158DOPC  H15Y19094   3.668   8.979   5.644  1.3211  2.0378 -0.6696
  158DOPC  C31619095   3.675   9.133   5.505  0.2172 -0.7359 -0.2978
  158DOPC  H16X19096   3.608   9.174   5.427  0.0496  1.5970  1.0047
  158DOPC  H16Y19097   3.691   9.196   5.595  2.9523 -1.9472  0.1797
  158DOPC  C31719098   3.813   9.124   5.448 -0.5003  0.6753 -0.2651
  158DOPC  H17X19099   3.884   9.072   5.516  0.1367  0.6588 -0.9306
  158DOPC  H17Y19100   3.809   9.074   5.349  0.0111 -1.2723  0.6698
  158DOPC  C31819101   3.881   9.260   5.417 -0.5307  0.2478  0.4425
  158DOPC  H18X19102   3.857   9.300   5.317  0.9701  1.0653  0.3825
  158DOPC  H18Y19103   3.852   9.340   5.489  0.6594  0.9077  0.2109
  158DOPC  H18Z19104   3.990   9.243   5.432 -0.8138 -1.0409  1.1821
  159DOPC     N19105   7.239   1.037   7.115 -0.1659  0.4180  0.4894
  159DOPC   C1219106   7.344   1.042   7.003  0.2285 -1.2473 -0.0893
  159DOPC  H12A19107   7.422   0.970   7.018  1.3625  0.1661  1.1738
  159DOPC  H12B19108   7.396   1.137   7.001  1.3718 -1.8746 -0.5431
  159DOPC   C1319109   7.123   1.126   7.095 -0.0591  0.2080  0.7373
  159DOPC  H13A19110   7.149   1.229   7.074 -0.1922  0.2469  0.7609
  159DOPC  H13B19111   7.060   1.088   7.016 -2.8496  1.6389  2.1227
  159DOPC  H13C19112   7.068   1.135   7.188  0.7977  1.0320  1.1860
  159DOPC   C1419113   7.305   1.078   7.242 -0.0223  0.2756 -0.4748
  159DOPC  H14A19114   7.387   1.013   7.269 -0.8777  0.1614  2.1361
  159DOPC  H14B19115   7.347   1.177   7.238  0.5240  0.0801  0.3212
  159DOPC  H14C19116   7.238   1.074   7.326 -1.2850  0.1379 -1.4514
  159DOPC   C1519117   7.200   0.890   7.128  0.0133  0.0861 -0.4365
  159DOPC  H15A19118   7.281   0.829   7.165  0.8926  1.6065  0.2422
  159DOPC  H15B19119   7.168   0.847   7.034 -0.8049  1.4226 -0.8022
  159DOPC  H15C19120   7.130   0.894   7.210  0.7748  3.9171  0.2392
  159DOPC   C1119121   7.298   1.024   6.856 -0.2126  0.3808 -0.1587
  159DOPC  H11A19122   7.392   1.000   6.802  1.5229  0.0560  2.7955
  159DOPC  H11B19123   7.237   0.931   6.849  0.4467 -0.0307 -0.5833
  159DOPC     P19124   7.315   1.268   6.765  0.1943  0.1877 -0.0136
  159DOPC   O1319125   7.375   1.317   6.893  0.2713  0.2557  0.2386
  159DOPC   O1419126   7.242   1.375   6.689 -0.0799  0.4209  0.1774
  159DOPC   O1219127   7.229   1.136   6.801 -0.1346  0.4555  0.2392
  159DOPC   O1119128   7.429   1.211   6.673 -0.8558  0.3666  0.3438
  159DOPC    C119129   7.398   1.144   6.550  0.0105  0.2157 -0.5077
  159DOPC    HA19130   7.300   1.093   6.548  0.4334 -0.6069 -2.2911
  159DOPC    HB19131   7.468   1.059   6.530  3.2433  2.4829  0.2971
  159DOPC    C219132   7.399   1.242   6.422  0.2654  0.1752  0.4139
  159DOPC    HS19133   7.327   1.322   6.448  0.4686  0.9062 -1.2215
  159DOPC   O2119134   7.361   1.170   6.298 -0.0342 -0.3448  0.0009
  159DOPC   C2119135   7.230   1.172   6.279 -0.0919 -0.0076  0.0234
  159DOPC   O2219136   7.146   1.210   6.354 -0.5097  0.0907 -0.1314
  159DOPC   C2219137   7.192   1.126   6.139 -0.0084 -0.0616  0.0907
  159DOPC   H2R19138   7.086   1.094   6.151  0.1592 -0.4880  0.4458
  159DOPC   H2S19139   7.260   1.043   6.113  0.0074  0.5209 -1.8715
  159DOPC    C319140   7.543   1.304   6.420 -0.0428  0.0565  0.2482
  159DOPC    HX19141   7.615   1.220   6.422  1.0478  0.9512 -0.6428
  159DOPC    HY19142   7.550   1.364   6.513 -0.5501  1.3972 -0.5586
  159DOPC   O3119143   7.566   1.379   6.298 -0.4780 -0.0208 -0.3847
  159DOPC   C3119144   7.501   1.494   6.291  0.5790  0.8535 -0.0620
  159DOPC   O3219145   7.424   1.536   6.372  0.2157 -0.7160  0.0687
  159DOPC   C3219146   7.535   1.552   6.158 -0.7135 -0.0800  0.6865
  159DOPC   H2X19147   7.616   1.629   6.160 -1.0597  0.2619  1.6723
  159DOPC   H2Y19148   7.576   1.470   6.096 -0.1657  0.7411 -0.0761
  159DOPC   C2319149   7.216   1.236   6.027  0.3290  0.2433 -0.5919
  159DOPC   H3R19150   7.314   1.283   6.049 -0.9265  2.0841  1.4525
  159DOPC   H3S19151   7.132   1.307   6.038 -1.3703 -1.4642 -1.9626
  159DOPC   C2419152   7.219   1.190   5.878 -0.5597 -0.1322  0.6613
  159DOPC   H4R19153   7.135   1.119   5.860 -1.8423  0.9419  2.1555
  159DOPC   H4S19154   7.306   1.123   5.863 -0.5428 -0.2309  1.2004
  159DOPC   C2519155   7.211   1.303   5.779  0.8401  0.0584 -0.5495
  159DOPC   H5R19156   7.313   1.347   5.786  1.4875 -1.4969  0.3019
  159DOPC   H5S19157   7.138   1.383   5.807  1.0638  0.7185 -1.7723
  159DOPC   C2619158   7.157   1.256   5.640  1.0781  0.0369 -0.5490
  159DOPC   H6R19159   7.052   1.223   5.630  1.1381 -0.0884 -0.7744
  159DOPC   H6S19160   7.214   1.162   5.625  1.9762  0.8750 -2.8208
  159DOPC   C2719161   7.186   1.363   5.530 -0.4648 -0.5338  1.1679
  159DOPC   H7R19162   7.296   1.375   5.545 -0.3761 -0.3146  0.3922
  159DOPC   H7S19163   7.123   1.454   5.539  0.2939  0.3070 -1.2412
  159DOPC   C2819164   7.157   1.305   5.391  0.1880 -0.0596 -0.4349
  159DOPC   H8R19165   7.053   1.267   5.398 -0.7424  2.4742  0.7164
  159DOPC   H8S19166   7.225   1.218   5.373 -0.3551 -0.5244 -0.2857
  159DOPC   C2919167   7.170   1.407   5.283  0.1098  0.3505 -0.7146
  159DOPC   H9R19168   7.081   1.470   5.293 -1.1879 -1.2763 -1.4749
  159DOPC  C21019169   7.266   1.429   5.190  0.0195  0.1013 -0.4975
  159DOPC  H10R19170   7.254   1.494   5.102  1.1183  3.2498  1.5052
  159DOPC  C21119171   7.387   1.339   5.167 -0.0141  0.3152 -0.4562
  159DOPC  H11R19172   7.366   1.234   5.198  0.7131  0.8186  1.9177
  159DOPC  H11S19173   7.468   1.380   5.230  0.4666  0.2357 -1.0197
  159DOPC  C21219174   7.420   1.345   5.020  0.9129  0.8546  0.7480
  159DOPC  H12R19175   7.513   1.289   4.998 -0.0787 -0.7659  0.4473
  159DOPC  H12S19176   7.432   1.449   4.981  1.6820  0.2067 -0.8487
  159DOPC  C21319177   7.307   1.291   4.933  0.2526  0.0410 -1.0187
  159DOPC  H13R19178   7.226   1.367   4.933 -2.2010 -2.4309  0.3964
  159DOPC  H13S19179   7.251   1.205   4.975 -0.0467 -0.3294 -2.1481
  159DOPC  C21419180   7.341   1.244   4.796 -0.8578  0.0080  0.2826
  159DOPC  H14R19181   7.400   1.152   4.818 -0.6741  0.4069  1.5887
  159DOPC  H14S19182   7.406   1.314   4.739 -1.1819  1.0645  1.1725
  159DOPC  C21519183   7.212   1.218   4.723 -0.1764  0.8453  0.7219
  159DOPC  H15R19184   7.150   1.309   4.708  0.5976  1.0656 -1.7344
  159DOPC  H15S19185   7.157   1.140   4.779  1.2783  0.4120  1.5901
  159DOPC  C21619186   7.249   1.165   4.581 -0.1826 -0.1013 -0.6768
  159DOPC  H16R19187   7.325   1.085   4.596 -0.4666 -0.8175 -2.8157
  159DOPC  H16S19188   7.286   1.257   4.531  0.0011  0.1669 -0.0616
  159DOPC  C21719189   7.128   1.108   4.510  0.1457 -0.1788 -0.0788
  159DOPC  H17R19190   7.046   1.182   4.504  0.8323  0.5911 -0.1847
  159DOPC  H17S19191   7.092   1.018   4.565  2.1965 -1.3479 -0.5139
  159DOPC  C21819192   7.161   1.073   4.363  0.5882 -0.0407  0.4983
  159DOPC  H18R19193   7.257   1.017   4.365  0.2350 -0.6492  1.0486
  159DOPC  H18S19194   7.169   1.161   4.295  0.9067  0.3820  1.0769
  159DOPC  H18T19195   7.091   1.001   4.314  0.5942  1.4083 -1.8292
  159DOPC   C3319196   7.407   1.613   6.099  0.1697 -0.5620 -0.9227
  159DOPC   H3X19197   7.373   1.696   6.165  2.3653 -0.0542 -0.3441
  159DOPC   H3Y19198   7.323   1.541   6.100  1.7444 -2.4946 -1.9520
  159DOPC   C3419199   7.431   1.664   5.960 -0.0606  0.0731  0.5499
  159DOPC   H4X19200   7.503   1.598   5.907  1.2189  2.2632 -0.5807
  159DOPC   H4Y19201   7.478   1.763   5.975 -1.9778  1.3211 -1.1568
  159DOPC   C3519202   7.308   1.673   5.873 -0.4158 -0.5528 -0.1716
  159DOPC   H5X19203   7.260   1.773   5.882 -1.4437 -1.0628  0.1654
  159DOPC   H5Y19204   7.226   1.605   5.902 -1.0121  0.1376 -0.1960
  159DOPC   C3619205   7.330   1.645   5.717  0.1797  0.1600  0.4374
  159DOPC   H6X19206   7.389   1.552   5.704  0.2552  0.1229  1.0385
  159DOPC   H6Y19207   7.231   1.626   5.670  1.0122 -1.8137 -0.6362
  159DOPC   C3719208   7.407   1.761   5.646  0.3844 -0.5569  0.1001
  159DOPC   H7X19209   7.343   1.849   5.669  1.0686 -0.6429  2.6119
  159DOPC   H7Y19210   7.511   1.780   5.680  1.1184 -0.5684 -1.9853
  159DOPC   C3819211   7.429   1.742   5.495 -0.2331  0.1656  0.5379
  159DOPC   H8X19212   7.332   1.720   5.446 -0.6994  2.8439  0.1115
  159DOPC   H8Y19213   7.495   1.653   5.484 -1.0960 -0.7005  2.0133
  159DOPC   C3919214   7.497   1.864   5.437 -0.0080 -0.1323  0.2085
  159DOPC   H9X19215   7.439   1.955   5.417  1.4314  0.6840 -0.3641
  159DOPC  C31019216   7.623   1.866   5.400  0.6173 -0.3671  0.0046
  159DOPC  H10X19217   7.661   1.948   5.338 -0.2517  0.6077  0.7276
  159DOPC  C31119218   7.717   1.753   5.416  0.0880  0.1890  1.0853
  159DOPC  H11X19219   7.807   1.763   5.352 -0.6794 -0.4818 -0.1416
  159DOPC  H11Y19220   7.664   1.665   5.373  2.4643  0.1235 -2.0821
  159DOPC  C31219221   7.770   1.730   5.560 -0.2654 -0.8917  0.2930
  159DOPC  H12X19222   7.696   1.680   5.625 -4.2125  1.1395 -2.2860
  159DOPC  H12Y19223   7.782   1.834   5.597 -0.3740 -0.5137 -0.7170
  159DOPC  C31319224   7.910   1.666   5.559 -0.7396  0.0575 -0.4296
  159DOPC  H13X19225   7.920   1.570   5.504  1.3768 -1.4803  2.3705
  159DOPC  H13Y19226   7.977   1.737   5.507  1.2974 -1.8704 -0.5671
  159DOPC  C31419227   7.977   1.634   5.695  0.2619  0.0190  0.5816
  159DOPC  H14X19228   7.916   1.559   5.750  1.8209 -1.4417  0.4019
  159DOPC  H14Y19229   8.069   1.585   5.657 -1.4843 -1.8661 -1.5458
  159DOPC  C31519230   8.013   1.761   5.774  0.0968  0.4892 -0.1057
  159DOPC  H15X19231   7.927   1.831   5.768 -0.4458 -0.1384  0.2735
  159DOPC  H15Y19232   8.092   1.811   5.713  1.6092 -0.1910  1.2327
  159DOPC  C31619233   8.070   1.734   5.906 -0.1830 -0.1489 -0.6381
  159DOPC  H16X19234   8.155   1.663   5.898  1.2790  1.1573  2.1301
  159DOPC  H16Y19235   8.115   1.830   5.940 -0.6238  0.6597 -2.1952
  159DOPC  C31719236   7.968   1.677   6.006  0.3988 -0.3106  0.1793
  159DOPC  H17X19237   7.930   1.581   5.965 -3.7466  1.5141 -0.6706
  159DOPC  H17Y19238   8.026   1.649   6.097  2.8226 -1.6401 -1.6271
  159DOPC  C31819239   7.852   1.763   6.047  0.5718  0.1804  0.6637
  159DOPC  H18X19240   7.781   1.789   5.966 -0.4388 -1.1419  1.0886
  159DOPC  H18Y19241   7.783   1.721   6.123 -1.1249 -1.8818 -1.8839
  159DOPC  H18Z19242   7.903   1.858   6.073  2.0752 -0.0292 -1.3225
  160DOPC     N19243   1.820   6.347   7.101  0.3247  0.2097 -0.3097
  160DOPC   C1219244   1.742   6.422   6.991 -0.0774 -0.0482 -0.2361
  160DOPC  H12A19245   1.645   6.375   6.981 -0.4591  0.6551  0.0820
  160DOPC  H12B19246   1.778   6.403   6.891  0.2529 -0.2790 -0.0748
  160DOPC   C1319247   1.941   6.422   7.140 -0.2271 -0.5382 -0.1143
  160DOPC  H13A19248   1.999   6.441   7.051 -0.3161  0.0760 -0.0478
  160DOPC  H13B19249   1.922   6.524   7.171  0.2149 -0.2402 -0.7988
  160DOPC  H13C19250   1.995   6.366   7.216 -0.7688  1.1658  1.6180
  160DOPC   C1419251   1.865   6.218   7.050  0.1926  0.3033 -0.4669
  160DOPC  H14A19252   1.911   6.232   6.953  2.0369 -0.9632  0.1950
  160DOPC  H14B19253   1.935   6.177   7.120 -1.8025 -0.0065  1.4413
  160DOPC  H14C19254   1.785   6.148   7.033 -1.0390  1.0418  1.8379
  160DOPC   C1519255   1.737   6.323   7.226  0.3872 -0.2202 -0.2809
  160DOPC  H15A19256   1.722   6.419   7.274 -1.5813 -0.7569  0.2982
  160DOPC  H15B19257   1.789   6.263   7.300 -0.2196 -1.4024 -0.7905
  160DOPC  H15C19258   1.644   6.272   7.206  0.8601 -1.2216  0.0490
  160DOPC   C1119259   1.720   6.573   7.004  0.0170 -0.3434 -0.1504
  160DOPC  H11A19260   1.629   6.612   6.955 -0.9830  0.0258  1.9019
  160DOPC  H11B19261   1.718   6.595   7.113  1.6176 -2.1148  0.3049
  160DOPC     P19262   1.829   6.783   6.900  0.2789 -0.2961  0.2731
  160DOPC   O1319263   1.967   6.836   6.894  0.3138  0.6092  0.0854
  160DOPC   O1419264   1.723   6.845   6.978  0.9862  0.6077  0.1292
  160DOPC   O1219265   1.833   6.636   6.943 -0.0440  0.9994 -0.3036
  160DOPC   O1119266   1.766   6.773   6.754 -0.3005 -0.3546  0.2251
  160DOPC    C119267   1.815   6.668   6.672  0.9360 -0.5770  0.3492
  160DOPC    HA19268   1.805   6.566   6.717  0.4141 -0.2978  0.8749
  160DOPC    HB19269   1.924   6.685   6.659  0.7579  0.9084  0.6491
  160DOPC    C219270   1.754   6.676   6.528  0.4215 -0.1374 -0.5350
  160DOPC    HS19271   1.647   6.645   6.532 -0.7798  3.6399  2.3763
  160DOPC   O2119272   1.829   6.588   6.451  0.4919 -0.3267  0.5654
  160DOPC   C2119273   1.761   6.531   6.348  0.1476 -0.3002  0.0499
  160DOPC   O2219274   1.646   6.558   6.316 -0.2162  0.9465 -0.2345
  160DOPC   C2219275   1.848   6.423   6.286  0.8823  0.7161 -0.1193
  160DOPC   H2R19276   1.784   6.371   6.211  0.0169 -1.4857  2.0038
  160DOPC   H2S19277   1.858   6.352   6.371  0.1644  3.6240  2.5736
  160DOPC    C319278   1.767   6.821   6.486  0.0341  0.6242 -0.5108
  160DOPC    HX19279   1.877   6.842   6.483  0.5658 -1.6768  0.8071
  160DOPC    HY19280   1.726   6.893   6.560  0.7891 -0.8878  1.4747
  160DOPC   O3119281   1.712   6.837   6.350 -0.4050 -0.3522  0.0129
  160DOPC   C3119282   1.591   6.881   6.334  0.6449  0.1712 -0.0739
  160DOPC   O3219283   1.522   6.927   6.421 -0.1153  0.0388 -0.7886
  160DOPC   C3219284   1.547   6.875   6.189 -1.2875 -0.1739 -0.2374
  160DOPC   H2X19285   1.631   6.842   6.124  0.9439  0.6299  2.0718
  160DOPC   H2Y19286   1.463   6.802   6.184 -2.1649  0.6953  1.2430
  160DOPC   C2319287   1.987   6.470   6.240  0.1596  0.3362  0.5433
  160DOPC   H3R19288   2.050   6.381   6.217  1.4043  0.9738  1.3894
  160DOPC   H3S19289   2.047   6.525   6.316 -0.7037  0.6639  0.9925
  160DOPC   C2419290   1.984   6.545   6.109  0.5740  0.3134  0.1826
  160DOPC   H4R19291   1.947   6.487   6.021  0.6921  1.0056 -0.3363
  160DOPC   H4S19292   2.081   6.572   6.063 -0.0168 -2.8122 -3.4280
  160DOPC   C2519293   1.904   6.669   6.114  0.0667 -0.4089  0.1629
  160DOPC   H5R19294   1.940   6.731   6.199 -2.9347 -1.4125  2.3348
  160DOPC   H5S19295   1.797   6.647   6.133 -0.3979  1.1573 -0.4341
  160DOPC   C2619296   1.911   6.753   5.990 -0.1080  0.5030 -0.0951
  160DOPC   H6R19297   1.832   6.832   5.998  0.7668  1.3730  0.1132
  160DOPC   H6S19298   1.888   6.682   5.907 -2.5532 -0.4269  1.2683
  160DOPC   C2719299   2.048   6.816   5.959  0.3137  0.8237 -0.2317
  160DOPC   H7R19300   2.122   6.733   5.962  0.5952  1.0333 -1.2433
  160DOPC   H7S19301   2.080   6.893   6.032  1.3248  1.5378 -1.4008
  160DOPC   C2819302   2.039   6.889   5.822  0.8348 -0.6093  0.0305
  160DOPC   H8R19303   2.135   6.945   5.827 -0.4964  1.8309 -0.4695
  160DOPC   H8S19304   1.952   6.957   5.833  1.1103 -0.4975  1.7601
  160DOPC   C2919305   2.038   6.807   5.693 -0.6186  0.2171  0.1602
  160DOPC   H9R19306   2.127   6.745   5.674 -0.9187 -0.3960  0.7160
  160DOPC  C21019307   1.938   6.804   5.602  0.7296 -0.3076  0.0253
  160DOPC  H10R19308   1.938   6.731   5.520 -0.7866 -0.0406 -0.2609
  160DOPC  C21119309   1.811   6.880   5.619 -0.3825  0.0381 -0.2221
  160DOPC  H11R19310   1.829   6.976   5.672  1.1552 -0.5196  0.3151
  160DOPC  H11S19311   1.733   6.815   5.665  0.4740 -2.2494 -1.8095
  160DOPC  C21219312   1.753   6.906   5.482 -0.6180 -0.6788 -0.4167
  160DOPC  H12R19313   1.659   6.965   5.488 -0.7550 -0.9099 -0.2725
  160DOPC  H12S19314   1.728   6.809   5.436 -0.4473 -1.2222  0.6006
  160DOPC  C21319315   1.844   6.995   5.390 -0.5430 -0.2297  0.6764
  160DOPC  H13R19316   1.953   6.982   5.408 -0.4979 -0.5250  0.2034
  160DOPC  H13S19317   1.818   7.098   5.423 -0.9252 -0.3018  0.6058
  160DOPC  C21419318   1.814   6.993   5.240  0.1700 -0.5524  0.9422
  160DOPC  H14R19319   1.708   7.022   5.222  0.5252 -0.9636 -2.6517
  160DOPC  H14S19320   1.834   6.900   5.184  2.7022  0.8091 -0.5904
  160DOPC  C21519321   1.893   7.110   5.171  0.6334  0.0381  0.1119
  160DOPC  H15R19322   2.001   7.093   5.150  0.0923 -1.8084 -1.3505
  160DOPC  H15S19323   1.889   7.191   5.247 -1.6464 -0.9103  1.0893
  160DOPC  C21619324   1.833   7.149   5.035 -0.5358 -0.3597  0.3625
  160DOPC  H16R19325   1.889   7.229   4.981 -1.4941 -0.9413 -1.5554
  160DOPC  H16S19326   1.732   7.186   5.064 -0.0149  0.0929  1.6903
  160DOPC  C21719327   1.826   7.028   4.930 -0.9221 -0.2691  0.2272
  160DOPC  H17R19328   1.777   6.938   4.973  2.5699 -1.1205  2.9519
  160DOPC  H17S19329   1.932   7.004   4.907 -0.8766 -0.4910  0.6717
  160DOPC  C21819330   1.744   7.070   4.808  0.6728  0.4747  0.3100
  160DOPC  H18R19331   1.756   7.177   4.779  0.4775  1.1446  2.5095
  160DOPC  H18S19332   1.635   7.056   4.824  0.3066  1.3232 -1.2183
  160DOPC  H18T19333   1.766   7.016   4.714 -1.7138  1.6633 -1.0310
  160DOPC   C3319334   1.492   7.006   6.133  0.0813  0.3205  0.6329
  160DOPC   H3X19335   1.554   7.097   6.151  1.6903 -0.0682 -2.2529
  160DOPC   H3Y19336   1.391   7.019   6.177 -0.2486  3.8206 -0.8146
  160DOPC   C3419337   1.466   6.980   5.985  0.0423 -0.0196 -0.5972
  160DOPC   H4X19338   1.431   6.877   5.967 -1.9383  0.0379  2.2909
  160DOPC   H4Y19339   1.560   6.994   5.927  0.5493 -0.5180  0.0934
  160DOPC   C3519340   1.356   7.076   5.931 -0.5281 -0.1310 -0.2629
  160DOPC   H5X19341   1.378   7.181   5.962  0.4288 -0.1686 -0.7845
  160DOPC   H5Y19342   1.256   7.046   5.970  0.6197 -0.1600  2.9561
  160DOPC   C3619343   1.354   7.086   5.780  0.3081 -0.2993 -0.2834
  160DOPC   H6X19344   1.356   6.987   5.731  2.0353 -0.4202 -0.0266
  160DOPC   H6Y19345   1.265   7.147   5.754 -0.0093  0.3780  2.0756
  160DOPC   C3719346   1.483   7.153   5.727 -0.1936  0.0157 -0.2149
  160DOPC   H7X19347   1.486   7.257   5.767 -0.6970  0.7193 -1.9006
  160DOPC   H7Y19348   1.576   7.113   5.773 -0.1597 -1.4098 -1.4650
  160DOPC   C3819349   1.486   7.146   5.578  1.2362  0.6376 -0.1705
  160DOPC   H8X19350   1.471   7.039   5.551 -2.2909  0.5656  1.4583
  160DOPC   H8Y19351   1.583   7.171   5.529  0.2359  0.1050 -2.5733
  160DOPC   C3919352   1.376   7.232   5.517  0.1599 -0.4004 -0.3272
  160DOPC   H9X19353   1.357   7.324   5.574  1.8652 -0.4542  0.3756
  160DOPC  C31019354   1.294   7.208   5.412 -0.2312  0.6045  0.0522
  160DOPC  H10X19355   1.230   7.288   5.371 -0.9999 -0.2621 -0.4694
  160DOPC  C31119356   1.283   7.082   5.340  0.2874 -0.1761  0.7020
  160DOPC  H11X19357   1.182   7.040   5.356  0.2823  0.4546  2.5865
  160DOPC  H11Y19358   1.351   7.008   5.388 -1.1339 -1.0973  1.3509
  160DOPC  C31219359   1.306   7.089   5.188 -0.7840 -0.2452  0.5584
  160DOPC  H12X19360   1.398   7.149   5.172 -0.9938 -0.2638 -0.8466
  160DOPC  H12Y19361   1.223   7.151   5.149 -0.4766 -0.9667 -1.3612
  160DOPC  C31319362   1.312   6.952   5.117  0.5551  0.2284 -0.2395
  160DOPC  H13X19363   1.218   6.903   5.151  0.1141  2.1760  1.5970
  160DOPC  H13Y19364   1.303   6.961   5.007 -0.0699 -0.0176 -0.2141
  160DOPC  C31419365   1.432   6.869   5.158 -0.2885  0.1771  0.0937
  160DOPC  H14X19366   1.521   6.934   5.145  0.0879 -0.0353  1.4095
  160DOPC  H14Y19367   1.434   6.846   5.267  2.6610  1.0548  0.3014
  160DOPC  C31519368   1.433   6.737   5.090  0.0356  0.0837  0.7701
  160DOPC  H15X19369   1.414   6.755   4.982 -1.9117  0.2662  1.1013
  160DOPC  H15Y19370   1.345   6.682   5.132 -0.3557  0.9457  1.0924
  160DOPC  C31619371   1.561   6.655   5.123  0.1952 -0.3532 -0.9764
  160DOPC  H16X19372   1.647   6.702   5.070  0.9312  0.8389  1.1595
  160DOPC  H16Y19373   1.584   6.670   5.230 -1.3459 -0.1207 -0.6568
  160DOPC  C31719374   1.535   6.506   5.100  0.2122 -0.2714  0.7446
  160DOPC  H17X19375   1.637   6.462   5.100  0.6487  0.6682 -0.5523
  160DOPC  H17Y19376   1.475   6.461   5.182 -0.4953 -0.4502  0.1479
  160DOPC  C31819377   1.468   6.467   4.969  0.2436 -0.0890  0.2469
  160DOPC  H18X19378   1.482   6.358   4.956  0.1195 -0.1960  0.9434
  160DOPC  H18Y19379   1.363   6.500   4.957 -0.2355 -1.5904  0.1285
  160DOPC  H18Z19380   1.526   6.510   4.885  1.2984  0.5169  1.2529
  161DOPC     N19381   3.773   0.995   7.144 -0.0196 -0.2114  0.0150
  161DOPC   C1219382   3.795   0.949   6.998 -0.3009  0.1295 -0.3290
  161DOPC  H12A19383   3.880   0.883   7.007 -0.0654  0.5823  1.0088
  161DOPC  H12B19384   3.816   1.041   6.945 -1.8640 -0.2723 -1.7269
  161DOPC   C1319385   3.775   0.878   7.240 -0.7332 -0.4594  0.1140
  161DOPC  H13A19386   3.706   0.806   7.198 -2.0006  1.8574 -2.0550
  161DOPC  H13B19387   3.870   0.828   7.249  1.2997  2.1173 -3.7738
  161DOPC  H13C19388   3.757   0.896   7.345  1.5815 -2.0405  0.8486
  161DOPC   C1419389   3.641   1.063   7.153 -0.1474 -0.1357  0.2487
  161DOPC  H14A19390   3.553   1.001   7.151  0.3763 -0.8741 -0.2060
  161DOPC  H14B19391   3.648   1.114   7.248  2.4578 -0.6215  0.3772
  161DOPC  H14C19392   3.630   1.128   7.067  0.2900 -0.4534 -0.0488
  161DOPC   C1519393   3.891   1.087   7.177  0.5957 -0.5033  0.0621
  161DOPC  H15A19394   3.910   1.163   7.102 -0.9870 -0.6574 -0.5320
  161DOPC  H15B19395   3.980   1.025   7.173  1.1265  0.2964 -1.5492
  161DOPC  H15C19396   3.873   1.129   7.275 -1.0537 -0.4076 -0.2574
  161DOPC   C1119397   3.681   0.880   6.932 -0.5291  0.0702  0.5149
  161DOPC  H11A19398   3.588   0.941   6.935 -0.3961  0.5839 -2.5980
  161DOPC  H11B19399   3.703   0.862   6.825 -1.4499  0.6703  0.2084
  161DOPC     P19400   3.528   0.687   7.026  0.2227 -0.0890  0.2835
  161DOPC   O1319401   3.447   0.790   7.094 -0.5946  0.0469 -0.0193
  161DOPC   O1419402   3.551   0.558   7.098  0.3199  0.0686  0.6147
  161DOPC   O1219403   3.668   0.748   6.993  0.0732 -0.0326 -0.6504
  161DOPC   O1119404   3.463   0.662   6.888 -0.4663 -0.4248 -0.3366
  161DOPC    C119405   3.523   0.588   6.778  0.3652 -0.0015 -0.5279
  161DOPC    HA19406   3.522   0.478   6.793  1.5332  0.0265 -0.1942
  161DOPC    HB19407   3.624   0.623   6.750 -0.9668  2.8739 -2.2944
  161DOPC    C219408   3.426   0.617   6.658 -0.8145 -0.0534  0.0665
  161DOPC    HS19409   3.456   0.559   6.568  1.0372  2.1539 -0.8531
  161DOPC   O2119410   3.427   0.756   6.637  0.1270 -0.0248  0.2474
  161DOPC   C2119411   3.537   0.800   6.570 -0.0975  0.1315 -0.3715
  161DOPC   O2219412   3.621   0.727   6.518 -0.1779  0.0575 -0.4089
  161DOPC   C2219413   3.516   0.953   6.570  0.4104 -0.8269 -1.3264
  161DOPC   H2R19414   3.558   0.993   6.665 -0.2560 -0.0000 -1.3756
  161DOPC   H2S19415   3.408   0.977   6.569  0.5041 -0.2194  0.2683
  161DOPC    C319416   3.278   0.580   6.684 -0.8290 -0.1645 -0.5807
  161DOPC    HX19417   3.242   0.645   6.767  0.7463 -1.0525  0.8465
  161DOPC    HY19418   3.281   0.480   6.731  0.9490  0.2021  0.1761
  161DOPC   O3119419   3.198   0.580   6.558 -0.3801  0.7505  0.5574
  161DOPC   C3119420   3.111   0.674   6.544  0.1707  0.1935  0.6494
  161DOPC   O3219421   3.090   0.763   6.622  0.1369 -0.2426  0.4167
  161DOPC   C3219422   3.037   0.655   6.411  0.4261  0.2310 -0.6673
  161DOPC   H2X19423   3.111   0.648   6.328  3.2633 -0.0999  1.7029
  161DOPC   H2Y19424   2.986   0.557   6.414 -0.8207  0.8829  1.2461
  161DOPC   C2319425   3.583   1.032   6.464  0.0981 -0.5531  0.4287
  161DOPC   H3R19426   3.536   1.000   6.368 -1.9130  0.2327  1.1088
  161DOPC   H3S19427   3.692   1.007   6.460  0.0369 -0.6794 -1.2974
  161DOPC   C2419428   3.564   1.184   6.480 -0.0028 -0.1664  0.6770
  161DOPC   H4R19429   3.621   1.209   6.572  1.5189 -0.9558 -0.0198
  161DOPC   H4S19430   3.458   1.216   6.495  0.4028  1.1068  0.9542
  161DOPC   C2519431   3.621   1.267   6.365 -0.1250  0.8296  0.8823
  161DOPC   H5R19432   3.724   1.229   6.348  0.3346  2.2813  0.2732
  161DOPC   H5S19433   3.621   1.374   6.394 -0.2583  2.1193 -3.1768
  161DOPC   C2619434   3.549   1.254   6.234 -0.3614  0.0252 -0.2408
  161DOPC   H6R19435   3.444   1.290   6.242 -0.6037 -0.3963 -1.3737
  161DOPC   H6S19436   3.547   1.144   6.215 -1.2496 -0.3276  1.6597
  161DOPC   C2719437   3.613   1.319   6.110 -0.3156 -0.0221 -0.2739
  161DOPC   H7R19438   3.637   1.424   6.139 -2.3510  0.3015  0.4063
  161DOPC   H7S19439   3.523   1.313   6.045 -0.0477 -1.6391 -0.5286
  161DOPC   C2819440   3.732   1.245   6.059 -0.6734 -0.0699 -0.0472
  161DOPC   H8R19441   3.719   1.138   6.033  0.0272  0.3098 -2.2334
  161DOPC   H8S19442   3.806   1.246   6.142 -0.4420 -0.3168 -0.2483
  161DOPC   C2919443   3.794   1.314   5.945 -0.2916 -0.2384 -0.0071
  161DOPC   H9R19444   3.725   1.365   5.876  1.3849  1.3776 -0.5606
  161DOPC  C21019445   3.925   1.330   5.920 -0.1341  0.2451  0.0013
  161DOPC  H10R19446   3.956   1.372   5.824  2.7572 -1.4527  0.0966
  161DOPC  C21119447   4.045   1.275   6.003 -0.2806 -0.0214  0.9934
  161DOPC  H11R19448   4.110   1.224   5.929  0.7994  3.8710 -0.9712
  161DOPC  H11S19449   4.012   1.194   6.071  0.2182 -0.8412  0.2741
  161DOPC  C21219450   4.122   1.367   6.089  0.2667  0.8887  0.5202
  161DOPC  H12R19451   4.073   1.398   6.184 -1.1200  2.3433 -0.6119
  161DOPC  H12S19452   4.128   1.464   6.035  2.7723  0.0094 -0.9240
  161DOPC  C21319453   4.259   1.306   6.113  0.2811  1.7269 -0.3284
  161DOPC  H13R19454   4.299   1.275   6.014 -1.0387 -0.8005 -0.1355
  161DOPC  H13S19455   4.245   1.210   6.167  0.3980  1.6839 -0.3746
  161DOPC  C21419456   4.337   1.395   6.206 -1.0435  0.4521  0.2277
  161DOPC  H14R19457   4.315   1.386   6.314  1.4252 -0.6731  0.6966
  161DOPC  H14S19458   4.317   1.501   6.180 -0.8932  0.1677 -1.1557
  161DOPC  C21519459   4.486   1.374   6.185 -0.6197  0.3042  0.0299
  161DOPC  H15R19460   4.509   1.384   6.077  1.3795  2.1490  0.5479
  161DOPC  H15S19461   4.512   1.273   6.223  2.3630  0.8766 -0.2779
  161DOPC  C21619462   4.579   1.467   6.262  0.4662 -0.7561  0.3114
  161DOPC  H16R19463   4.580   1.573   6.228 -3.0743 -0.1114  1.7902
  161DOPC  H16S19464   4.681   1.425   6.247  0.3731 -0.8903  0.0563
  161DOPC  C21719465   4.541   1.470   6.414  0.4039  0.2688  0.1925
  161DOPC  H17R19466   4.523   1.366   6.446  3.7332 -0.4615  0.0163
  161DOPC  H17S19467   4.444   1.522   6.429  0.7089  0.3330  2.1961
  161DOPC  C21819468   4.638   1.556   6.499  0.2689 -0.8032  0.8469
  161DOPC  H18R19469   4.663   1.652   6.450  0.5438 -0.2653  2.0121
  161DOPC  H18S19470   4.729   1.493   6.507  0.0953 -0.8682  2.7694
  161DOPC  H18T19471   4.591   1.577   6.598 -3.0281  0.3215 -0.8200
  161DOPC   C3319472   2.920   0.749   6.378  0.2388  0.6223  0.1266
  161DOPC   H3X19473   2.952   0.855   6.384  1.0907  0.4305 -0.7754
  161DOPC   H3Y19474   2.828   0.724   6.436  0.9833 -2.0181  0.3046
  161DOPC   C3419475   2.889   0.745   6.224  0.2524 -0.1237 -0.5540
  161DOPC   H4X19476   2.797   0.803   6.201  0.4315  0.2464 -0.3295
  161DOPC   H4Y19477   2.849   0.647   6.189 -0.5330  0.6713 -1.9892
  161DOPC   C3519478   2.994   0.796   6.122  0.0897  0.0891 -0.2624
  161DOPC   H5X19479   3.071   0.718   6.104 -0.2832 -0.7923  1.6381
  161DOPC   H5Y19480   3.042   0.881   6.174  1.3165 -1.0662  0.5717
  161DOPC   C3619481   2.915   0.827   5.991 -0.1974 -0.2425 -0.6586
  161DOPC   H6X19482   2.861   0.740   5.948 -3.8018  0.6490  1.5976
  161DOPC   H6Y19483   2.844   0.909   6.016  1.5747  0.9195  0.8190
  161DOPC   C3719484   3.010   0.890   5.887 -0.1657  0.4524  0.0549
  161DOPC   H7X19485   3.047   0.973   5.950 -0.7961  0.7757  0.0076
  161DOPC   H7Y19486   3.100   0.825   5.878 -0.3339 -0.0626  1.7578
  161DOPC   C3819487   2.948   0.933   5.753 -0.5515  0.4825 -0.5489
  161DOPC   H8X19488   3.020   0.996   5.697 -0.6544  0.9205 -0.1911
  161DOPC   H8Y19489   2.858   0.996   5.769  0.0104  1.4671 -1.1612
  161DOPC   C3919490   2.907   0.810   5.668  0.7357 -0.2790 -0.0985
  161DOPC   H9X19491   2.937   0.717   5.719  0.1352 -0.7630 -0.6094
  161DOPC  C31019492   2.841   0.820   5.550  0.4022 -0.2178  0.1467
  161DOPC  H10X19493   2.823   0.724   5.500 -0.7569 -0.0557  0.2344
  161DOPC  C31119494   2.800   0.954   5.481  0.3446 -0.0834 -0.2561
  161DOPC  H11X19495   2.779   0.934   5.374  1.2131  0.9087 -0.6248
  161DOPC  H11Y19496   2.889   1.019   5.491 -0.2520  0.4723  2.1979
  161DOPC  C31219497   2.680   1.039   5.530  0.0544  0.4367 -0.4066
  161DOPC  H12X19498   2.725   1.103   5.609  0.5811  0.1502 -0.4672
  161DOPC  H12Y19499   2.600   0.974   5.573 -0.2655  1.5306  0.6906
  161DOPC  C31319500   2.617   1.122   5.426 -0.1093 -0.0197  0.3468
  161DOPC  H13X19501   2.702   1.186   5.393  0.3997 -0.9608 -0.2040
  161DOPC  H13Y19502   2.572   1.066   5.341 -1.5066  0.2098  0.9006
  161DOPC  C31419503   2.515   1.219   5.491  0.3968  0.5283 -0.0664
  161DOPC  H14X19504   2.558   1.260   5.586  1.1731 -0.3617 -0.0206
  161DOPC  H14Y19505   2.502   1.307   5.424  0.6793  1.2156  0.7473
  161DOPC  C31519506   2.384   1.154   5.509  0.9096  0.4478 -0.0804
  161DOPC  H15X19507   2.390   1.082   5.593  0.1600  0.9903  0.4551
  161DOPC  H15Y19508   2.359   1.090   5.422  2.0573  0.2530 -0.2797
  161DOPC  C31619509   2.262   1.247   5.534  0.2236  0.4226  0.0377
  161DOPC  H16X19510   2.293   1.324   5.608 -0.0474  0.2814  0.3018
  161DOPC  H16Y19511   2.243   1.293   5.435  1.5720 -0.0507 -0.4621
  161DOPC  C31719512   2.123   1.189   5.557 -0.1607 -0.3392  0.0555
  161DOPC  H17X19513   2.112   1.091   5.506  0.6336  0.3928 -1.5940
  161DOPC  H17Y19514   2.108   1.182   5.667 -2.4716 -1.8998 -0.2923
  161DOPC  C31819515   2.012   1.277   5.497 -0.4817  0.7115 -0.3109
  161DOPC  H18X19516   1.919   1.239   5.545  0.6513  1.0258  2.3349
  161DOPC  H18Y19517   2.025   1.382   5.531  0.1165  0.3943  0.4804
  161DOPC  H18Z19518   2.001   1.283   5.387  0.2286  0.0599 -0.4260
  162DOPC     N19519   0.679   5.743   7.140  0.1058  0.4462 -0.0034
  162DOPC   C1219520   0.534   5.716   7.147 -0.0476  0.4180  0.1511
  162DOPC  H12A19521   0.492   5.754   7.239  1.1200  1.5889  0.2342
  162DOPC  H12B19522   0.529   5.609   7.165  0.8674  0.3696  0.1795
  162DOPC   C1319523   0.751   5.692   7.258 -0.7926  0.1994 -0.0080
  162DOPC  H13A19524   0.857   5.715   7.260 -0.1523 -2.4409 -0.2720
  162DOPC  H13B19525   0.703   5.707   7.354  1.0207 -0.4031  1.0323
  162DOPC  H13C19526   0.750   5.585   7.245  1.5853  0.2732 -1.4517
  162DOPC   C1419527   0.699   5.887   7.138  0.2537  0.3642 -0.3057
  162DOPC  H14A19528   0.788   5.918   7.085 -0.0210 -0.3124 -1.1860
  162DOPC  H14B19529   0.623   5.938   7.080 -2.6097 -2.1671  0.9393
  162DOPC  H14C19530   0.693   5.922   7.240  1.9222 -2.1607  0.7596
  162DOPC   C1519531   0.740   5.692   7.012 -0.3358 -0.8126 -0.0954
  162DOPC  H15A19532   0.682   5.730   6.930 -2.4544 -0.4455  1.5022
  162DOPC  H15B19533   0.735   5.584   7.006  0.0674 -0.8080 -0.5481
  162DOPC  H15C19534   0.844   5.716   6.994 -0.3811 -0.7473 -0.2708
  162DOPC   C1119535   0.435   5.755   7.037  0.3576 -0.3338 -0.3289
  162DOPC  H11A19536   0.476   5.720   6.940  3.4670  0.3433  0.6272
  162DOPC  H11B19537   0.346   5.694   7.063  0.2845 -0.8257 -1.6711
  162DOPC     P19538   0.339   5.967   6.917  0.0333  0.0094 -0.5001
  162DOPC   O1319539   0.363   6.110   6.948 -0.6975  0.4494  0.2528
  162DOPC   O1419540   0.202   5.923   6.886  0.7934 -0.1800  0.2127
  162DOPC   O1219541   0.404   5.887   7.038 -0.0757  0.6256  0.1753
  162DOPC   O1119542   0.449   5.916   6.811  0.4542  0.6602 -0.0271
  162DOPC    C119543   0.570   5.987   6.787 -0.0786  0.1862  0.1905
  162DOPC    HA19544   0.647   5.922   6.739 -0.8204 -0.0304 -0.7354
  162DOPC    HB19545   0.618   6.010   6.885  0.5877 -0.5060  0.0433
  162DOPC    C219546   0.555   6.119   6.713 -0.6630 -0.0928  0.3601
  162DOPC    HS19547   0.491   6.190   6.769  0.0306 -1.2315  2.7623
  162DOPC   O2119548   0.498   6.097   6.583 -0.0861 -0.0992 -0.4134
  162DOPC   C2119549   0.447   6.203   6.533 -1.0131 -0.1202  1.0709
  162DOPC   O2219550   0.437   6.312   6.585  0.2082 -0.1874  0.4913
  162DOPC   C2219551   0.393   6.178   6.395 -0.7276 -0.0689 -0.2367
  162DOPC   H2R19552   0.322   6.258   6.365 -1.5183 -1.3153 -1.9179
  162DOPC   H2S19553   0.329   6.089   6.410 -0.7957  0.2135  1.2395
  162DOPC    C319554   0.698   6.180   6.686  0.6770  0.2365  0.0371
  162DOPC    HX19555   0.732   6.212   6.787 -1.2540 -0.1537  0.8588
  162DOPC    HY19556   0.668   6.277   6.640 -0.6830  0.9821  2.3406
  162DOPC   O3119557   0.792   6.102   6.617  0.2403 -0.1106 -0.4719
  162DOPC   C3119558   0.841   6.154   6.499  0.2624  0.1768  0.4282
  162DOPC   O3219559   0.803   6.252   6.448  0.1042 -0.3233  0.0887
  162DOPC   C3219560   0.956   6.066   6.436  0.1791 -0.0605 -0.7178
  162DOPC   H2X19561   1.051   6.114   6.470 -0.3356  1.9818 -1.9920
  162DOPC   H2Y19562   0.940   5.963   6.473  1.9347  0.3098  1.3355
  162DOPC   C2319563   0.509   6.167   6.284  0.1988  0.5153  0.1122
  162DOPC   H3R19564   0.561   6.070   6.301 -0.2788  0.6972  3.2357
  162DOPC   H3S19565   0.578   6.254   6.287 -1.0139  1.5036 -0.0400
  162DOPC   C2419566   0.452   6.160   6.143 -0.7841  0.4678 -0.0505
  162DOPC   H4R19567   0.376   6.239   6.125  0.6983  1.5307 -2.1050
  162DOPC   H4S19568   0.395   6.067   6.123  0.3881  0.0395 -1.6467
  162DOPC   C2519569   0.563   6.165   6.035  0.2302  0.2901  0.4611
  162DOPC   H5R19570   0.619   6.074   6.063 -1.2067 -1.1628 -1.1171
  162DOPC   H5S19571   0.634   6.248   6.055  0.6014 -0.1245  0.8615
  162DOPC   C2619572   0.507   6.170   5.892 -0.0502  0.8645  0.2110
  162DOPC   H6R19573   0.462   6.074   5.859  0.7214  1.5520 -3.1644
  162DOPC   H6S19574   0.592   6.175   5.821 -0.5359 -2.4542 -0.7777
  162DOPC   C2719575   0.418   6.287   5.859 -0.5142  0.3618 -0.2153
  162DOPC   H7R19576   0.321   6.270   5.911 -0.2532  0.0698  0.1824
  162DOPC   H7S19577   0.409   6.289   5.748  2.5358 -1.7790 -0.6166
  162DOPC   C2819578   0.469   6.419   5.900 -0.4768 -0.3385 -0.1951
  162DOPC   H8R19579   0.564   6.445   5.850 -1.0137  1.4322 -0.3430
  162DOPC   H8S19580   0.501   6.408   6.006  0.6066  1.3024 -0.3193
  162DOPC   C2919581   0.376   6.535   5.886  0.5941 -0.3472 -0.2999
  162DOPC   H9R19582   0.286   6.527   5.949 -0.5362 -2.8630 -2.0764
  162DOPC  C21019583   0.374   6.625   5.788 -0.2275 -0.0680  0.2184
  162DOPC  H10R19584   0.302   6.707   5.806 -0.0684  0.2044 -0.3683
  162DOPC  C21119585   0.476   6.651   5.684 -0.5518 -0.2150 -0.2056
  162DOPC  H11R19586   0.572   6.605   5.717  0.4140  0.2828 -2.1326
  162DOPC  H11S19587   0.496   6.759   5.673  2.4356 -0.6148  0.4376
  162DOPC  C21219588   0.438   6.600   5.546 -0.1038 -0.3233  0.3826
  162DOPC  H12R19589   0.349   6.649   5.500 -0.0074 -2.9664 -3.1168
  162DOPC  H12S19590   0.399   6.496   5.539  1.4245 -0.8907  0.0752
  162DOPC  C21319591   0.545   6.633   5.436 -0.6542  0.3014 -0.6830
  162DOPC  H13R19592   0.639   6.579   5.458  0.1700  1.8398 -0.2248
  162DOPC  H13S19593   0.564   6.742   5.450  1.5291 -0.3430  2.5200
  162DOPC  C21419594   0.502   6.602   5.294  0.0640 -0.7708 -0.6195
  162DOPC  H14R19595   0.573   6.659   5.231  0.2321  0.0379  0.2744
  162DOPC  H14S19596   0.399   6.640   5.279 -1.1063 -2.8111  1.5879
  162DOPC  C21519597   0.499   6.459   5.252  0.0738 -0.1739 -0.0830
  162DOPC  H15R19598   0.434   6.390   5.308 -0.6992 -0.6670 -1.5394
  162DOPC  H15S19599   0.604   6.434   5.278  0.1965  1.7549  1.5812
  162DOPC  C21619600   0.484   6.457   5.092  0.3194 -0.2163 -0.6305
  162DOPC  H16R19601   0.519   6.551   5.045 -0.3753  1.1419  1.3981
  162DOPC  H16S19602   0.376   6.441   5.071  0.4320 -0.8966 -0.7139
  162DOPC  C21719603   0.563   6.336   5.043 -0.4488 -0.7217  0.2019
  162DOPC  H17R19604   0.534   6.326   4.936  3.9860  1.1161 -1.4414
  162DOPC  H17S19605   0.547   6.239   5.094  1.1993 -0.4070  1.4059
  162DOPC  C21819606   0.721   6.354   5.041  0.3593 -0.1639 -0.0100
  162DOPC  H18R19607   0.757   6.258   4.999 -0.7903  0.3518 -2.3203
  162DOPC  H18S19608   0.768   6.381   5.138 -1.2090 -1.8391  1.2853
  162DOPC  H18T19609   0.751   6.425   4.962  0.7089 -1.2611 -0.8874
  162DOPC   C3319610   0.955   6.060   6.282  0.8041 -0.3998 -0.1904
  162DOPC   H3X19611   0.992   6.150   6.228  0.2515  2.0333  3.1319
  162DOPC   H3Y19612   0.853   6.057   6.238  0.6937  1.2793 -0.1186
  162DOPC   C3419613   1.041   5.949   6.236 -0.2013  0.0361  0.8864
  162DOPC   H4X19614   0.985   5.858   6.267 -3.3559  0.6084 -2.4161
  162DOPC   H4Y19615   1.143   5.954   6.279  2.1656 -0.7991 -4.0063
  162DOPC   C3519616   1.071   5.951   6.082  0.0981  0.2525  1.1412
  162DOPC   H5X19617   1.159   5.884   6.076  1.7272  2.4435 -1.0011
  162DOPC   H5Y19618   1.112   6.048   6.048  1.6461 -1.2826 -1.7457
  162DOPC   C3619619   0.952   5.900   5.995 -0.3319  0.1742 -0.0542
  162DOPC   H6X19620   0.939   5.789   5.998 -2.8447  0.4310  1.9350
  162DOPC   H6Y19621   0.857   5.938   6.038 -1.0786 -0.1530 -1.3538
  162DOPC   C3719622   0.949   5.953   5.848  0.5294  0.2295  0.6732
  162DOPC   H7X19623   0.843   5.955   5.817 -0.0170 -0.9758  2.3001
  162DOPC   H7Y19624   0.980   6.059   5.856  1.6089 -0.1674  2.2361
  162DOPC   C3819625   1.033   5.868   5.759 -0.5103  0.5127 -0.6027
  162DOPC   H8X19626   1.002   5.765   5.787  2.1699  0.4581  2.6598
  162DOPC   H8Y19627   1.136   5.875   5.798 -1.2463 -0.7348  1.7329
  162DOPC   C3919628   1.020   5.893   5.613 -0.9722 -0.0295 -0.0488
  162DOPC   H9X19629   0.925   5.852   5.575 -1.0624 -0.0089  0.1560
  162DOPC  C31019630   1.104   5.935   5.512 -0.4615 -0.1727 -0.4714
  162DOPC  H10X19631   1.062   5.952   5.412  0.9750  0.1198 -1.0354
  162DOPC  C31119632   1.247   5.957   5.544 -0.4519  0.6738 -0.1725
  162DOPC  H11X19633   1.309   5.960   5.452  0.7263  1.5023  0.6129
  162DOPC  H11Y19634   1.275   5.864   5.599  0.2987  0.3163 -1.1266
  162DOPC  C31219635   1.291   6.075   5.633  0.6227 -0.1982  0.3380
  162DOPC  H12X19636   1.401   6.070   5.648  0.4833 -0.4924  1.3215
  162DOPC  H12Y19637   1.245   6.069   5.734 -0.7911 -1.1997 -0.3282
  162DOPC  C31319638   1.259   6.211   5.569 -0.2493  0.4106 -0.4688
  162DOPC  H13X19639   1.150   6.222   5.553 -0.3684 -0.2362 -0.1216
  162DOPC  H13Y19640   1.282   6.296   5.636  2.0679  1.3519 -2.3009
  162DOPC  C31419641   1.333   6.240   5.432  0.1065 -0.0732 -1.1869
  162DOPC  H14X19642   1.343   6.350   5.424 -0.3780  0.1721  0.9202
  162DOPC  H14Y19643   1.431   6.189   5.429  1.4329  2.2943 -0.1680
  162DOPC  C31519644   1.244   6.206   5.310 -0.0176  0.4713 -0.1672
  162DOPC  H15X19645   1.140   6.243   5.320 -0.1053 -0.2896  2.1255
  162DOPC  H15Y19646   1.224   6.098   5.296 -1.9931  0.3724  2.6484
  162DOPC  C31619647   1.307   6.257   5.182  0.1442 -0.0203 -0.0002
  162DOPC  H16X19648   1.285   6.364   5.164 -1.9083 -0.4739 -0.4476
  162DOPC  H16Y19649   1.418   6.245   5.176  0.2545  1.3905 -1.2635
  162DOPC  C31719650   1.259   6.189   5.057 -0.0751 -0.4583 -0.3609
  162DOPC  H17X19651   1.312   6.231   4.970 -1.3635  1.4608 -0.2666
  162DOPC  H17Y19652   1.277   6.079   5.065 -0.6403 -0.6936 -1.9735
  162DOPC  C31819653   1.110   6.206   5.023  0.1938 -0.3311 -0.2151
  162DOPC  H18X19654   1.084   6.310   4.994  0.9408 -0.0621  0.0564
  162DOPC  H18Y19655   1.072   6.137   4.945 -0.2749 -2.7654  2.0344
  162DOPC  H18Z19656   1.049   6.184   5.113 -1.4175 -0.4178 -1.2839
  163DOPC     N19657   0.686   3.285   7.046 -0.3446 -0.1262  0.1194
  163DOPC   C1219658   0.683   3.289   6.894 -0.4894 -0.1444 -0.2290
  163DOPC  H12A19659   0.591   3.250   6.853 -0.1145  0.9670 -2.2271
  163DOPC  H12B19660   0.767   3.224   6.875 -0.3343  0.1081 -0.4201
  163DOPC   C1319661   0.564   3.358   7.107 -0.7234 -0.6734 -0.1508
  163DOPC  H13A19662   0.467   3.316   7.085 -1.8769  1.0223  1.4185
  163DOPC  H13B19663   0.573   3.364   7.215  0.6704 -1.1129 -0.2195
  163DOPC  H13C19664   0.568   3.462   7.078 -0.0186 -0.0730  1.8893
  163DOPC   C1419665   0.810   3.346   7.103  0.0679 -0.1083  0.2608
  163DOPC  H14A19666   0.897   3.332   7.042 -1.5653  0.8833 -2.4760
  163DOPC  H14B19667   0.800   3.450   7.128  1.7579  0.2514 -0.4431
  163DOPC  H14C19668   0.832   3.303   7.200 -1.6041  0.5902  1.0008
  163DOPC   C1519669   0.665   3.147   7.102 -0.2429 -0.1447 -1.2427
  163DOPC  H15A19670   0.563   3.114   7.086 -0.2304 -1.1070  0.4131
  163DOPC  H15B19671   0.675   3.154   7.209 -2.3265 -0.1006 -1.0053
  163DOPC  H15C19672   0.724   3.064   7.067 -1.1210 -1.1133 -0.4918
  163DOPC   C1119673   0.697   3.421   6.820 -0.1933 -0.0633 -0.2613
  163DOPC  H11A19674   0.789   3.471   6.857  0.2068 -1.0481  0.1095
  163DOPC  H11B19675   0.706   3.403   6.711  1.1574  2.4926 -0.6274
  163DOPC     P19676   0.437   3.481   6.799  0.1009 -0.5828 -0.1146
  163DOPC   O1319677   0.357   3.600   6.844  0.3444  0.6900 -0.4342
  163DOPC   O1419678   0.389   3.351   6.839  0.2809 -0.6335  0.5529
  163DOPC   O1219679   0.584   3.508   6.843 -0.3571 -0.1847 -0.1018
  163DOPC   O1119680   0.441   3.481   6.638 -0.0806 -0.0764  0.4563
  163DOPC    C119681   0.500   3.593   6.568 -0.3607 -0.1939  0.4654
  163DOPC    HA19682   0.610   3.591   6.585  0.1452  2.2835 -1.7717
  163DOPC    HB19683   0.456   3.691   6.595  1.0050  1.9449 -4.0380
  163DOPC    C219684   0.489   3.569   6.413  0.2263  0.1107  0.2378
  163DOPC    HS19685   0.530   3.660   6.363  1.0980  1.9405  3.9308
  163DOPC   O2119686   0.351   3.558   6.371  0.2995  0.0094 -0.0709
  163DOPC   C2119687   0.271   3.663   6.391  0.7300 -0.5411  0.0426
  163DOPC   O2219688   0.296   3.774   6.438  0.5158  0.0943  0.6356
  163DOPC   C2219689   0.136   3.630   6.332 -0.0610 -0.3418 -0.0259
  163DOPC   H2R19690   0.091   3.731   6.320  1.9285  0.5599 -0.1435
  163DOPC   H2S19691   0.073   3.589   6.414 -1.9026  0.4905 -0.9546
  163DOPC    C319692   0.568   3.432   6.376  0.0290 -0.5827 -0.3076
  163DOPC    HX19693   0.543   3.407   6.271 -1.6699 -1.0151  0.1644
  163DOPC    HY19694   0.507   3.366   6.441  0.8436 -0.5001  0.5609
  163DOPC   O3119695   0.712   3.444   6.391  0.4957 -0.1264 -0.8603
  163DOPC   C3119696   0.774   3.330   6.424  0.2440  0.7953 -0.1491
  163DOPC   O3219697   0.713   3.224   6.443 -0.1809 -0.5511  0.3943
  163DOPC   C3219698   0.919   3.358   6.452 -0.1055  0.4362  0.6731
  163DOPC   H2X19699   0.947   3.432   6.375 -0.8656 -0.3046 -0.3468
  163DOPC   H2Y19700   0.921   3.412   6.550 -2.0716  2.5805 -0.3697
  163DOPC   C2319701   0.135   3.553   6.198 -0.3988  0.1569 -0.0459
  163DOPC   H3R19702   0.149   3.443   6.205 -1.6285 -0.0335 -0.3181
  163DOPC   H3S19703   0.215   3.592   6.132  1.3224 -0.4098  1.6150
  163DOPC   C2419704   0.007   3.556   6.125 -0.0333  0.0890 -0.2908
  163DOPC   H4R19705  -0.028   3.657   6.097 -3.8811 -0.3406  2.2042
  163DOPC   H4S19706  -0.077   3.502   6.174  0.5649 -0.5899  0.0035
  163DOPC   C2519707   0.018   3.475   5.994  0.7420  0.3545 -1.0672
  163DOPC   H5R19708  -0.027   3.374   6.004 -2.0398  1.3746 -2.3995
  163DOPC   H5S19709   0.124   3.457   5.964  1.6749 -1.2663  2.5763
  163DOPC   C2619710  -0.077   3.531   5.885  0.5187 -0.0298 -0.2128
  163DOPC   H6R19711  -0.060   3.640   5.869 -1.4855  0.0701 -2.0787
  163DOPC   H6S19712  -0.184   3.529   5.915  0.4131 -0.2096 -0.5915
  163DOPC   C2719713  -0.051   3.449   5.757 -0.3272 -0.3002 -0.2267
  163DOPC   H7R19714  -0.077   3.341   5.760 -2.0704 -0.1111 -3.5273
  163DOPC   H7S19715   0.058   3.458   5.736  0.1042 -1.3137  1.3656
  163DOPC   C2819716  -0.141   3.509   5.641  0.3274  0.4159 -0.3910
  163DOPC   H8R19717  -0.157   3.618   5.644 -2.4036  0.0897 -0.9086
  163DOPC   H8S19718  -0.242   3.467   5.658  0.8390  0.0234  1.9575
  163DOPC   C2919719  -0.080   3.464   5.510 -0.2116 -0.2856  0.5975
  163DOPC   H9R19720  -0.020   3.542   5.461 -0.5890  1.0121  2.1269
  163DOPC  C21019721  -0.100   3.354   5.436 -0.4976  0.5335 -0.3816
  163DOPC  H10R19722  -0.051   3.331   5.340 -1.8929 -1.2648 -0.7084
  163DOPC  C21119723  -0.197   3.233   5.462  0.5794 -0.1612  0.1021
  163DOPC  H11R19724  -0.238   3.223   5.565  1.0630  0.8511  0.4092
  163DOPC  H11S19725  -0.152   3.136   5.431 -1.2467 -0.0078 -3.6471
  163DOPC  C21219726  -0.304   3.266   5.354  0.4020  0.3276  0.5464
  163DOPC  H12R19727  -0.259   3.258   5.252 -0.9297 -1.4403  0.0368
  163DOPC  H12S19728  -0.352   3.365   5.364 -0.2340  0.0866 -0.0554
  163DOPC  C21319729  -0.418   3.154   5.346 -0.0128  0.8553  0.0624
  163DOPC  H13R19730  -0.506   3.207   5.304 -1.1711  0.8457  2.3587
  163DOPC  H13S19731  -0.441   3.136   5.453  0.6249  1.1657  0.2576
  163DOPC  C21419732  -0.389   3.017   5.285  0.3511  0.1878  0.2430
  163DOPC  H14R19733  -0.292   2.977   5.323 -0.1004 -1.1681  0.0363
  163DOPC  H14S19734  -0.371   3.036   5.177 -0.1040 -0.9857 -0.0570
  163DOPC  C21519735  -0.509   2.926   5.311 -0.0745 -0.2326 -0.1565
  163DOPC  H15R19736  -0.544   2.924   5.416 -3.5402 -1.6974 -1.1991
  163DOPC  H15S19737  -0.483   2.820   5.293  0.4254 -0.3569  1.2382
  163DOPC  C21619738  -0.623   2.965   5.216  0.1202  0.2876 -0.7260
  163DOPC  H16R19739  -0.579   2.973   5.115  3.2633  0.1018  0.4980
  163DOPC  H16S19740  -0.656   3.064   5.254 -1.3501  0.7077 -2.9317
  163DOPC  C21719741  -0.749   2.875   5.213  1.1739 -0.4585  1.1727
  163DOPC  H17R19742  -0.745   2.780   5.271 -2.0049 -1.0144  0.6225
  163DOPC  H17S19743  -0.769   2.857   5.106 -3.4029 -0.2191  1.7799
  163DOPC  C21819744  -0.883   2.950   5.248 -0.3643  1.1957  0.1416
  163DOPC  H18R19745  -0.874   2.998   5.348  2.3376 -0.2683  0.6995
  163DOPC  H18S19746  -0.964   2.878   5.271 -0.9344  1.5667 -0.6435
  163DOPC  H18T19747  -0.921   3.021   5.171 -0.6086  0.8185 -0.0876
  163DOPC   C3319748   1.005   3.227   6.446 -0.7143 -0.1825  0.3362
  163DOPC   H3X19749   0.964   3.152   6.375 -1.7795  0.1541  0.5753
  163DOPC   H3Y19750   0.999   3.189   6.550  1.7614  1.4600  1.1766
  163DOPC   C3419751   1.154   3.246   6.410  0.8216 -0.5463  0.4650
  163DOPC   H4X19752   1.201   3.158   6.459  1.1680 -1.3060 -1.1436
  163DOPC   H4Y19753   1.192   3.332   6.468  1.7867 -1.0756  0.6481
  163DOPC   C3519754   1.178   3.255   6.257  0.6043 -0.3132  0.1945
  163DOPC   H5X19755   1.126   3.340   6.209  0.2337  0.3560  1.7233
  163DOPC   H5Y19756   1.138   3.159   6.217 -0.7271  0.9176 -1.6019
  163DOPC   C3619757   1.320   3.267   6.209 -0.5629  0.8610 -0.5691
  163DOPC   H6X19758   1.359   3.360   6.255  0.7306 -0.1299  0.3873
  163DOPC   H6Y19759   1.393   3.192   6.244 -1.4378 -0.6853 -1.9212
  163DOPC   C3719760   1.329   3.276   6.048 -0.3328  0.2131 -0.1808
  163DOPC   H7X19761   1.261   3.358   6.016 -0.8558 -0.5608 -1.1375
  163DOPC   H7Y19762   1.437   3.290   6.027 -0.5827  0.4822 -1.3707
  163DOPC   C3819763   1.283   3.141   5.975  0.1972  0.8416  0.3541
  163DOPC   H8X19764   1.183   3.111   6.014  0.5752  0.0882  0.7513
  163DOPC   H8Y19765   1.364   3.068   5.994 -0.9736 -0.3305  1.0466
  163DOPC   C3919766   1.270   3.173   5.823 -0.8487  0.0566 -0.0453
  163DOPC   H9X19767   1.366   3.207   5.783 -0.2092  0.8155  2.0180
  163DOPC  C31019768   1.160   3.161   5.749  0.1497 -0.4835 -0.2230
  163DOPC  H10X19769   1.176   3.189   5.644  0.6236  1.7425  0.3940
  163DOPC  C31119770   1.021   3.118   5.790 -0.1692  0.4285 -0.3979
  163DOPC  H11X19771   0.949   3.146   5.710 -2.3753  0.8255  1.6180
  163DOPC  H11Y19772   0.996   3.179   5.880  1.8753  1.6154 -0.5613
  163DOPC  C31219773   0.988   2.974   5.816  0.5753  0.2221 -0.1866
  163DOPC  H12X19774   0.877   2.968   5.819  0.6365 -1.2919 -0.0033
  163DOPC  H12Y19775   1.034   2.939   5.911 -0.7412  0.6484  0.6306
  163DOPC  C31319776   1.033   2.880   5.699  0.3462 -0.1522  0.2144
  163DOPC  H13X19777   1.142   2.888   5.684  0.2884  0.8506  0.2621
  163DOPC  H13Y19778   1.010   2.775   5.726 -2.9771  0.2408 -0.6330
  163DOPC  C31419779   0.975   2.920   5.567 -0.7859  0.5433  0.4317
  163DOPC  H14X19780   0.879   2.972   5.587 -0.8509  0.3527  0.6074
  163DOPC  H14Y19781   1.041   2.992   5.513 -0.3780 -0.3365 -0.2672
  163DOPC  C31519782   0.951   2.799   5.469 -0.0509  0.1339 -0.3023
  163DOPC  H15X19783   1.048   2.746   5.454 -0.1911 -0.8759  1.9110
  163DOPC  H15Y19784   0.918   2.848   5.375  1.2899 -0.2888 -1.0211
  163DOPC  C31619785   0.845   2.702   5.526  0.1180 -0.0899 -0.0361
  163DOPC  H16X19786   0.890   2.663   5.620  0.7857  1.1373  0.1680
  163DOPC  H16Y19787   0.756   2.762   5.557 -0.1859 -1.2759  1.5430
  163DOPC  C31719788   0.800   2.585   5.429 -0.4276  0.0226 -0.7489
  163DOPC  H17X19789   0.705   2.607   5.375  0.2181  0.8922 -1.5668
  163DOPC  H17Y19790   0.880   2.577   5.353 -0.5903  0.2888 -0.9496
  163DOPC  C31819791   0.777   2.451   5.505  0.2046 -0.1525  0.4697
  163DOPC  H18X19792   0.864   2.415   5.563  0.5052  0.5712  0.4831
  163DOPC  H18Y19793   0.690   2.476   5.569 -1.2780 -0.6470 -1.2819
  163DOPC  H18Z19794   0.743   2.370   5.437 -1.3185 -0.3629  1.4402
  164DOPC     N19795   1.968   1.161   7.304  0.0022 -0.5889 -0.2725
  164DOPC   C1219796   2.087   1.247   7.317 -0.3495  0.3748  0.1312
  164DOPC  H12A19797   2.178   1.203   7.278  2.2779  2.8942  2.9089
  164DOPC  H12B19798   2.120   1.267   7.418  2.7318  1.2974 -0.9429
  164DOPC   C1319799   1.940   1.138   7.160  0.2628  0.3832 -0.2707
  164DOPC  H13A19800   1.895   1.229   7.124 -2.7361  0.2539  2.6464
  164DOPC  H13B19801   2.036   1.114   7.118  0.0957 -1.0104  0.0880
  164DOPC  H13C19802   1.870   1.059   7.136 -0.3423  1.3522 -1.8675
  164DOPC   C1419803   1.854   1.230   7.370 -0.2506 -0.5689 -0.3268
  164DOPC  H14A19804   1.755   1.199   7.339 -1.1796  0.6543  1.2267
  164DOPC  H14B19805   1.856   1.213   7.477  1.1834  0.6056 -0.1368
  164DOPC  H14C19806   1.862   1.336   7.349  1.8818 -1.1179 -2.6582
  164DOPC   C1519807   1.994   1.028   7.365 -0.0962 -0.0896  0.0027
  164DOPC  H15A19808   1.927   0.950   7.330  1.9596 -1.8764 -0.1351
  164DOPC  H15B19809   1.994   1.024   7.473  1.9705  0.0661  0.0482
  164DOPC  H15C19810   2.094   0.996   7.340  0.9940  1.6522  1.8597
  164DOPC   C1119811   2.080   1.389   7.242  0.1701  0.0705 -0.3142
  164DOPC  H11A19812   1.976   1.425   7.251  0.5833  1.0117  1.2107
  164DOPC  H11B19813   2.151   1.457   7.294 -0.7937 -0.1426  1.3400
  164DOPC     P19814   2.259   1.340   7.060  0.0167  0.2369  0.0398
  164DOPC   O1319815   2.318   1.233   7.144 -0.1074  0.4110  0.1930
  164DOPC   O1419816   2.334   1.464   7.058 -0.1755  0.5872 -0.1345
  164DOPC   O1219817   2.107   1.368   7.100  0.7634  0.5202  0.1278
  164DOPC   O1119818   2.242   1.288   6.917 -0.1567 -0.4620 -0.3793
  164DOPC    C119819   2.219   1.379   6.811  0.0977  0.2948  0.0777
  164DOPC    HA19820   2.311   1.438   6.788  1.3249 -1.7971 -0.6973
  164DOPC    HB19821   2.139   1.448   6.842  0.9963  0.2943  2.6517
  164DOPC    C219822   2.180   1.309   6.680 -0.1027 -0.5639  1.0403
  164DOPC    HS19823   2.243   1.218   6.667  0.4139  0.0189 -0.9722
  164DOPC   O2119824   2.188   1.396   6.568 -0.2865 -0.6177 -0.6020
  164DOPC   C2119825   2.314   1.415   6.527  0.4011 -0.1719  0.7939
  164DOPC   O2219826   2.407   1.341   6.548 -0.1193 -0.0573  0.3007
  164DOPC   C2219827   2.320   1.546   6.436 -0.1066 -0.2656 -0.2391
  164DOPC   H2R19828   2.247   1.612   6.488 -2.2910 -0.8687 -2.3699
  164DOPC   H2S19829   2.281   1.517   6.337 -2.3581 -0.6653  0.7054
  164DOPC    C319830   2.032   1.260   6.699 -0.1721 -0.0636  0.3716
  164DOPC    HX19831   1.973   1.348   6.732  1.6981  0.3579  2.9854
  164DOPC    HY19832   2.025   1.188   6.784  0.0275 -0.1926  0.2803
  164DOPC   O3119833   1.988   1.191   6.579 -0.3372 -0.3131 -0.4307
  164DOPC   C3119834   1.864   1.231   6.539  0.9680  0.0851 -1.2743
  164DOPC   O3219835   1.789   1.305   6.593 -0.1179  0.1344  0.1479
  164DOPC   C3219836   1.837   1.158   6.404 -0.0243 -0.2681  0.1695
  164DOPC   H2X19837   1.928   1.151   6.342 -1.3154 -2.1222 -1.6563
  164DOPC   H2Y19838   1.820   1.050   6.421  0.4970 -0.2568  0.7974
  164DOPC   C2319839   2.463   1.612   6.422  0.8232 -0.3852 -0.5038
  164DOPC   H3R19840   2.534   1.549   6.364  0.6752 -0.9274 -0.1007
  164DOPC   H3S19841   2.514   1.611   6.521  1.8645  2.1023 -0.9441
  164DOPC   C2419842   2.471   1.759   6.376  0.1966  0.0257 -0.3828
  164DOPC   H4R19843   2.564   1.817   6.394 -1.3432  3.1653 -1.9050
  164DOPC   H4S19844   2.396   1.808   6.441 -1.3824  1.6397 -3.2292
  164DOPC   C2519845   2.423   1.776   6.233 -0.5795 -0.6155  0.0091
  164DOPC   H5R19846   2.317   1.743   6.232 -0.7496 -0.2699  1.7923
  164DOPC   H5S19847   2.479   1.713   6.161  0.8895 -0.1763  0.7265
  164DOPC   C2619848   2.431   1.926   6.186 -0.3485  0.5108  0.6144
  164DOPC   H6R19849   2.537   1.957   6.197 -0.1298  0.0959 -0.2520
  164DOPC   H6S19850   2.370   1.997   6.246  0.2567  0.4442  1.3203
  164DOPC   C2719851   2.378   1.940   6.045 -0.6546 -0.6077  0.3270
  164DOPC   H7R19852   2.388   1.837   6.005 -1.9350 -1.1091  1.2496
  164DOPC   H7S19853   2.435   2.017   5.989 -1.7415  1.1309  1.4903
  164DOPC   C2819854   2.230   1.998   6.045 -0.2834  0.1321 -0.0545
  164DOPC   H8R19855   2.227   2.108   6.054 -0.0597  0.2140 -0.8357
  164DOPC   H8S19856   2.175   1.958   6.132  0.8959 -1.5864 -0.0451
  164DOPC   C2919857   2.157   1.970   5.915 -0.7906  0.1570 -0.4530
  164DOPC   H9R19858   2.101   1.875   5.918 -0.6398 -0.0142 -1.9938
  164DOPC  C21019859   2.158   2.032   5.795  0.6302 -0.2333 -0.0729
  164DOPC  H10R19860   2.080   2.012   5.720  1.2426 -0.1734 -0.7363
  164DOPC  C21119861   2.231   2.162   5.764 -0.3279 -0.0867  0.1992
  164DOPC  H11R19862   2.298   2.145   5.677  0.7279 -4.0493  1.5704
  164DOPC  H11S19863   2.306   2.186   5.843  0.3163 -2.3349  0.3338
  164DOPC  C21219864   2.124   2.261   5.736  0.0413 -0.1278 -0.4443
  164DOPC  H12R19865   2.165   2.364   5.747 -0.3545 -0.0590  0.4647
  164DOPC  H12S19866   2.058   2.254   5.824  0.0924  1.1632 -0.2809
  164DOPC  C21319867   2.036   2.249   5.614  0.2620  0.0342 -0.1244
  164DOPC  H13R19868   1.948   2.315   5.622  0.8276  1.3905 -3.4776
  164DOPC  H13S19869   1.991   2.148   5.601  0.4580 -0.0014 -0.5657
  164DOPC  C21419870   2.107   2.276   5.484 -0.6468  0.2651  0.4996
  164DOPC  H14R19871   2.190   2.204   5.466 -0.3170  0.7823 -0.0820
  164DOPC  H14S19872   2.160   2.373   5.484 -1.8807  0.9676 -0.0235
  164DOPC  C21519873   2.007   2.270   5.371 -0.1500  0.0076 -0.4388
  164DOPC  H15R19874   1.933   2.350   5.388  0.3212  0.2511  0.5422
  164DOPC  H15S19875   1.953   2.173   5.382  1.3546 -0.6445  2.2172
  164DOPC  C21619876   2.080   2.275   5.239 -0.2428 -0.1994 -0.0822
  164DOPC  H16R19877   2.002   2.240   5.168 -0.1454  1.2337 -0.9396
  164DOPC  H16S19878   2.176   2.220   5.241  0.4441  0.8894 -1.1985
  164DOPC  C21719879   2.125   2.416   5.200 -0.0264  0.2906  0.5407
  164DOPC  H17R19880   2.170   2.460   5.291  1.8073  1.2563 -0.7757
  164DOPC  H17S19881   2.035   2.478   5.180 -0.7828 -0.9926 -0.1970
  164DOPC  C21819882   2.223   2.415   5.086  0.7470 -0.6029  0.0485
  164DOPC  H18R19883   2.179   2.367   4.996  1.1246 -0.1171 -0.3985
  164DOPC  H18S19884   2.314   2.365   5.127 -0.3099 -2.6685 -0.0310
  164DOPC  H18T19885   2.247   2.517   5.051 -0.4966 -1.5191 -3.9506
  164DOPC   C3319886   1.712   1.212   6.327 -0.3242 -0.0173  0.2541
  164DOPC   H3X19887   1.723   1.317   6.294  0.7156 -0.0903  0.3442
  164DOPC   H3Y19888   1.631   1.222   6.403 -0.3741  3.1939 -0.0930
  164DOPC   C3419889   1.661   1.120   6.207 -0.0121 -0.2158  0.0205
  164DOPC   H4X19890   1.561   1.157   6.176  0.4464  0.7604 -0.3357
  164DOPC   H4Y19891   1.659   1.016   6.246  1.2830 -1.1049 -2.0916
  164DOPC   C3519892   1.751   1.120   6.084 -0.1380 -0.1340 -0.2986
  164DOPC   H5X19893   1.856   1.087   6.101  0.2012  1.0893  0.0824
  164DOPC   H5Y19894   1.772   1.226   6.058  1.2578 -0.5655 -1.0671
  164DOPC   C3619895   1.694   1.053   5.963  0.8494 -0.2493  0.2996
  164DOPC   H6X19896   1.691   0.942   5.966  0.4775 -0.2569 -0.2698
  164DOPC   H6Y19897   1.587   1.084   5.965  1.1410  0.8269 -0.1094
  164DOPC   C3719898   1.744   1.086   5.821  0.3809 -0.1126 -0.1235
  164DOPC   H7X19899   1.739   1.195   5.802  0.5733 -0.3531 -1.6740
  164DOPC   H7Y19900   1.852   1.062   5.817  0.2272 -0.9923  0.6386
  164DOPC   C3819901   1.686   0.988   5.707  1.1161 -0.1379  0.1608
  164DOPC   H8X19902   1.702   1.024   5.603 -0.1103 -4.4638 -1.7631
  164DOPC   H8Y19903   1.576   1.000   5.720  1.0661 -0.4923  0.0574
  164DOPC   C3919904   1.731   0.845   5.709 -0.3457  0.1447 -0.1441
  164DOPC   H9X19905   1.696   0.786   5.796 -0.2676 -1.6484 -1.2701
  164DOPC  C31019906   1.778   0.769   5.610 -0.1836 -0.0918 -0.4683
  164DOPC  H10X19907   1.817   0.668   5.631  1.4109 -0.0353 -2.7766
  164DOPC  C31119908   1.799   0.813   5.467 -0.8711  0.4018 -0.6695
  164DOPC  H11X19909   1.894   0.775   5.423 -1.9531 -0.8658 -1.9918
  164DOPC  H11Y19910   1.811   0.924   5.464 -1.3989  0.4756 -0.2894
  164DOPC  C31219911   1.686   0.757   5.386 -0.4892  0.7647  0.5331
  164DOPC  H12X19912   1.587   0.778   5.434 -0.7886 -0.3390  0.4341
  164DOPC  H12Y19913   1.691   0.647   5.399 -3.1660  0.7562  2.4868
  164DOPC  C31319914   1.699   0.779   5.230 -0.4736 -0.8526 -0.0948
  164DOPC  H13X19915   1.659   0.881   5.212 -1.0648 -1.3747 -1.9714
  164DOPC  H13Y19916   1.807   0.791   5.207 -0.0436 -0.9390  1.7736
  164DOPC  C31419917   1.636   0.681   5.137 -0.1175 -0.6919 -0.2176
  164DOPC  H14X19918   1.526   0.695   5.145 -0.0944 -0.7340  0.2265
  164DOPC  H14Y19919   1.659   0.578   5.173 -0.6432  0.4283  3.8669
  164DOPC  C31519920   1.681   0.692   4.994  0.3787  0.3198  0.3464
  164DOPC  H15X19921   1.790   0.675   4.985  0.5510  1.1180  0.8583
  164DOPC  H15Y19922   1.669   0.797   4.961 -1.9299  0.5446  1.6239
  164DOPC  C31619923   1.592   0.611   4.896  0.2150  0.8708  0.1271
  164DOPC  H16X19924   1.593   0.507   4.935 -2.4038  0.0415 -1.7290
  164DOPC  H16Y19925   1.485   0.640   4.909 -0.7830 -1.6149 -1.6232
  164DOPC  C31719926   1.639   0.613   4.755  0.4531  0.5359  0.7815
  164DOPC  H17X19927   1.745   0.580   4.744  0.9492  2.4424 -0.4797
  164DOPC  H17Y19928   1.582   0.528   4.713  1.6317 -0.6303  1.4392
  164DOPC  C31819929   1.620   0.753   4.689  0.0363 -0.1864 -0.2239
  164DOPC  H18X19930   1.523   0.799   4.715  0.6406  0.4043  1.0615
  164DOPC  H18Y19931   1.708   0.813   4.722  1.0966 -1.1920 -1.0966
  164DOPC  H18Z19932   1.631   0.747   4.579  1.7078 -1.7294 -0.0213
  165DOPC     N19933   6.061   6.871   7.033  0.0964 -0.3037 -0.2493
  165DOPC   C1219934   6.216   6.855   7.043 -0.4851 -0.2288 -0.4934
  165DOPC  H12A19935   6.233   6.769   6.980  2.8443  0.3434 -0.5405
  165DOPC  H12B19936   6.232   6.824   7.145  1.1565  1.1389 -0.3095
  165DOPC   C1319937   6.026   6.880   6.895 -0.3676  0.5894 -0.5071
  165DOPC  H13A19938   6.052   6.791   6.840  1.4178  1.0135 -0.4226
  165DOPC  H13B19939   5.920   6.895   6.879 -0.6892  1.6067  2.0316
  165DOPC  H13C19940   6.076   6.964   6.848  0.7528  0.9350  1.1933
  165DOPC   C1419941   6.013   6.992   7.108 -0.0716  0.2458 -0.0735
  165DOPC  H14A19942   6.045   6.991   7.211  2.0132 -0.7461 -0.6706
  165DOPC  H14B19943   6.066   7.080   7.073  0.8564 -0.9913 -1.9788
  165DOPC  H14C19944   5.906   7.004   7.098 -0.0345 -0.7918 -2.4769
  165DOPC   C1519945   5.997   6.747   7.091  0.2724  0.5804  0.5450
  165DOPC  H15A19946   6.036   6.659   7.043 -0.4635  0.6044 -0.1159
  165DOPC  H15B19947   5.890   6.745   7.073  0.2122 -2.0714  0.7884
  165DOPC  H15C19948   6.020   6.741   7.197  2.9588 -0.8816 -0.0417
  165DOPC   C1119949   6.312   6.977   7.025  0.2725  0.2638 -0.0180
  165DOPC  H11A19950   6.409   6.927   7.005 -0.0327  0.5074 -2.3344
  165DOPC  H11B19951   6.286   7.024   6.928  1.3731 -3.2879 -2.1902
  165DOPC     P19952   6.444   7.110   7.210  0.3675  0.1194  0.4492
  165DOPC   O1319953   6.507   6.994   7.278 -0.0461  0.3280 -0.5748
  165DOPC   O1419954   6.410   7.222   7.303  0.1873  0.5465  0.4744
  165DOPC   O1219955   6.311   7.062   7.140  0.5157 -0.2121  0.0028
  165DOPC   O1119956   6.539   7.158   7.088  0.0145 -0.2723 -0.4319
  165DOPC    C119957   6.529   7.285   7.020  0.6418 -0.5264 -0.6815
  165DOPC    HA19958   6.625   7.338   7.039  0.1395  0.2446 -0.2363
  165DOPC    HB19959   6.450   7.354   7.057  1.1001  0.2090 -1.0560
  165DOPC    C219960   6.514   7.274   6.870  0.1078 -0.4888  0.9013
  165DOPC    HS19961   6.425   7.212   6.844  1.2560 -1.2473 -1.5456
  165DOPC   O2119962   6.638   7.225   6.819 -0.2104 -0.2229 -0.0734
  165DOPC   C2119963   6.646   7.090   6.803  0.4075 -0.5992 -0.2787
  165DOPC   O2219964   6.560   7.010   6.831  0.0426 -0.1656 -0.2018
  165DOPC   C2219965   6.785   7.049   6.738  0.3154 -0.7874  0.1118
  165DOPC   H2R19966   6.858   7.012   6.813  0.4559  0.2128  0.4910
  165DOPC   H2S19967   6.834   7.140   6.696 -2.4367  0.8760  0.2739
  165DOPC    C319968   6.480   7.412   6.804  0.0487  0.7100  0.0450
  165DOPC    HX19969   6.563   7.486   6.815  0.1807  0.3165  2.1645
  165DOPC    HY19970   6.394   7.463   6.852  1.5835  5.0749 -1.3357
  165DOPC   O3119971   6.474   7.387   6.660  0.2594 -0.3893  0.5875
  165DOPC   C3119972   6.350   7.345   6.613 -0.5778  0.1114 -0.5600
  165DOPC   O3219973   6.261   7.306   6.685 -0.4270  0.0675 -0.0705
  165DOPC   C3219974   6.345   7.350   6.459 -0.4208  0.1385 -0.8319
  165DOPC   H2X19975   6.419   7.425   6.424 -1.4335  0.5863 -2.1070
  165DOPC   H2Y19976   6.360   7.249   6.416  0.7638  0.2265 -0.6463
  165DOPC   C2319977   6.772   6.934   6.637 -0.4581 -0.6410 -0.4671
  165DOPC   H3R19978   6.740   6.845   6.696  0.1993 -1.0003 -0.6460
  165DOPC   H3S19979   6.874   6.920   6.595  0.7469  1.3538  1.5151
  165DOPC   C2419980   6.681   6.964   6.517 -0.4195  0.5036  0.1825
  165DOPC   H4R19981   6.577   6.974   6.554 -0.2559 -0.6978  1.0431
  165DOPC   H4S19982   6.686   6.881   6.444 -0.9105 -0.5986  1.3614
  165DOPC   C2519983   6.717   7.097   6.449  0.2849 -0.8065  0.1525
  165DOPC   H5R19984   6.826   7.093   6.429  0.1587 -0.3538 -0.6534
  165DOPC   H5S19985   6.691   7.183   6.514  2.4706  0.6701 -0.8533
  165DOPC   C2619986   6.651   7.116   6.311 -0.3494  1.9330  0.5548
  165DOPC   H6R19987   6.540   7.113   6.323 -0.3954 -1.4781  0.2934
  165DOPC   H6S19988   6.689   7.028   6.254  0.3388  2.2743  0.4833
  165DOPC   C2719989   6.703   7.237   6.232  0.1338 -0.2588 -0.9702
  165DOPC   H7R19990   6.814   7.239   6.240  0.1244 -0.9164 -0.5995
  165DOPC   H7S19991   6.654   7.325   6.279  2.1575  0.3774  0.0560
  165DOPC   C2819992   6.662   7.229   6.085 -0.1248  0.3994  1.0519
  165DOPC   H8R19993   6.691   7.328   6.042 -0.3861  1.2659  2.7627
  165DOPC   H8S19994   6.553   7.211   6.085 -0.6058  2.7753 -0.6430
  165DOPC   C2919995   6.738   7.114   6.009  0.4381 -0.4666 -0.5285
  165DOPC   H9R19996   6.841   7.106   6.046  0.2823  0.4732  0.1291
  165DOPC  C21019997   6.679   7.017   5.927 -0.9030  0.2089 -0.2172
  165DOPC  H10R19998   6.742   6.938   5.885  1.5995  1.0253  1.7127
  165DOPC  C21119999   6.539   7.031   5.873  0.1981 -0.2649  0.6270
  165DOPC  H11R20000   6.474   7.113   5.912  1.9777  0.9414  1.1829
  165DOPC  H11S20001   6.489   6.935   5.898 -0.8907  0.6606  2.2716
  165DOPC  C21220002   6.558   7.044   5.718  0.6701  0.2970  0.3637
  165DOPC  H12R20003   6.606   7.143   5.699 -0.8906  1.7421  3.2633
  165DOPC  H12S20004   6.455   7.054   5.678  1.0711  1.3956 -0.4472
  165DOPC  C21320005   6.615   6.920   5.642  0.7000  0.1349 -0.3045
  165DOPC  H13R20006   6.538   6.854   5.597 -2.1551  1.5306  2.1621
  165DOPC  H13S20007   6.669   6.842   5.701 -2.8704 -1.8704  0.5765
  165DOPC  C21420008   6.720   6.967   5.533  0.4578 -0.6101 -0.5387
  165DOPC  H14R20009   6.670   7.039   5.464 -1.4531 -0.1633  1.2085
  165DOPC  H14S20010   6.765   6.883   5.476  1.1624 -0.9454  0.4858
  165DOPC  C21520011   6.843   7.023   5.605 -0.2771 -0.3523  0.5141
  165DOPC  H15R20012   6.885   6.942   5.668  0.9166 -0.3916 -0.2988
  165DOPC  H15S20013   6.807   7.111   5.663  0.5623 -1.0625  2.1671
  165DOPC  C21620014   6.960   7.071   5.516  0.0144 -0.0133  0.0406
  165DOPC  H16R20015   6.909   7.140   5.445  0.3322  1.0578  0.8204
  165DOPC  H16S20016   7.009   6.988   5.461  2.7426  1.8703 -0.5875
  165DOPC  C21720017   7.067   7.156   5.593 -0.4038  0.2667 -0.2236
  165DOPC  H17R20018   7.032   7.239   5.658  2.1029  0.4326  1.0090
  165DOPC  H17S20019   7.137   7.199   5.519  0.0714 -0.0311  0.0500
  165DOPC  C21820020   7.175   7.070   5.670  0.4047 -0.0993  0.0388
  165DOPC  H18R20021   7.239   7.140   5.729 -0.3761  2.0309 -1.5309
  165DOPC  H18S20022   7.232   7.004   5.601 -1.1976  0.4709 -1.8862
  165DOPC  H18T20023   7.125   7.006   5.746 -3.2579  1.1393 -1.1507
  165DOPC   C3320024   6.204   7.397   6.418  0.0275 -0.2154 -0.0439
  165DOPC   H3X20025   6.166   7.473   6.489  2.3223  1.6767 -0.7264
  165DOPC   H3Y20026   6.139   7.307   6.417  1.5277 -1.3393 -1.4229
  165DOPC   C3420027   6.196   7.447   6.279  0.0081 -0.5892  0.4353
  165DOPC   H4X20028   6.244   7.547   6.269 -1.1169 -0.1329 -0.6913
  165DOPC   H4Y20029   6.090   7.473   6.260 -0.0951  3.1023  4.4686
  165DOPC   C3520030   6.247   7.356   6.167  0.0904  0.3156 -0.6882
  165DOPC   H5X20031   6.353   7.324   6.174 -0.3137 -0.9818 -0.3484
  165DOPC   H5Y20032   6.236   7.410   6.070 -0.7667  0.1806 -0.6749
  165DOPC   C3620033   6.152   7.238   6.152 -0.1348  0.0644  0.2251
  165DOPC   H6X20034   6.169   7.182   6.247  0.9379  0.2632  0.1595
  165DOPC   H6Y20035   6.045   7.265   6.139 -0.3107 -1.0752 -0.8696
  165DOPC   C3720036   6.203   7.142   6.046 -0.3845 -0.3326 -0.5033
  165DOPC   H7X20037   6.305   7.103   6.065 -0.9610 -1.5452  0.2853
  165DOPC   H7Y20038   6.196   7.192   5.947  2.5421  1.0116 -0.1174
  165DOPC   C3820039   6.118   7.010   6.037 -0.0825  0.0536 -0.8779
  165DOPC   H8X20040   6.125   6.953   6.132 -0.1918 -0.9338 -1.4567
  165DOPC   H8Y20041   6.153   6.955   5.948  0.6308  0.4627 -0.8537
  165DOPC   C3920042   5.971   7.023   6.016  0.3881 -0.0117  0.8094
  165DOPC   H9X20043   5.928   7.104   6.075 -0.2349 -0.1107  0.5011
  165DOPC  C31020044   5.886   6.955   5.929  0.0608 -0.1691 -0.2805
  165DOPC  H10X20045   5.780   6.980   5.942  0.3052  0.6960  0.1360
  165DOPC  C31120046   5.915   6.829   5.852 -0.5329 -0.0262  0.4837
  165DOPC  H11X20047   5.829   6.758   5.851 -0.1394 -0.5444  1.7361
  165DOPC  H11Y20048   6.007   6.784   5.894  1.2309  0.6506 -2.3718
  165DOPC  C31220049   5.955   6.851   5.702  0.0540  0.6643 -0.2759
  165DOPC  H12X20050   5.871   6.901   5.649  0.4362  0.5692 -0.9806
  165DOPC  H12Y20051   5.977   6.756   5.649  1.7004  0.8920 -0.0367
  165DOPC  C31320052   6.074   6.949   5.682  0.0097  0.5767  0.1840
  165DOPC  H13X20053   6.056   7.048   5.729  1.7086  0.5785  0.9161
  165DOPC  H13Y20054   6.168   6.903   5.722 -1.3027 -3.0004 -0.4212
  165DOPC  C31420055   6.088   6.984   5.536  0.1682  0.8916 -0.0012
  165DOPC  H14X20056   6.074   6.899   5.465 -2.2187  2.6436 -1.7692
  165DOPC  H14Y20057   6.002   7.048   5.509  0.0330 -0.1200 -2.2201
  165DOPC  C31520058   6.218   7.052   5.500  0.0004 -0.8838  0.5640
  165DOPC  H15X20059   6.300   6.978   5.513  1.0190  0.3805  1.7660
  165DOPC  H15Y20060   6.224   7.141   5.566  1.7279 -0.1137 -0.5417
  165DOPC  C31620061   6.224   7.117   5.358 -0.2920  0.5114 -0.2426
  165DOPC  H16X20062   6.163   7.210   5.354 -0.3117  0.4510 -1.5615
  165DOPC  H16Y20063   6.331   7.145   5.345  0.1105 -0.7881  0.0310
  165DOPC  C31720064   6.186   7.027   5.244 -0.1782 -0.5538  1.0274
  165DOPC  H17X20065   6.080   7.000   5.262 -0.5633  0.4107  0.2684
  165DOPC  H17Y20066   6.169   7.085   5.151  0.0966  1.0808  1.9613
  165DOPC  C31820067   6.269   6.901   5.214 -0.2717 -0.3007 -0.2191
  165DOPC  H18X20068   6.290   6.841   5.305 -0.1526 -2.5203 -1.6154
  165DOPC  H18Y20069   6.232   6.838   5.130  2.4537  0.0774 -1.8232
  165DOPC  H18Z20070   6.373   6.929   5.188 -0.0664 -1.5145 -0.7962
  166DOPC     N20071   0.293   2.740   7.271 -0.1981  0.6344  0.5554
  166DOPC   C1220072   0.146   2.770   7.299 -0.3493  0.4500 -0.7921
  166DOPC  H12A20073   0.147   2.831   7.388 -2.3414 -0.6874  0.0802
  166DOPC  H12B20074   0.110   2.676   7.337  1.5866  0.3396  0.9645
  166DOPC   C1320075   0.369   2.712   7.399 -0.2197 -0.2367 -0.4381
  166DOPC  H13A20076   0.323   2.630   7.452  0.3485  0.3928  1.0652
  166DOPC  H13B20077   0.473   2.688   7.381  0.4255  1.3918  0.8662
  166DOPC  H13C20078   0.376   2.795   7.467 -1.0102  0.2370 -0.9156
  166DOPC   C1420079   0.363   2.856   7.206 -0.0860  1.2111 -0.1277
  166DOPC  H14A20080   0.347   2.948   7.262 -2.1990  0.5269  0.4747
  166DOPC  H14B20081   0.470   2.844   7.206  0.0224  2.0844 -0.1633
  166DOPC  H14C20082   0.312   2.872   7.113 -0.6330 -0.3986 -0.1286
  166DOPC   C1520083   0.317   2.623   7.183  0.7854 -0.6190  0.3929
  166DOPC  H15A20084   0.260   2.540   7.222 -0.2148  0.9017  2.3349
  166DOPC  H15B20085   0.423   2.601   7.190  1.4326  2.4469  2.0756
  166DOPC  H15C20086   0.281   2.640   7.083  1.5605 -1.3252 -0.0202
  166DOPC   C1120087   0.049   2.823   7.193  0.6687 -0.1579  0.6326
  166DOPC  H11A20088  -0.041   2.861   7.246  0.7513  0.3248  0.4361
  166DOPC  H11B20089   0.103   2.910   7.148  1.2870 -0.0717  1.5383
  166DOPC     P20090  -0.073   2.598   7.105 -0.2288 -0.3471 -0.1648
  166DOPC   O1320091  -0.123   2.582   7.245 -0.1850 -0.2191  0.1601
  166DOPC   O1420092  -0.018   2.472   7.047  0.4180 -0.3399 -0.1846
  166DOPC   O1220093   0.026   2.718   7.099 -0.3511 -0.0705 -0.7434
  166DOPC   O1120094  -0.192   2.663   7.033 -0.1217 -0.0172  0.4334
  166DOPC    C120095  -0.185   2.743   6.914  0.4749  0.0801 -0.5071
  166DOPC    HA20096  -0.080   2.745   6.878  0.6137 -1.1858 -0.2298
  166DOPC    HB20097  -0.226   2.843   6.941 -1.3392 -1.1123  1.5503
  166DOPC    C220098  -0.282   2.693   6.804  0.1771  0.4930  0.0083
  166DOPC    HS20099  -0.227   2.602   6.773 -0.9143  0.4195 -1.8242
  166DOPC   O2120100  -0.293   2.782   6.689 -0.0385  0.6696 -0.1103
  166DOPC   C2120101  -0.181   2.782   6.617  0.2268  0.2329  0.8061
  166DOPC   O2220102  -0.077   2.718   6.636 -0.0239 -0.6797  0.3286
  166DOPC   C2220103  -0.203   2.856   6.492  0.3524 -0.6570  0.4974
  166DOPC   H2R20104  -0.114   2.844   6.428  1.2630  0.3175  1.5352
  166DOPC   H2S20105  -0.214   2.964   6.515 -0.5639 -0.5293 -0.4232
  166DOPC    C320106  -0.420   2.663   6.869 -0.0331  0.2222  0.3858
  166DOPC    HX20107  -0.452   2.754   6.925  0.2346 -0.7407  2.1895
  166DOPC    HY20108  -0.420   2.585   6.948 -1.7701 -1.0707 -0.8313
  166DOPC   O3120109  -0.505   2.607   6.768  0.2822 -0.2716  0.2348
  166DOPC   C3120110  -0.590   2.687   6.707 -0.3909  0.2380 -0.2381
  166DOPC   O3220111  -0.596   2.809   6.730  0.2441  0.0783 -0.9754
  166DOPC   C3220112  -0.662   2.613   6.599 -0.2715 -0.1408 -0.3042
  166DOPC   H2X20113  -0.604   2.585   6.509 -2.7917 -0.2173 -2.0102
  166DOPC   H2Y20114  -0.696   2.519   6.647 -4.4671  1.1597 -0.2692
  166DOPC   C2320115  -0.338   2.819   6.416 -0.0446  0.5475 -0.1405
  166DOPC   H3R20116  -0.419   2.853   6.484  0.5964 -1.4488  1.7289
  166DOPC   H3S20117  -0.353   2.710   6.399 -0.4669  0.6094 -0.1635
  166DOPC   C2420118  -0.346   2.892   6.285 -0.2313 -0.1586  0.0656
  166DOPC   H4R20119  -0.256   2.865   6.225 -0.1188 -0.6945  0.4698
  166DOPC   H4S20120  -0.343   3.000   6.309 -0.6240 -0.2305  0.4543
  166DOPC   C2520121  -0.474   2.850   6.206  0.9888 -0.1210  0.1741
  166DOPC   H5R20122  -0.470   2.741   6.187  1.6195  0.1745 -1.5179
  166DOPC   H5S20123  -0.473   2.898   6.106  2.5756 -0.4046  0.0346
  166DOPC   C2620124  -0.604   2.885   6.296 -0.6326 -0.1170  0.5323
  166DOPC   H6R20125  -0.589   2.983   6.346  0.2852 -0.5163  1.0637
  166DOPC   H6S20126  -0.608   2.809   6.378  2.4400 -1.0523 -0.0583
  166DOPC   C2720127  -0.733   2.908   6.215  0.1784  0.2590 -0.6630
  166DOPC   H7R20128  -0.715   2.993   6.146  0.3684  1.2896  0.6241
  166DOPC   H7S20129  -0.807   2.939   6.291 -0.2696 -0.1557 -0.9241
  166DOPC   C2820130  -0.773   2.779   6.138  0.1539  0.2397  0.9863
  166DOPC   H8R20131  -0.804   2.698   6.207  1.5907 -0.3179  1.0077
  166DOPC   H8S20132  -0.690   2.734   6.080 -0.8167  1.0099 -1.0968
  166DOPC   C2920133  -0.898   2.813   6.053  0.1032  0.1895 -0.2898
  166DOPC   H9R20134  -0.981   2.856   6.112 -0.1634  0.9007 -1.1738
  166DOPC  C21020135  -0.912   2.809   5.920 -0.5231  0.3152  0.3165
  166DOPC  H10R20136  -1.015   2.829   5.887 -0.9589  1.0892  2.0174
  166DOPC  C21120137  -0.806   2.781   5.810 -0.2384 -0.3163  0.0747
  166DOPC  H11R20138  -0.816   2.682   5.759  1.4141 -0.5419  0.1513
  166DOPC  H11S20139  -0.702   2.787   5.847 -0.2359  3.3593 -0.2111
  166DOPC  C21220140  -0.836   2.893   5.710 -0.0097  0.0086 -0.2280
  166DOPC  H12R20141  -0.942   2.887   5.679  0.1949  1.4378 -1.2994
  166DOPC  H12S20142  -0.779   2.861   5.620 -0.9418 -2.3522 -0.0465
  166DOPC  C21320143  -0.790   3.039   5.753  0.6410 -0.6888  0.0378
  166DOPC  H13R20144  -0.696   3.027   5.812  0.5878 -2.3416 -0.1528
  166DOPC  H13S20145  -0.867   3.090   5.815 -0.3140 -0.7812 -1.0403
  166DOPC  C21420146  -0.742   3.114   5.630 -0.5329  0.0883 -0.6778
  166DOPC  H14R20147  -0.833   3.123   5.567 -0.3110 -2.5762 -1.5120
  166DOPC  H14S20148  -0.673   3.049   5.572  0.2794  1.0418 -0.8012
  166DOPC  C21520149  -0.672   3.248   5.669 -0.2809 -0.0217  0.2901
  166DOPC  H15R20150  -0.573   3.209   5.703  0.1941 -0.8993 -1.9610
  166DOPC  H15S20151  -0.729   3.293   5.753 -0.0403  2.3268 -0.7188
  166DOPC  C21620152  -0.662   3.354   5.558  0.3474  0.4210 -0.4018
  166DOPC  H16R20153  -0.756   3.411   5.542  1.1437  1.6820 -0.7241
  166DOPC  H16S20154  -0.642   3.304   5.461 -0.7571  0.8710 -0.8759
  166DOPC  C21720155  -0.546   3.446   5.593 -0.0213  0.0260  0.7629
  166DOPC  H17R20156  -0.529   3.499   5.497  0.9079  0.1342  0.9786
  166DOPC  H17S20157  -0.450   3.394   5.611  0.3060  0.6260  0.8045
  166DOPC  C21820158  -0.564   3.555   5.697 -0.1735 -0.0518  0.3713
  166DOPC  H18R20159  -0.467   3.604   5.720  1.6577 -2.8480 -0.7917
  166DOPC  H18S20160  -0.602   3.516   5.794 -1.0401 -0.2194 -0.0232
  166DOPC  H18T20161  -0.646   3.625   5.674  0.4901  2.0190  3.5994
  166DOPC   C3320162  -0.785   2.688   6.554  0.8896 -0.2557  0.5238
  166DOPC   H3X20163  -0.791   2.701   6.444 -1.6195  2.3374  0.8316
  166DOPC   H3Y20164  -0.801   2.789   6.597 -1.5820  0.0668 -0.9906
  166DOPC   C3420165  -0.917   2.610   6.584 -0.0909 -0.2127  0.0850
  166DOPC   H4X20166  -0.912   2.590   6.694  0.7789  0.5975  0.2071
  166DOPC   H4Y20167  -0.933   2.513   6.532 -2.5921  0.2990 -0.2162
  166DOPC   C3520168  -1.044   2.693   6.576 -0.0728  0.3651  0.3102
  166DOPC   H5X20169  -1.019   2.788   6.629 -2.3682  0.8171  0.6740
  166DOPC   H5Y20170  -1.125   2.642   6.633 -0.2496 -0.4789 -0.6665
  166DOPC   C3620171  -1.100   2.732   6.439 -0.2904  0.1058  0.0516
  166DOPC   H6X20172  -1.181   2.804   6.466 -1.0720 -0.9722  0.6226
  166DOPC   H6Y20173  -1.029   2.796   6.381  0.5537 -0.2792  0.6465
  166DOPC   C3720174  -1.146   2.627   6.348 -0.3870 -0.0916  0.1730
  166DOPC   H7X20175  -1.059   2.562   6.324  0.2401 -0.1129  2.2960
  166DOPC   H7Y20176  -1.214   2.554   6.397 -0.1887 -0.4127 -0.0281
  166DOPC   C3820177  -1.213   2.685   6.223 -0.0931 -0.0450 -0.1665
  166DOPC   H8X20178  -1.241   2.603   6.154 -1.0220 -0.4840  0.7089
  166DOPC   H8Y20179  -1.136   2.741   6.166  2.4034 -1.1463  1.9195
  166DOPC   C3920180  -1.332   2.776   6.242 -0.2081 -0.3165  0.9819
  166DOPC   H9X20181  -1.322   2.844   6.327 -0.1242 -1.0181  1.5374
  166DOPC  C31020182  -1.434   2.805   6.162  0.6578 -0.4697 -0.1520
  166DOPC  H10X20183  -1.501   2.876   6.213  2.3280 -0.5567  2.3781
  166DOPC  C31120184  -1.476   2.747   6.032 -0.0405  0.4930  0.0466
  166DOPC  H11X20185  -1.571   2.791   5.996  0.5728 -0.0079 -2.4240
  166DOPC  H11Y20186  -1.463   2.637   6.037  0.4938  0.6099  1.5340
  166DOPC  C31220187  -1.372   2.792   5.920 -0.0635  0.2160 -0.5038
  166DOPC  H12X20188  -1.394   2.744   5.822 -0.0910 -0.4646 -0.1647
  166DOPC  H12Y20189  -1.272   2.749   5.943 -0.0231 -0.1445 -1.3272
  166DOPC  C31320190  -1.355   2.939   5.902 -0.3123 -0.1326  0.3538
  166DOPC  H13X20191  -1.444   2.993   5.942 -1.4807 -2.2039  0.6747
  166DOPC  H13Y20192  -1.269   2.970   5.966 -0.3891 -1.2184  1.0059
  166DOPC  C31420193  -1.348   2.976   5.754 -1.0127  0.0720  0.5723
  166DOPC  H14X20194  -1.424   2.915   5.701 -1.1110 -0.9943  1.8697
  166DOPC  H14Y20195  -1.380   3.083   5.751  1.2227  0.7722 -0.3387
  166DOPC  C31520196  -1.202   2.956   5.698 -0.0533 -0.3364 -0.2070
  166DOPC  H15X20197  -1.182   2.848   5.686 -0.7015 -0.4389 -0.3933
  166DOPC  H15Y20198  -1.136   3.012   5.769 -1.5761 -0.4151  1.3587
  166DOPC  C31620199  -1.201   3.015   5.557 -0.4042  0.1545 -0.5795
  166DOPC  H16X20200  -1.239   3.119   5.559 -0.1369  0.2418  0.1932
  166DOPC  H16Y20201  -1.093   3.020   5.534  0.2839  1.0492  2.3765
  166DOPC  C31720202  -1.289   2.938   5.465  0.5225  0.0640 -0.1647
  166DOPC  H17X20203  -1.242   2.837   5.463 -1.4293 -0.9027  0.5267
  166DOPC  H17Y20204  -1.396   2.926   5.490  0.0660  1.5895 -1.3002
  166DOPC  C31820205  -1.285   2.984   5.319  0.0797 -1.0114  0.0174
  166DOPC  H18X20206  -1.327   3.085   5.301  1.5438 -0.3371  0.2119
  166DOPC  H18Y20207  -1.180   2.994   5.284  0.1166 -1.5417 -0.0242
  166DOPC  H18Z20208  -1.328   2.915   5.243 -1.0123  0.7433 -1.0167
  167DOPC     N20209   0.333   1.966   7.177  0.2983 -0.6095 -0.1919
  167DOPC   C1220210   0.372   2.010   7.036 -0.4139 -1.7710 -0.1038
  167DOPC  H12A20211   0.479   2.025   7.041 -0.6893  0.1615  1.6507
  167DOPC  H12B20212   0.329   2.108   7.024  0.3411 -1.6591 -2.2407
  167DOPC   C1320213   0.379   1.823   7.203 -0.1977  0.0476 -0.1791
  167DOPC  H13A20214   0.324   1.754   7.140 -1.4231  0.4849  0.3729
  167DOPC  H13B20215   0.486   1.812   7.192 -0.1873 -0.9507  0.8099
  167DOPC  H13C20216   0.354   1.790   7.302  3.0422  1.4251  1.2295
  167DOPC   C1420217   0.174   1.977   7.195 -0.4754 -0.2287 -0.3900
  167DOPC  H14A20218   0.142   1.973   7.298 -2.0950 -0.4630 -0.8792
  167DOPC  H14B20219   0.148   2.076   7.163  1.3412  0.1343 -0.8713
  167DOPC  H14C20220   0.133   1.898   7.135  1.2000 -0.5973 -1.1155
  167DOPC   C1520221   0.406   2.050   7.273  0.1419 -0.4608  0.3854
  167DOPC  H15A20222   0.513   2.054   7.261 -0.0240 -1.0491 -1.5081
  167DOPC  H15B20223   0.385   2.025   7.376  1.0484  1.2088  1.0168
  167DOPC  H15C20224   0.374   2.152   7.261  1.4497 -0.3130 -2.6807
  167DOPC   C1120225   0.343   1.922   6.916  0.2483 -0.3077  0.4722
  167DOPC  H11A20226   0.398   1.974   6.835  1.9777  0.0347  1.7920
  167DOPC  H11B20227   0.381   1.817   6.920 -0.8896 -0.6909  1.6874
  167DOPC     P20228   0.126   1.801   6.831 -0.1158 -0.1224  0.5476
  167DOPC   O1320229  -0.016   1.823   6.859  0.7686  0.0954  0.0942
  167DOPC   O1420230   0.176   1.674   6.882 -0.0035  0.1535  0.3176
  167DOPC   O1220231   0.206   1.918   6.903 -0.5036  0.2050  0.2248
  167DOPC   O1120232   0.151   1.815   6.681 -0.0363 -0.0884  0.5128
  167DOPC    C120233   0.056   1.879   6.592 -0.1290 -0.0458  0.1848
  167DOPC    HA20234   0.103   1.924   6.502 -1.4999 -0.9594 -1.0327
  167DOPC    HB20235  -0.010   1.960   6.630 -1.0155  0.4111 -2.1504
  167DOPC    C220236  -0.051   1.779   6.537 -0.1781  0.8917  0.1548
  167DOPC    HS20237  -0.100   1.724   6.620 -1.4213  2.2568  0.3610
  167DOPC   O2120238   0.028   1.690   6.449 -0.1001 -0.3297  0.1493
  167DOPC   C2120239   0.080   1.579   6.494 -0.0888 -0.2655  0.2609
  167DOPC   O2220240   0.053   1.521   6.596  0.3131 -0.6184 -0.4403
  167DOPC   C2220241   0.182   1.535   6.389 -0.5609 -0.2471  0.3915
  167DOPC   H2R20242   0.267   1.606   6.387  2.1117 -3.1756  1.8708
  167DOPC   H2S20243   0.120   1.531   6.297 -0.9142  1.3120  0.5281
  167DOPC    C320244  -0.169   1.844   6.466  0.0940  1.0109 -0.5881
  167DOPC    HX20245  -0.242   1.870   6.545  0.8148 -3.8034  2.0656
  167DOPC    HY20246  -0.221   1.768   6.404  0.4464 -2.2590  2.7296
  167DOPC   O3120247  -0.112   1.951   6.397  0.0466 -0.1142 -0.4658
  167DOPC   C3120248  -0.192   2.013   6.316 -0.5894  0.2684 -1.0328
  167DOPC   O3220249  -0.309   1.991   6.305 -0.2482  0.2927  0.5974
  167DOPC   C3220250  -0.112   2.124   6.250 -0.1674  1.0206 -0.0267
  167DOPC   H2X20251  -0.133   2.215   6.310 -0.2362  0.3606  0.9626
  167DOPC   H2Y20252  -0.002   2.104   6.251 -0.2875  0.3315 -0.0812
  167DOPC   C2320253   0.226   1.390   6.419  0.2202  0.5055 -0.2943
  167DOPC   H3R20254   0.135   1.329   6.435  0.0001  0.9928  0.3823
  167DOPC   H3S20255   0.296   1.397   6.505  3.3624  0.9638 -2.6891
  167DOPC   C2420256   0.289   1.312   6.306  0.3742 -0.0707  0.5733
  167DOPC   H4R20257   0.223   1.316   6.216 -0.7187  0.1129  1.3657
  167DOPC   H4S20258   0.314   1.210   6.342  0.1160 -0.4510 -0.2883
  167DOPC   C2520259   0.423   1.370   6.261  0.2734  0.6216  0.3089
  167DOPC   H5R20260   0.482   1.386   6.354 -0.3191  0.7572  0.6684
  167DOPC   H5S20261   0.409   1.472   6.219 -1.4320  0.9357  1.4972
  167DOPC   C2620262   0.498   1.276   6.162  0.1375 -0.8473 -0.5903
  167DOPC   H6R20263   0.508   1.171   6.196  0.8231 -0.8090 -0.6465
  167DOPC   H6S20264   0.602   1.312   6.180 -0.1540 -0.3126  0.0780
  167DOPC   C2720265   0.471   1.304   6.013  0.1724 -0.1546 -0.6077
  167DOPC   H7R20266   0.493   1.403   5.969 -1.2843  0.4331 -0.0665
  167DOPC   H7S20267   0.361   1.316   5.999 -0.2260  0.1363  2.1684
  167DOPC   C2820268   0.518   1.191   5.927  0.2616  0.0417  0.2549
  167DOPC   H8R20269   0.460   1.203   5.833 -1.6402 -1.9030  1.1027
  167DOPC   H8S20270   0.516   1.087   5.965  0.9029  0.7662  2.3899
  167DOPC   C2920271   0.665   1.210   5.892  0.1026  0.4227 -0.0152
  167DOPC   H9R20272   0.736   1.204   5.975  1.1388  0.8619 -0.8493
  167DOPC  C21020273   0.716   1.247   5.773  0.4305  0.6625 -0.0867
  167DOPC  H10R20274   0.826   1.250   5.770  0.6421 -2.0169  1.7316
  167DOPC  C21120275   0.633   1.259   5.644  0.4836 -0.2143  0.2615
  167DOPC  H11R20276   0.523   1.270   5.658  0.8049  2.4266  1.2400
  167DOPC  H11S20277   0.638   1.173   5.574 -0.3726 -0.5146  0.5449
  167DOPC  C21220278   0.653   1.392   5.571 -0.8300 -0.5284  0.2344
  167DOPC  H12R20279   0.628   1.479   5.636 -0.7654  0.4586 -1.0195
  167DOPC  H12S20280   0.756   1.414   5.538 -0.6693 -0.4040  0.8035
  167DOPC  C21320281   0.566   1.403   5.453 -0.0106  0.2015  0.1871
  167DOPC  H13R20282   0.459   1.406   5.484  0.2501  1.9982  1.0043
  167DOPC  H13S20283   0.591   1.324   5.379  2.1992 -0.0521  1.1457
  167DOPC  C21420284   0.586   1.540   5.389  0.4416 -0.1220  0.5003
  167DOPC  H14R20285   0.687   1.556   5.344 -0.8393  0.2129 -2.4990
  167DOPC  H14S20286   0.574   1.623   5.461  1.2003  1.2663 -0.9093
  167DOPC  C21520287   0.495   1.556   5.264 -0.1601 -0.3244  0.0438
  167DOPC  H15R20288   0.398   1.512   5.295 -1.2021  0.9686 -1.2250
  167DOPC  H15S20289   0.529   1.500   5.175 -0.6587 -1.6130  0.6316
  167DOPC  C21620290   0.465   1.704   5.220 -0.0643  0.2814  0.0199
  167DOPC  H16R20291   0.555   1.752   5.174  1.4391 -1.3729  1.1118
  167DOPC  H16S20292   0.448   1.765   5.311  0.9427 -0.0913  0.4774
  167DOPC  C21720293   0.343   1.723   5.122  0.1396  0.2215 -0.4023
  167DOPC  H17R20294   0.253   1.670   5.162  0.1313 -0.9893 -1.9219
  167DOPC  H17S20295   0.367   1.675   5.025  2.5060  3.2679 -1.4513
  167DOPC  C21820296   0.303   1.870   5.105  0.2850 -0.1183  1.1421
  167DOPC  H18R20297   0.394   1.928   5.080 -1.4617  2.9727  1.3966
  167DOPC  H18S20298   0.272   1.911   5.204 -2.1302  1.9350 -0.3583
  167DOPC  H18T20299   0.233   1.889   5.021  1.2524 -0.7889  0.1658
  167DOPC   C3320300  -0.153   2.154   6.104 -0.1940  0.0890 -0.5720
  167DOPC   H3X20301  -0.133   2.261   6.082 -2.7524  0.9667  0.8696
  167DOPC   H3Y20302  -0.261   2.140   6.082  0.0824  0.8173 -2.5652
  167DOPC   C3420303  -0.079   2.069   5.999  0.4123 -0.1432 -0.0277
  167DOPC   H4X20304  -0.083   1.966   6.041  1.6814  0.1341  0.8220
  167DOPC   H4Y20305   0.025   2.109   6.001  0.7932 -1.1459  0.6144
  167DOPC   C3520306  -0.146   2.081   5.860 -0.6260  0.9611  0.8539
  167DOPC   H5X20307  -0.256   2.095   5.871 -0.5918  2.2087 -0.1790
  167DOPC   H5Y20308  -0.128   1.989   5.801 -0.2398  1.4512  0.1988
  167DOPC   C3620309  -0.095   2.200   5.774  0.9159  0.5058  0.2471
  167DOPC   H6X20310  -0.112   2.295   5.829 -0.5340  0.0843  0.5703
  167DOPC   H6Y20311   0.015   2.193   5.759  0.9222  0.7620  0.1695
  167DOPC   C3720312  -0.165   2.193   5.633  0.2903  0.6140 -1.1325
  167DOPC   H7X20313  -0.131   2.095   5.594  1.0937  0.3828  0.0972
  167DOPC   H7Y20314  -0.275   2.195   5.646  0.1832  0.2220 -1.9547
  167DOPC   C3820315  -0.122   2.299   5.530 -0.0503 -0.2032  0.0595
  167DOPC   H8X20316  -0.188   2.287   5.441 -1.7132 -2.1296  1.4684
  167DOPC   H8Y20317  -0.017   2.297   5.494 -0.3754 -0.3572 -0.9176
  167DOPC   C3920318  -0.153   2.440   5.578 -0.0307  0.2013  0.2407
  167DOPC   H9X20319  -0.259   2.445   5.606  0.5039 -0.0179  2.4892
  167DOPC  C31020320  -0.073   2.550   5.588 -0.4151  0.7311  0.1439
  167DOPC  H10X20321  -0.126   2.636   5.633 -0.7949  0.9936 -0.7778
  167DOPC  C31120322   0.065   2.562   5.542 -0.5935 -0.0625  0.3061
  167DOPC  H11X20323   0.079   2.665   5.504 -0.2656  0.5176  1.9179
  167DOPC  H11Y20324   0.094   2.498   5.456 -0.6755  0.1467  0.1223
  167DOPC  C31220325   0.170   2.527   5.654  0.4712  0.3694 -0.2815
  167DOPC  H12X20326   0.178   2.420   5.680 -1.3296  0.1660 -0.4712
  167DOPC  H12Y20327   0.141   2.577   5.748 -0.5993  0.8677 -0.8587
  167DOPC  C31320328   0.314   2.582   5.631 -0.3871  0.9011 -0.7915
  167DOPC  H13X20329   0.376   2.497   5.668  0.5577  2.0187  0.2955
  167DOPC  H13Y20330   0.334   2.597   5.523 -1.2487 -2.2549 -1.4991
  167DOPC  C31420331   0.366   2.695   5.713  0.2015 -0.3618 -0.1605
  167DOPC  H14X20332   0.331   2.795   5.680  1.3740  0.5333  1.2135
  167DOPC  H14Y20333   0.319   2.688   5.813 -0.4066  0.5955 -0.3597
  167DOPC  C31520334   0.520   2.706   5.735 -0.4089  0.3494 -0.1817
  167DOPC  H15X20335   0.558   2.713   5.631 -0.0305  2.7084  0.0744
  167DOPC  H15Y20336   0.549   2.610   5.783  0.2081  0.9832  0.7522
  167DOPC  C31620337   0.567   2.828   5.814  0.6524  0.4171  0.1145
  167DOPC  H16X20338   0.676   2.832   5.794  0.8129 -0.5810  0.7015
  167DOPC  H16Y20339   0.522   2.922   5.773 -0.0829 -0.8759 -2.1831
  167DOPC  C31720340   0.539   2.820   5.965 -0.2444 -0.4571  0.3750
  167DOPC  H17X20341   0.553   2.925   5.998 -2.4713  0.0271 -0.0621
  167DOPC  H17Y20342   0.434   2.796   5.991 -0.6640  0.8253 -0.0778
  167DOPC  C31820343   0.612   2.715   6.047 -0.2677 -0.0973 -0.3892
  167DOPC  H18X20344   0.574   2.615   6.020  1.6561 -1.0403  0.1889
  167DOPC  H18Y20345   0.721   2.723   6.026 -0.3932 -0.8576 -1.3568
  167DOPC  H18Z20346   0.592   2.740   6.154 -1.4113  2.1417 -1.0670
  168DOPC     N20347   1.981   7.475   7.451  0.3158 -0.0633  0.3015
  168DOPC   C1220348   1.974   7.598   7.350  0.3735  0.5790  0.1571
  168DOPC  H12A20349   1.965   7.556   7.251  1.2495  0.1704  0.2333
  168DOPC  H12B20350   2.073   7.641   7.349  1.6149 -1.8608  2.9453
  168DOPC   C1320351   2.129   7.446   7.494  0.0363 -0.1694 -0.7485
  168DOPC  H13A20352   2.109   7.359   7.554 -2.5788  1.1161  0.3970
  168DOPC  H13B20353   2.190   7.431   7.406  0.9329  0.6730 -0.2952
  168DOPC  H13C20354   2.170   7.530   7.548 -0.7958 -1.9634  2.9582
  168DOPC   C1420355   1.931   7.354   7.379 -0.8126  1.3348  0.0132
  168DOPC  H14A20356   1.913   7.266   7.439 -1.0009  0.8790 -0.6988
  168DOPC  H14B20357   1.839   7.371   7.326 -1.8620 -0.3949  1.1726
  168DOPC  H14C20358   2.015   7.323   7.318  0.1639 -0.4848  2.1234
  168DOPC   C1520359   1.898   7.491   7.571  0.0745 -0.3253  0.6551
  168DOPC  H15A20360   1.796   7.500   7.537 -0.1218 -2.8278  0.4034
  168DOPC  H15B20361   1.929   7.584   7.615  0.3246 -0.9331  1.8171
  168DOPC  H15C20362   1.910   7.416   7.648  1.1904  0.9945  1.8293
  168DOPC   C1120363   1.881   7.720   7.373  1.0222  0.1868  0.8616
  168DOPC  H11A20364   1.911   7.763   7.471  2.5382  0.9544  0.0916
  168DOPC  H11B20365   1.893   7.787   7.285  1.7932  0.6720  1.3268
  168DOPC     P20366   1.647   7.634   7.263 -0.2059  0.1157 -0.0212
  168DOPC   O1320367   1.509   7.672   7.284 -0.3499  0.2570  0.5055
  168DOPC   O1420368   1.675   7.494   7.249  0.1234  0.0748  0.4257
  168DOPC   O1220369   1.745   7.681   7.384 -0.1127 -0.2806 -0.1022
  168DOPC   O1120370   1.712   7.713   7.142 -0.4083  0.1882  0.1265
  168DOPC    C120371   1.659   7.843   7.108  0.5222  0.7554 -0.4952
  168DOPC    HA20372   1.705   7.921   7.172  0.4829 -0.4743  1.1021
  168DOPC    HB20373   1.548   7.846   7.115  0.5573  0.4798  0.3212
  168DOPC    C220374   1.688   7.885   6.962 -0.4202 -0.5268 -0.0243
  168DOPC    HS20375   1.649   7.988   6.953 -1.6695 -1.0866 -1.4124
  168DOPC   O2120376   1.615   7.797   6.878 -0.1742 -0.0477 -0.0815
  168DOPC   C2120377   1.573   7.853   6.771  0.1947 -0.1925  0.0680
  168DOPC   O2220378   1.584   7.971   6.731  0.5137  0.1425 -0.8471
  168DOPC   C2220379   1.498   7.742   6.694  0.4186  0.1006  0.5844
  168DOPC   H2R20380   1.391   7.769   6.694  0.3929  0.0029  0.1911
  168DOPC   H2S20381   1.506   7.641   6.739 -4.1263 -1.1718 -0.9950
  168DOPC    C320382   1.839   7.890   6.932 -0.1530 -0.2410  0.2520
  168DOPC    HX20383   1.889   7.798   6.969  2.0803  0.7757 -0.0248
  168DOPC    HY20384   1.882   7.967   6.999  1.1437  0.2076 -1.0350
  168DOPC   O3120385   1.884   7.924   6.799  0.1454 -0.4463  0.0592
  168DOPC   C3120386   1.889   7.813   6.717 -0.3258 -0.1167 -0.2984
  168DOPC   O3220387   1.849   7.703   6.750 -0.0590  0.1023  0.2662
  168DOPC   C3220388   1.977   7.846   6.596 -0.5010  0.5913 -0.6122
  168DOPC   H2X20389   1.928   7.932   6.546 -2.4672 -0.3457 -0.4003
  168DOPC   H2Y20390   2.078   7.872   6.633  1.0772 -0.4849 -3.8834
  168DOPC   C2320391   1.563   7.729   6.548  0.5949 -0.5770 -0.4244
  168DOPC   H3R20392   1.543   7.629   6.502 -1.3131 -1.4567  2.0956
  168DOPC   H3S20393   1.673   7.734   6.562  0.9660 -1.1812 -2.7307
  168DOPC   C2420394   1.532   7.839   6.450  0.4153  0.0203  0.0054
  168DOPC   H4R20395   1.569   7.940   6.478  0.7892 -0.2820  0.6173
  168DOPC   H4S20396   1.422   7.857   6.445  0.2211 -0.2152  2.3760
  168DOPC   C2520397   1.591   7.815   6.309 -0.2743 -0.2709  0.2835
  168DOPC   H5R20398   1.521   7.745   6.259 -0.8939 -0.8474  1.8881
  168DOPC   H5S20399   1.678   7.749   6.328 -0.0001 -0.3933 -1.2359
  168DOPC   C2620400   1.627   7.948   6.232 -0.0341 -0.0831 -0.6089
  168DOPC   H6R20401   1.711   7.999   6.285  0.2440 -1.1074 -0.0258
  168DOPC   H6S20402   1.544   8.022   6.234  1.6353  1.9235  2.0543
  168DOPC   C2720403   1.653   7.909   6.087  0.4829 -0.6172  0.8006
  168DOPC   H7R20404   1.565   7.855   6.048  0.5198  0.8076 -1.4435
  168DOPC   H7S20405   1.733   7.832   6.086  1.3975  0.2144  2.9332
  168DOPC   C2820406   1.691   8.023   5.998 -0.6218  0.2792 -0.3117
  168DOPC   H8R20407   1.772   8.086   6.041  0.6987 -0.9018 -0.9881
  168DOPC   H8S20408   1.602   8.090   5.986 -0.7249 -0.1459 -2.2168
  168DOPC   C2920409   1.724   7.973   5.858  0.0139  0.1061 -0.2948
  168DOPC   H9R20410   1.820   7.921   5.859  1.2169  2.1773 -0.9330
  168DOPC  C21020411   1.650   7.980   5.744 -0.6212  1.1946  0.3762
  168DOPC  H10R20412   1.701   7.933   5.658 -0.9225  1.0280  0.2881
  168DOPC  C21120413   1.512   8.047   5.716  0.0716  0.3598 -0.2731
  168DOPC  H11R20414   1.498   8.145   5.766 -2.8729  0.5379 -1.2915
  168DOPC  H11S20415   1.426   7.988   5.753  0.6889 -0.0393  0.5601
  168DOPC  C21220416   1.491   8.091   5.568  0.8695  0.1744  0.2700
  168DOPC  H12R20417   1.589   8.122   5.525  0.4490 -0.4093 -1.1325
  168DOPC  H12S20418   1.422   8.177   5.580 -2.2982 -2.1983  0.2586
  168DOPC  C21320419   1.420   7.994   5.472 -0.4579 -0.7093  0.5301
  168DOPC  H13R20420   1.317   7.960   5.499 -2.0350  0.5918 -3.2055
  168DOPC  H13S20421   1.490   7.908   5.459  0.2229  0.1057 -1.7844
  168DOPC  C21420422   1.404   8.062   5.335  0.4654  0.8520  0.2731
  168DOPC  H14R20423   1.497   8.091   5.283 -0.5868 -0.3014 -2.4352
  168DOPC  H14S20424   1.343   8.155   5.335 -1.1761 -0.1565  1.6974
  168DOPC  C21520425   1.356   7.954   5.238  0.4246  0.4304  0.1209
  168DOPC  H15R20426   1.252   7.917   5.247 -0.1086  1.1988 -2.1624
  168DOPC  H15S20427   1.422   7.865   5.236 -2.4194 -1.8533  0.8499
  168DOPC  C21620428   1.364   8.014   5.095  0.1179 -0.1478 -0.3470
  168DOPC  H16R20429   1.465   8.056   5.077  0.2320 -0.8088 -1.2819
  168DOPC  H16S20430   1.288   8.093   5.076  0.1399 -0.5024 -2.0362
  168DOPC  C21720431   1.338   7.907   4.995  0.1582  0.2632 -0.1817
  168DOPC  H17R20432   1.244   7.850   5.015  1.4507 -2.2481 -0.8588
  168DOPC  H17S20433   1.415   7.827   4.996 -0.0098  0.1025  0.6569
  168DOPC  C21820434   1.339   7.969   4.856  0.1946 -0.2631 -0.1553
  168DOPC  H18R20435   1.275   8.060   4.855  0.0702 -0.3489 -0.6745
  168DOPC  H18S20436   1.287   7.905   4.782 -0.1861 -0.5875  0.3858
  168DOPC  H18T20437   1.443   7.997   4.828 -0.0657  2.1649  1.0607
  168DOPC   C3320438   1.977   7.718   6.505  0.2921 -0.6383 -0.5206
  168DOPC   H3X20439   1.869   7.707   6.480  0.1958 -1.5551  0.2553
  168DOPC   H3Y20440   2.011   7.635   6.570 -1.8572  0.6502  2.5082
  168DOPC   C3420441   2.063   7.730   6.381 -0.2681  0.1864  0.5173
  168DOPC   H4X20442   2.058   7.628   6.339  2.2253 -0.0094  0.5945
  168DOPC   H4Y20443   2.168   7.759   6.400 -0.5333  0.1317  2.2700
  168DOPC   C3520444   2.007   7.832   6.282  0.4983 -0.0966 -0.1725
  168DOPC   H5X20445   2.033   7.932   6.325 -1.0338 -0.2925  1.3067
  168DOPC   H5Y20446   1.898   7.811   6.276  0.3228  0.7758 -0.2417
  168DOPC   C3620447   2.064   7.823   6.143 -1.1233 -0.3821  0.9989
  168DOPC   H6X20448   2.051   7.720   6.105  1.1521 -0.3466 -0.0266
  168DOPC   H6Y20449   2.000   7.884   6.076  0.0236 -0.3787 -0.1136
  168DOPC   C3720450   2.210   7.867   6.128 -0.5842  0.9117 -0.0344
  168DOPC   H7X20451   2.219   7.959   6.190 -1.9675  0.2308  1.2310
  168DOPC   H7Y20452   2.273   7.797   6.187  1.1694  3.2349  1.0192
  168DOPC   C3820453   2.254   7.887   5.989 -0.5512 -0.0808  0.5641
  168DOPC   H8X20454   2.358   7.925   5.984 -0.9590  1.1833  1.1995
  168DOPC   H8Y20455   2.196   7.970   5.944  1.4130  1.1615  0.2031
  168DOPC   C3920456   2.262   7.755   5.916 -0.4825 -0.2108 -0.0390
  168DOPC   H9X20457   2.350   7.693   5.940 -0.8994 -1.7138 -2.0613
  168DOPC  C31020458   2.180   7.723   5.815  0.2912  0.4098  0.1384
  168DOPC  H10X20459   2.181   7.625   5.764  1.3768 -1.0888  2.8244
  168DOPC  C31120460   2.057   7.803   5.759 -0.6862  0.6473  0.4083
  168DOPC  H11X20461   2.011   7.879   5.826 -1.3083  0.2956  0.3812
  168DOPC  H11Y20462   1.974   7.732   5.743 -0.8830  0.6198  1.4724
  168DOPC  C31220463   2.082   7.860   5.622  0.0787 -0.5081  0.3256
  168DOPC  H12X20464   1.992   7.901   5.571  1.4794 -0.0708 -1.9725
  168DOPC  H12Y20465   2.116   7.781   5.550  0.2414 -0.8645  0.7890
  168DOPC  C31320466   2.196   7.963   5.620 -0.8313 -0.1202  0.1436
  168DOPC  H13X20467   2.165   8.044   5.689 -2.3752  2.0087 -2.8094
  168DOPC  H13Y20468   2.282   7.907   5.663  0.3460 -0.0547 -1.9750
  168DOPC  C31420469   2.245   8.025   5.489  0.0235 -0.6190 -0.2680
  168DOPC  H14X20470   2.169   8.093   5.445 -0.8075 -2.9984 -2.8324
  168DOPC  H14Y20471   2.335   8.089   5.503  0.4118 -1.3409  0.6096
  168DOPC  C31520472   2.279   7.919   5.383  0.1415  0.3554 -0.6625
  168DOPC  H15X20473   2.301   7.975   5.290 -0.0829 -1.5012 -1.8825
  168DOPC  H15Y20474   2.181   7.869   5.370  0.4110 -0.0059 -1.3468
  168DOPC  C31620475   2.400   7.830   5.421  0.0603  0.0795  0.7332
  168DOPC  H16X20476   2.498   7.883   5.418 -0.2404  0.6191  0.4594
  168DOPC  H16Y20477   2.387   7.784   5.522 -0.7418 -2.1359 -0.3200
  168DOPC  C31720478   2.424   7.727   5.313  0.0779  0.1167 -0.3239
  168DOPC  H17X20479   2.516   7.672   5.341  1.1859  1.9723 -0.1681
  168DOPC  H17Y20480   2.336   7.659   5.304  0.3151 -0.5414  1.6817
  168DOPC  C31820481   2.452   7.789   5.179 -0.2891 -0.0364 -0.0793
  168DOPC  H18X20482   2.362   7.810   5.118 -1.0237  0.2544  1.0768
  168DOPC  H18Y20483   2.522   7.874   5.188  0.0545 -0.3969  0.7261
  168DOPC  H18Z20484   2.494   7.709   5.113 -1.4450 -0.0642 -0.8274
  169DOPC     N20485   1.341   0.729   7.200  0.5940  0.0694  0.2649
  169DOPC   C1220486   1.335   0.824   7.078 -0.0900 -0.2832  0.0523
  169DOPC  H12A20487   1.263   0.897   7.111 -1.8735 -1.5026 -0.9629
  169DOPC  H12B20488   1.288   0.778   6.992 -2.6764  1.8572  0.2057
  169DOPC   C1320489   1.446   0.624   7.185  0.6787  0.0115 -0.1388
  169DOPC  H13A20490   1.548   0.660   7.175  0.5729 -0.0155 -1.4465
  169DOPC  H13B20491   1.448   0.564   7.275 -0.1168 -1.2369 -0.9340
  169DOPC  H13C20492   1.434   0.559   7.100  0.8252  0.1176 -0.2418
  169DOPC   C1420493   1.202   0.675   7.217 -0.0400 -0.4680 -0.2349
  169DOPC  H14A20494   1.126   0.752   7.212 -0.1830 -0.6385 -0.7461
  169DOPC  H14B20495   1.179   0.605   7.138 -0.3728 -1.0344  0.3550
  169DOPC  H14C20496   1.189   0.622   7.311 -1.1550 -1.1843 -0.7746
  169DOPC   C1520497   1.379   0.806   7.319  1.1220 -0.2385  0.1690
  169DOPC  H15A20498   1.383   0.734   7.399  0.5982  1.4208  1.7324
  169DOPC  H15B20499   1.307   0.883   7.339  0.8506 -0.6610  0.8474
  169DOPC  H15C20500   1.478   0.848   7.325  1.2954 -0.7357  0.8070
  169DOPC   C1120501   1.456   0.907   7.034  0.4730  0.7218 -0.2771
  169DOPC  H11A20502   1.434   0.961   6.939  0.2468 -0.3107 -0.8282
  169DOPC  H11B20503   1.480   0.984   7.110  1.4279 -1.1755  1.4502
  169DOPC     P20504   1.717   0.892   6.984  0.1130  0.0214 -0.2386
  169DOPC   O1320505   1.816   0.806   7.057 -0.5130 -0.0830  0.3829
  169DOPC   O1420506   1.718   1.038   7.010  0.4744  0.0589  0.0645
  169DOPC   O1220507   1.572   0.830   7.011 -0.7600  0.3398 -0.0908
  169DOPC   O1120508   1.733   0.873   6.831 -0.4292 -0.1977 -0.2402
  169DOPC    C120509   1.673   0.963   6.744  0.5611  0.7346 -0.4365
  169DOPC    HA20510   1.754   0.989   6.672  2.4133 -0.2554  1.1821
  169DOPC    HB20511   1.630   1.054   6.791  1.1416  2.3767 -2.9093
  169DOPC    C220512   1.562   0.893   6.662  0.7600  0.1878 -0.7507
  169DOPC    HS20513   1.522   0.823   6.738  0.3058  1.5811  0.3488
  169DOPC   O2120514   1.623   0.827   6.549 -0.1987 -0.0873  0.4591
  169DOPC   C2120515   1.560   0.729   6.486  0.1618 -0.6224  0.6071
  169DOPC   O2220516   1.465   0.663   6.533 -0.4065 -0.2123  0.8336
  169DOPC   C2220517   1.632   0.705   6.353  0.0570  0.4626 -0.2393
  169DOPC   H2R20518   1.700   0.621   6.380 -0.2016  0.8112  1.6093
  169DOPC   H2S20519   1.705   0.786   6.331  0.5974  0.4432  1.3408
  169DOPC    C320520   1.448   0.987   6.607 -0.3568 -0.0571 -0.1157
  169DOPC    HX20521   1.500   1.055   6.536 -0.3697 -1.1941 -1.2576
  169DOPC    HY20522   1.412   1.045   6.694 -0.1881 -0.2923  0.1116
  169DOPC   O3120523   1.339   0.928   6.539  0.0607  0.4181  0.2987
  169DOPC   C3120524   1.251   0.873   6.621 -0.3931  0.0034  0.4178
  169DOPC   O3220525   1.266   0.861   6.743 -0.4317  0.0151  0.1727
  169DOPC   C3220526   1.135   0.823   6.531  0.3517 -0.4233 -0.1156
  169DOPC   H2X20527   1.050   0.893   6.550  2.5470  2.4669 -0.2554
  169DOPC   H2Y20528   1.169   0.829   6.426  0.6830  2.4576  0.0612
  169DOPC   C2320529   1.549   0.649   6.235 -0.0269 -0.1244  0.6295
  169DOPC   H3R20530   1.488   0.559   6.257 -1.6894  1.2599  2.0236
  169DOPC   H3S20531   1.627   0.611   6.165 -2.7221 -3.8079 -0.7047
  169DOPC   C2420532   1.468   0.751   6.154 -0.4434  0.4008 -0.1023
  169DOPC   H4R20533   1.535   0.823   6.103  1.2138 -0.6778  0.4722
  169DOPC   H4S20534   1.390   0.801   6.214 -1.3813 -0.6002 -0.4482
  169DOPC   C2520535   1.385   0.683   6.045 -0.5733 -0.0377  0.4272
  169DOPC   H5R20536   1.307   0.614   6.082 -1.7069  0.3236 -1.1824
  169DOPC   H5S20537   1.454   0.626   5.979  1.2966  1.4790  0.9650
  169DOPC   C2620538   1.309   0.779   5.956  0.0969  0.2449 -0.9899
  169DOPC   H6R20539   1.381   0.844   5.902  1.0409 -0.5651 -0.7374
  169DOPC   H6S20540   1.241   0.840   6.020  1.7155 -0.5983  1.7249
  169DOPC   C2720541   1.222   0.696   5.852  0.3709 -0.0181  0.3743
  169DOPC   H7R20542   1.171   0.615   5.908 -2.0451 -0.2082 -1.9441
  169DOPC   H7S20543   1.287   0.643   5.778 -1.1080 -0.5353 -0.5868
  169DOPC   C2820544   1.120   0.784   5.785 -0.2964  0.0783 -0.1578
  169DOPC   H8R20545   1.060   0.826   5.869 -1.5601 -1.2255 -0.3550
  169DOPC   H8S20546   1.051   0.746   5.706  1.1596 -1.7206 -0.6369
  169DOPC   C2920547   1.203   0.887   5.712 -0.0564 -0.2813  0.4295
  169DOPC   H9R20548   1.312   0.875   5.718  0.0812  0.2787 -0.7149
  169DOPC  C21020549   1.158   1.007   5.671 -1.1969  0.0112  0.4857
  169DOPC  H10R20550   1.215   1.069   5.600 -0.8216 -0.2517  0.5537
  169DOPC  C21120551   1.015   1.050   5.683  0.3315 -0.1836  0.2818
  169DOPC  H11R20552   1.006   1.153   5.723 -1.4474  0.4948 -1.6773
  169DOPC  H11S20553   0.949   0.990   5.749 -0.2182  0.7434  0.5845
  169DOPC  C21220554   0.947   1.038   5.545 -0.1684 -0.4098  0.3474
  169DOPC  H12R20555   0.838   1.043   5.566  0.0085  1.8466  1.0875
  169DOPC  H12S20556   0.961   0.941   5.494  2.7150  0.3333 -0.4756
  169DOPC  C21320557   0.987   1.144   5.446  0.3039 -0.0488  0.0397
  169DOPC  H13R20558   1.098   1.140   5.442  0.3709  0.0298  1.4296
  169DOPC  H13S20559   0.958   1.240   5.492 -0.1284  0.0385 -0.3981
  169DOPC  C21420560   0.925   1.126   5.308  0.2987 -0.3716 -0.2446
  169DOPC  H14R20561   0.823   1.088   5.329  0.2389 -0.5031 -0.7416
  169DOPC  H14S20562   0.985   1.056   5.245 -0.2061 -0.3406 -0.7643
  169DOPC  C21520563   0.904   1.252   5.223  0.5694  0.4404  0.1519
  169DOPC  H15R20564   1.002   1.292   5.190  1.2999 -2.2495 -1.1744
  169DOPC  H15S20565   0.834   1.322   5.274 -0.1219 -0.7087  0.8314
  169DOPC  C21620566   0.845   1.212   5.088  0.3093 -0.1656  0.5569
  169DOPC  H16R20567   0.754   1.148   5.093 -0.6081  1.0084 -0.4072
  169DOPC  H16S20568   0.919   1.154   5.028 -0.5529 -1.3905  0.6410
  169DOPC  C21720569   0.815   1.336   5.005  0.4486 -0.7102 -0.6423
  169DOPC  H17R20570   0.912   1.386   4.983  0.4908 -0.1685  0.6833
  169DOPC  H17S20571   0.759   1.408   5.068 -0.0411  0.1747 -2.0520
  169DOPC  C21820572   0.752   1.312   4.870  0.8021  0.2612  0.4608
  169DOPC  H18R20573   0.738   1.402   4.806  0.1139 -0.6033 -0.6355
  169DOPC  H18S20574   0.651   1.267   4.875  0.8407 -0.0869 -1.1915
  169DOPC  H18T20575   0.808   1.244   4.802 -1.6565  0.0307 -1.4625
  169DOPC   C3320576   1.099   0.673   6.560 -0.7954 -0.1416 -0.0677
  169DOPC   H3X20577   1.033   0.680   6.649  0.6172  1.2294  0.9206
  169DOPC   H3Y20578   1.193   0.619   6.581  0.1299  0.9017 -1.3211
  169DOPC   C3420579   1.017   0.607   6.452 -0.5985 -0.4383 -1.1016
  169DOPC   H4X20580   0.958   0.680   6.392  0.7285  2.0578  0.4300
  169DOPC   H4Y20581   0.951   0.531   6.500  0.8952 -1.3743 -0.4335
  169DOPC   C3520582   1.112   0.541   6.360 -0.2371 -0.1465  0.2072
  169DOPC   H5X20583   1.163   0.454   6.407 -0.7254 -0.8087 -0.4765
  169DOPC   H5Y20584   1.190   0.604   6.314  0.6496 -0.5813  1.0628
  169DOPC   C3620585   1.035   0.488   6.239 -0.6032 -0.0642 -0.4634
  169DOPC   H6X20586   1.007   0.577   6.178  0.3921 -0.3382 -1.3520
  169DOPC   H6Y20587   1.119   0.439   6.185  0.4665  0.0434  1.0184
  169DOPC   C3720588   0.922   0.388   6.260 -0.2394 -0.4259  0.0352
  169DOPC   H7X20589   0.952   0.328   6.348 -0.0458 -2.2475 -1.2218
  169DOPC   H7Y20590   0.828   0.446   6.272  2.0250  3.2178  2.1333
  169DOPC   C3820591   0.906   0.292   6.146 -0.2317  0.4354 -0.1402
  169DOPC   H8X20592   0.874   0.195   6.192  4.2693 -2.2843 -2.0440
  169DOPC   H8Y20593   1.006   0.266   6.105  0.2180 -1.8575  2.1070
  169DOPC   C3920594   0.816   0.341   6.039 -0.1870 -0.4223  0.0381
  169DOPC   H9X20595   0.707   0.347   6.058 -0.0655 -1.5901  1.1944
  169DOPC  C31020596   0.860   0.388   5.921 -0.2871 -0.5780  0.1565
  169DOPC  H10X20597   0.784   0.418   5.846 -0.8209  0.1397  0.9625
  169DOPC  C31120598   1.005   0.432   5.881  0.8117  0.2914  0.2017
  169DOPC  H11X20599   1.086   0.426   5.957  1.3164 -1.7253 -0.4427
  169DOPC  H11Y20600   1.006   0.541   5.861  1.2970  0.4482  1.0159
  169DOPC  C31220601   1.045   0.364   5.747 -0.1270 -0.5959 -0.8865
  169DOPC  H12X20602   1.034   0.254   5.756 -0.4243 -0.3854  2.4599
  169DOPC  H12Y20603   1.149   0.388   5.718  0.4493 -0.8673  0.8544
  169DOPC  C31320604   0.968   0.422   5.632  0.2319 -0.1776 -0.1353
  169DOPC  H13X20605   0.866   0.380   5.639  0.3492 -0.7791 -1.5897
  169DOPC  H13Y20606   0.962   0.533   5.633  0.1290 -0.1884  0.2722
  169DOPC  C31420607   1.017   0.387   5.495  0.6201  0.2491 -0.3057
  169DOPC  H14X20608   1.125   0.410   5.482  0.4750  0.7145 -0.7181
  169DOPC  H14Y20609   1.000   0.278   5.500 -0.0262  0.3973  1.3712
  169DOPC  C31520610   0.931   0.452   5.387  0.7149  0.1590  0.1219
  169DOPC  H15X20611   0.953   0.560   5.378  1.8375 -0.0779 -0.1854
  169DOPC  H15Y20612   0.822   0.445   5.405  0.3004 -1.7624 -2.4893
  169DOPC  C31620613   0.967   0.408   5.247 -0.4850  0.7543  0.8116
  169DOPC  H16X20614   0.918   0.484   5.183 -2.3440 -0.6232  0.5096
  169DOPC  H16Y20615   1.077   0.408   5.232 -0.6075 -0.8204 -0.3070
  169DOPC  C31720616   0.932   0.268   5.215  0.0230 -0.0953 -0.8099
  169DOPC  H17X20617   0.996   0.202   5.277  2.0459  1.2022 -1.4305
  169DOPC  H17Y20618   0.824   0.246   5.235  0.4146  0.0498  1.8279
  169DOPC  C31820619   0.940   0.241   5.069 -0.2921  0.2235  0.2075
  169DOPC  H18X20620   0.842   0.249   5.017 -1.3311 -4.1074  1.0975
  169DOPC  H18Y20621   1.015   0.299   5.011 -0.7801 -0.8263 -1.5724
  169DOPC  H18Z20622   0.954   0.131   5.054 -3.1352 -0.4924  1.9663
  170DOPC     N20623   6.789   7.349   7.463 -0.0143  0.0925 -0.1277
  170DOPC   C1220624   6.830   7.363   7.318  0.3086  0.3731 -0.0473
  170DOPC  H12A20625   6.787   7.454   7.278  4.3486  3.4073  1.8746
  170DOPC  H12B20626   6.793   7.276   7.265  1.2731  0.7742 -1.4236
  170DOPC   C1320627   6.836   7.223   7.517  0.2155 -0.1140 -0.3788
  170DOPC  H13A20628   6.944   7.222   7.522  0.1631 -1.3932  2.1073
  170DOPC  H13B20629   6.803   7.217   7.620 -1.7366 -0.3462 -0.9873
  170DOPC  H13C20630   6.803   7.134   7.466 -1.8094  1.5479 -2.1633
  170DOPC   C1420631   6.637   7.344   7.479 -0.1167 -0.1796  0.2329
  170DOPC  H14A20632   6.588   7.438   7.456 -1.0764 -0.5726  0.5987
  170DOPC  H14B20633   6.596   7.268   7.414  0.6775 -0.4173 -0.0042
  170DOPC  H14C20634   6.605   7.317   7.578 -0.2903 -2.1415 -0.3210
  170DOPC   C1520635   6.823   7.469   7.537  0.5704 -0.1551 -0.0354
  170DOPC  H15A20636   6.802   7.459   7.642 -1.9878  2.9269 -0.0887
  170DOPC  H15B20637   6.769   7.556   7.499  1.8923  0.6041 -0.2279
  170DOPC  H15C20638   6.926   7.497   7.520  0.5119 -0.1516 -0.4043
  170DOPC   C1120639   6.986   7.368   7.293 -0.1277  0.0501  0.0726
  170DOPC  H11A20640   7.028   7.291   7.361 -1.4344  1.4690  2.6363
  170DOPC  H11B20641   7.006   7.330   7.190 -2.1081 -2.0305  0.3776
  170DOPC     P20642   6.981   7.615   7.213  0.1132  0.0117  0.0365
  170DOPC   O1320643   7.100   7.693   7.168 -0.1165  0.0584 -0.2561
  170DOPC   O1420644   6.878   7.696   7.288 -0.3912 -0.6849  0.3656
  170DOPC   O1220645   7.037   7.500   7.314  0.1536  0.8264  0.1812
  170DOPC   O1120646   6.909   7.555   7.093 -0.0079 -0.2682  0.3258
  170DOPC    C120647   6.794   7.623   7.026  0.0501  0.6014 -0.0513
  170DOPC    HA20648   6.762   7.719   7.071  0.7743 -0.0266  1.9078
  170DOPC    HB20649   6.712   7.549   7.011 -0.2976  0.8137  0.7557
  170DOPC    C220650   6.818   7.669   6.880  0.0484 -0.1662  0.5486
  170DOPC    HS20651   6.731   7.733   6.854 -0.8230 -1.4496  0.1700
  170DOPC   O2120652   6.813   7.545   6.804  0.0438 -0.6991  0.3784
  170DOPC   C2120653   6.790   7.562   6.678  0.7274 -0.2837  0.6638
  170DOPC   O2220654   6.729   7.661   6.631 -0.0520  0.2379 -0.0208
  170DOPC   C2220655   6.835   7.436   6.596 -0.1077 -0.0308 -0.1995
  170DOPC   H2R20656   6.752   7.415   6.526  0.0347  0.3408 -0.4878
  170DOPC   H2S20657   6.855   7.356   6.670 -0.2914  2.0751  2.2702
  170DOPC    C320658   6.952   7.747   6.861 -0.2873  0.0201  0.1887
  170DOPC    HX20659   7.017   7.666   6.900 -2.3276 -1.5750  0.4580
  170DOPC    HY20660   6.963   7.836   6.928  0.4539 -1.6810  2.4390
  170DOPC   O3120661   6.984   7.775   6.723  0.2703  0.0427  0.0987
  170DOPC   C3120662   6.962   7.894   6.675 -0.0818 -0.8291 -0.5109
  170DOPC   O3220663   6.908   7.991   6.729  0.3599 -0.1363  0.0328
  170DOPC   C3220664   6.988   7.893   6.523  0.0118 -0.4896 -0.2850
  170DOPC   H2X20665   7.067   7.816   6.509 -1.3548 -1.4518 -3.7654
  170DOPC   H2Y20666   6.901   7.842   6.476 -0.7431  0.7385 -0.2755
  170DOPC   C2320667   6.957   7.445   6.502  0.1675  1.0240  0.8787
  170DOPC   H3R20668   6.995   7.342   6.491  0.6770  1.3729 -1.0020
  170DOPC   H3S20669   7.035   7.510   6.547 -0.4338  3.1439 -0.9632
  170DOPC   C2420670   6.930   7.505   6.360  0.0374  0.5923 -0.4955
  170DOPC   H4R20671   6.908   7.613   6.377  1.7930  0.8619  0.2578
  170DOPC   H4S20672   6.841   7.457   6.315  1.5905 -1.9203 -1.0751
  170DOPC   C2520673   7.043   7.484   6.259  0.2571  0.6852  0.4462
  170DOPC   H5R20674   7.055   7.374   6.266 -3.2698  0.0824 -1.0304
  170DOPC   H5S20675   7.135   7.541   6.285  0.8010  0.1914 -0.3458
  170DOPC   C2620676   6.984   7.503   6.114 -0.3208 -0.4916 -0.5617
  170DOPC   H6R20677   6.967   7.611   6.097 -0.5428 -0.2539  1.0068
  170DOPC   H6S20678   6.890   7.445   6.098 -0.9504  0.2619  0.3040
  170DOPC   C2720679   7.090   7.459   6.009 -0.1582 -0.0902 -0.9575
  170DOPC   H7R20680   7.098   7.352   6.036 -3.0387  0.0802  0.9558
  170DOPC   H7S20681   7.191   7.504   6.026 -0.6483  1.3562 -1.7376
  170DOPC   C2820682   7.049   7.480   5.865  0.2750 -0.8229 -0.2067
  170DOPC   H8R20683   6.940   7.480   5.845  0.3299  2.4116 -1.0467
  170DOPC   H8S20684   7.090   7.396   5.805  2.6384 -0.8145  1.2727
  170DOPC   C2920685   7.109   7.612   5.815  0.0084 -0.0951  0.1990
  170DOPC   H9R20686   7.105   7.698   5.884 -0.1627  1.4776 -1.6712
  170DOPC  C21020687   7.164   7.640   5.697 -0.0244 -0.7397  0.2860
  170DOPC  H10R20688   7.187   7.747   5.685 -2.8480  0.5355  4.1060
  170DOPC  C21120689   7.184   7.540   5.584 -0.0407 -0.3888  0.4634
  170DOPC  H11R20690   7.185   7.431   5.603 -0.5474 -0.7068 -1.2359
  170DOPC  H11S20691   7.283   7.562   5.538  0.0634  0.7715  1.1923
  170DOPC  C21220692   7.088   7.558   5.469  0.1598  0.4352  0.6881
  170DOPC  H12R20693   7.086   7.667   5.448 -2.1758  0.5188  0.9848
  170DOPC  H12S20694   6.986   7.524   5.498 -0.2970  1.8397  0.7997
  170DOPC  C21320695   7.129   7.480   5.348  0.2929  0.5158 -0.0013
  170DOPC  H13R20696   7.099   7.375   5.364 -1.1872  0.9962  0.5668
  170DOPC  H13S20697   7.238   7.485   5.328  0.4315 -0.3393  0.5046
  170DOPC  C21420698   7.050   7.523   5.221 -0.0778  0.3445 -0.3934
  170DOPC  H14R20699   7.106   7.607   5.175 -3.6802  2.3023 -1.6172
  170DOPC  H14S20700   6.955   7.570   5.255  1.0877  0.4966  3.0662
  170DOPC  C21520701   7.034   7.409   5.124  0.1546 -0.4869  0.2943
  170DOPC  H15R20702   6.980   7.322   5.168 -0.4534 -0.0744  0.3786
  170DOPC  H15S20703   7.136   7.371   5.103  0.5138 -0.3554  1.6781
  170DOPC  C21620704   6.954   7.452   4.993  0.3164 -0.0815  0.0101
  170DOPC  H16R20705   6.992   7.549   4.953 -0.6528  0.4757  0.3820
  170DOPC  H16S20706   6.849   7.475   5.022 -0.1638 -1.9057 -0.1982
  170DOPC  C21720707   6.953   7.342   4.898 -0.0496 -0.8319 -0.3817
  170DOPC  H17R20708   6.909   7.253   4.949 -0.5319  0.0597  0.8047
  170DOPC  H17S20709   7.060   7.328   4.870 -0.3268 -0.2218 -1.8131
  170DOPC  C21820710   6.874   7.369   4.768 -0.1609 -0.0578  0.0126
  170DOPC  H18R20711   6.874   7.281   4.701 -1.4294 -1.7850  2.1571
  170DOPC  H18S20712   6.927   7.451   4.714 -0.4540 -0.5832 -1.0993
  170DOPC  H18T20713   6.768   7.392   4.792 -0.5713 -1.4407 -0.3989
  170DOPC   C3320714   7.029   8.029   6.462  1.7541  0.5003 -0.4709
  170DOPC   H3X20715   7.105   8.065   6.536  0.3336  1.7586  0.4292
  170DOPC   H3Y20716   6.947   8.104   6.460  0.9066 -0.3557  0.6962
  170DOPC   C3420717   7.100   8.019   6.329 -0.1969 -0.6350 -0.2151
  170DOPC   H4X20718   7.180   7.943   6.339 -0.3571 -0.7778  0.0002
  170DOPC   H4Y20719   7.145   8.117   6.303 -0.2076 -0.6287 -0.2098
  170DOPC   C3520720   7.002   7.981   6.215 -0.0981 -0.3802  0.2524
  170DOPC   H5X20721   6.940   8.071   6.195 -1.9529 -1.7582 -0.4735
  170DOPC   H5Y20722   6.931   7.907   6.257  0.7464 -0.0018  2.4527
  170DOPC   C3620723   7.072   7.933   6.087 -0.8226  0.4613  0.3108
  170DOPC   H6X20724   7.163   7.880   6.119 -0.3217  0.8421 -0.4458
  170DOPC   H6Y20725   7.006   7.867   6.027 -0.1289  0.0994 -0.0527
  170DOPC   C3720726   7.110   8.051   5.998 -0.2513  0.0261  0.6031
  170DOPC   H7X20727   7.029   8.127   5.988 -1.7639 -1.6587 -0.5089
  170DOPC   H7Y20728   7.192   8.106   6.050 -3.3924  2.1420  3.7854
  170DOPC   C3820729   7.136   8.014   5.847 -0.1717 -0.6874 -0.0038
  170DOPC   H8X20730   7.038   7.990   5.801  0.5895  0.6998 -2.5320
  170DOPC   H8Y20731   7.211   7.933   5.837 -0.1174 -0.4768 -1.4852
  170DOPC   C3920732   7.191   8.132   5.761 -0.2145  0.0266 -0.4103
  170DOPC   H9X20733   7.287   8.175   5.793 -0.5247  0.4545 -0.0363
  170DOPC  C31020734   7.139   8.170   5.646  0.2642  0.5373 -0.4234
  170DOPC  H10X20735   7.187   8.253   5.592 -2.8416  0.7597 -3.1567
  170DOPC  C31120736   7.008   8.138   5.584  0.3986 -0.5987  0.2573
  170DOPC  H11X20737   6.959   8.233   5.553  1.9133  0.2758  0.4324
  170DOPC  H11Y20738   6.932   8.101   5.656 -0.8763  2.8924  0.9036
  170DOPC  C31220739   7.025   8.035   5.473 -0.0178  0.3735  0.7645
  170DOPC  H12X20740   7.042   7.935   5.519  0.5759 -0.1669 -0.5835
  170DOPC  H12Y20741   7.115   8.066   5.417  0.6888 -0.1100  1.6023
  170DOPC  C31320742   6.915   8.025   5.368  0.2529 -0.2183 -0.0134
  170DOPC  H13X20743   6.821   7.997   5.420 -0.5786  2.5126  0.0770
  170DOPC  H13Y20744   6.908   8.123   5.316 -0.4926  0.0454  0.5632
  170DOPC  C31420745   6.944   7.919   5.261 -0.1782 -0.2373  0.0975
  170DOPC  H14X20746   7.052   7.925   5.237  0.2533 -0.0224  1.9042
  170DOPC  H14Y20747   6.924   7.815   5.296  0.3502 -0.5697 -0.5787
  170DOPC  C31520748   6.851   7.931   5.146 -0.0377  0.0738 -0.4110
  170DOPC  H15X20749   6.857   8.032   5.100 -0.1486  0.0794 -0.4109
  170DOPC  H15Y20750   6.746   7.909   5.173 -0.2241  1.2185 -0.1879
  170DOPC  C31620751   6.888   7.828   5.037 -0.1317  0.1179  0.8967
  170DOPC  H16X20752   6.995   7.848   5.019 -0.4718  0.6102 -0.6701
  170DOPC  H16Y20753   6.873   7.723   5.072 -3.0560  0.0718 -0.1979
  170DOPC  C31720754   6.807   7.841   4.909 -0.3131 -0.8500  0.1483
  170DOPC  H17X20755   6.805   7.948   4.879  1.3821 -0.9616 -0.4854
  170DOPC  H17Y20756   6.855   7.788   4.824  2.2283  0.6060  0.5814
  170DOPC  C31820757   6.662   7.800   4.917 -0.1082 -0.0684  0.0224
  170DOPC  H18X20758   6.661   7.699   4.962 -0.0404 -0.5666 -1.0584
  170DOPC  H18Y20759   6.596   7.857   4.985  0.1800  0.9980 -0.5607
  170DOPC  H18Z20760   6.618   7.803   4.815  0.4165  0.5081 -0.1987
  171DOPC     N20761   5.528   3.669   2.521 -0.2503 -0.6061  0.1118
  171DOPC   C1220762   5.516   3.638   2.668  0.3204  0.3817  0.2638
  171DOPC  H12A20763   5.614   3.618   2.711  1.0163  0.8190 -1.0710
  171DOPC  H12B20764   5.458   3.548   2.683 -0.8947  1.4594  2.4153
  171DOPC   C1320765   5.394   3.702   2.458 -0.0828  0.7687  0.4709
  171DOPC  H13A20766   5.333   3.766   2.521  0.1991 -0.6894  2.3229
  171DOPC  H13B20767   5.410   3.741   2.359  2.3157 -0.6907  0.1868
  171DOPC  H13C20768   5.340   3.609   2.448 -0.1662  0.8617  0.0611
  171DOPC   C1420769   5.591   3.565   2.438  0.0668 -0.4536  0.2661
  171DOPC  H14A20770   5.693   3.542   2.465  0.3245 -1.4369 -1.4436
  171DOPC  H14B20771   5.535   3.472   2.440  0.3145 -0.6104 -0.0735
  171DOPC  H14C20772   5.598   3.595   2.335  0.5018  2.9935  1.1623
  171DOPC   C1520773   5.612   3.785   2.498 -0.0439  0.4364  0.3449
  171DOPC  H15A20774   5.701   3.784   2.559 -0.1999 -1.6159  0.5822
  171DOPC  H15B20775   5.562   3.871   2.541 -2.0567 -0.5355  0.0258
  171DOPC  H15C20776   5.630   3.804   2.393 -2.6190  3.2299  0.2703
  171DOPC   C1120777   5.446   3.726   2.769 -0.1738  0.3704 -0.5835
  171DOPC  H11A20778   5.458   3.683   2.871 -2.2217  1.0757 -0.0203
  171DOPC  H11B20779   5.492   3.826   2.780 -1.1866  0.8141 -0.3315
  171DOPC     P20780   5.197   3.659   2.796  0.1052 -0.3036 -0.0893
  171DOPC   O1320781   5.211   3.516   2.770 -0.0528 -0.2643 -0.2622
  171DOPC   O1420782   5.065   3.721   2.753  0.4194  0.5457  0.3316
  171DOPC   O1220783   5.311   3.741   2.733  0.2353 -0.0076  0.2936
  171DOPC   O1120784   5.220   3.693   2.952  0.3974  0.2419  0.6369
  171DOPC    C120785   5.211   3.816   3.010  0.1807 -0.9203 -0.3150
  171DOPC    HA20786   5.171   3.893   2.940  1.4721 -0.5556 -0.6868
  171DOPC    HB20787   5.313   3.847   3.040 -0.1187  0.1449 -0.3541
  171DOPC    C220788   5.116   3.823   3.142  1.0625 -0.0872 -0.4547
  171DOPC    HS20789   5.113   3.929   3.173  1.2726 -0.4352  0.8253
  171DOPC   O2120790   5.173   3.734   3.245  0.1490 -0.1009 -0.6145
  171DOPC   C2120791   5.159   3.784   3.371  0.7494  0.8297  0.8915
  171DOPC   O2220792   5.100   3.881   3.403 -0.0187 -0.0124  0.7687
  171DOPC   C2220793   5.208   3.669   3.463  0.0636 -0.9841  0.8834
  171DOPC   H2R20794   5.315   3.663   3.434  0.2319 -0.2364  1.3196
  171DOPC   H2S20795   5.164   3.570   3.439 -0.1877 -1.2903  2.4737
  171DOPC    C320796   4.968   3.782   3.104 -0.7188 -0.4307 -0.2201
  171DOPC    HX20797   4.980   3.673   3.086  0.0439 -0.9716  2.8657
  171DOPC    HY20798   4.944   3.827   3.006  2.9356  0.5696 -0.8132
  171DOPC   O3120799   4.878   3.809   3.211 -0.6119 -0.2942  0.1693
  171DOPC   C3120800   4.864   3.938   3.241 -0.2712 -0.9964  0.0977
  171DOPC   O3220801   4.900   4.035   3.177 -0.2739 -0.2890 -0.0114
  171DOPC   C3220802   4.775   3.944   3.365 -0.0009 -0.2255  0.1367
  171DOPC   H2X20803   4.692   3.870   3.356  0.1713 -0.4096  0.0494
  171DOPC   H2Y20804   4.839   3.919   3.452  0.3728  2.2428  0.6389
  171DOPC   C2320805   5.180   3.701   3.606 -0.4047  0.2343  0.8549
  171DOPC   H3R20806   5.079   3.747   3.603  0.8357  3.2298  1.7105
  171DOPC   H3S20807   5.254   3.778   3.636 -1.3541  1.8295 -0.7175
  171DOPC   C2420808   5.191   3.583   3.708  0.1811 -0.3389  0.1885
  171DOPC   H4R20809   5.289   3.533   3.692  0.4652 -0.7875  2.8648
  171DOPC   H4S20810   5.108   3.512   3.689  0.2995  0.1392 -2.4569
  171DOPC   C2520811   5.171   3.629   3.853 -1.1169  0.5361 -0.1369
  171DOPC   H5R20812   5.251   3.705   3.869  0.7681 -1.4599  0.4289
  171DOPC   H5S20813   5.181   3.551   3.931  0.6620  2.1306  1.3267
  171DOPC   C2620814   5.042   3.699   3.883 -0.1062  0.9189  0.3967
  171DOPC   H6R20815   4.960   3.625   3.868  2.0309 -1.5516  0.0516
  171DOPC   H6S20816   5.032   3.780   3.808  0.7076  1.2441  0.6313
  171DOPC   C2720817   5.019   3.746   4.032  0.3443 -0.0230  0.0955
  171DOPC   H7R20818   5.086   3.833   4.050 -0.6321  0.6105  0.7793
  171DOPC   H7S20819   5.050   3.656   4.089 -1.1660 -1.0817 -0.6870
  171DOPC   C2820820   4.875   3.785   4.061  0.6317  0.0855 -0.5131
  171DOPC   H8R20821   4.811   3.703   4.020 -2.2708  1.2649  1.3241
  171DOPC   H8S20822   4.838   3.882   4.023 -0.4407  0.4994  1.4803
  171DOPC   C2920823   4.862   3.792   4.211  1.0381  0.5092 -0.3264
  171DOPC   H9R20824   4.899   3.700   4.257 -0.8345 -0.0563  0.1286
  171DOPC  C21020825   4.843   3.896   4.293 -0.8932 -0.1830  0.1021
  171DOPC  H10R20826   4.854   3.883   4.402  0.0972 -0.1713  0.0170
  171DOPC  C21120827   4.820   4.036   4.240  0.3169 -0.4762 -0.1816
  171DOPC  H11R20828   4.787   4.033   4.134  1.2296  0.1585 -0.4935
  171DOPC  H11S20829   4.923   4.079   4.243  0.1498 -0.0988  2.5885
  171DOPC  C21220830   4.737   4.131   4.333  0.0874  0.1264 -0.8886
  171DOPC  H12R20831   4.731   4.232   4.288  0.7004 -0.1385 -1.5755
  171DOPC  H12S20832   4.789   4.129   4.432 -0.7383  0.3651 -0.4382
  171DOPC  C21320833   4.597   4.081   4.373 -0.5623  0.0131  0.1244
  171DOPC  H13R20834   4.603   3.981   4.422  2.3578 -0.5746 -1.1738
  171DOPC  H13S20835   4.546   4.064   4.276  1.8871 -2.1546 -0.9022
  171DOPC  C21420836   4.526   4.187   4.458 -0.7092  0.5321 -0.1749
  171DOPC  H14R20837   4.536   4.291   4.419  4.0220  0.3374  0.0037
  171DOPC  H14S20838   4.587   4.197   4.550  0.4802 -0.7955 -0.7868
  171DOPC  C21520839   4.382   4.157   4.489 -1.2395 -0.8067  0.0794
  171DOPC  H15R20840   4.374   4.059   4.542 -1.2527 -1.6524 -1.4322
  171DOPC  H15S20841   4.328   4.137   4.394 -0.4892 -1.2063 -0.2698
  171DOPC  C21620842   4.312   4.259   4.578  0.4175 -0.6474  0.6781
  171DOPC  H16R20843   4.373   4.266   4.670 -0.4473 -0.5784  1.2644
  171DOPC  H16S20844   4.208   4.223   4.597 -0.4819  1.2129 -0.4661
  171DOPC  C21720845   4.303   4.401   4.521  0.0715 -0.0849 -0.3603
  171DOPC  H17R20846   4.241   4.399   4.429 -1.6404  1.3879  0.6995
  171DOPC  H17S20847   4.398   4.441   4.479 -0.0853 -1.5885 -2.3068
  171DOPC  C21820848   4.217   4.504   4.599 -0.0264 -0.4722 -0.5596
  171DOPC  H18R20849   4.213   4.601   4.545  0.5406 -0.7465 -1.1108
  171DOPC  H18S20850   4.266   4.527   4.695 -0.8877 -0.1358 -0.1964
  171DOPC  H18T20851   4.114   4.474   4.625  0.7160 -1.6431  1.2610
  171DOPC   C3320852   4.721   4.082   3.395 -0.2627 -0.6798  0.3515
  171DOPC   H3X20853   4.654   4.076   3.484 -0.8960  1.0700  0.0378
  171DOPC   H3Y20854   4.655   4.124   3.317 -0.3060  1.4082  1.4164
  171DOPC   C3420855   4.820   4.194   3.447 -0.2831 -0.5796 -0.4530
  171DOPC   H4X20856   4.777   4.293   3.417  0.5638  0.5145  1.7495
  171DOPC   H4Y20857   4.919   4.182   3.398 -0.0512  0.6540 -0.3293
  171DOPC   C3520858   4.821   4.215   3.596 -0.4693 -0.3314  0.3591
  171DOPC   H5X20859   4.716   4.228   3.629 -0.8332 -0.0139 -0.8775
  171DOPC   H5Y20860   4.880   4.306   3.619  0.7413 -1.4856  2.1671
  171DOPC   C3620861   4.891   4.106   3.674  0.5435  0.5765 -0.6874
  171DOPC   H6X20862   4.822   4.019   3.670  1.0699  0.0449  0.9680
  171DOPC   H6Y20863   4.987   4.075   3.630  1.8437  2.1230  0.8695
  171DOPC   C3720864   4.916   4.135   3.820  0.2831 -0.4744 -0.4384
  171DOPC   H7X20865   4.941   4.040   3.871  1.1361  0.8766  1.8477
  171DOPC   H7Y20866   5.014   4.187   3.826  0.0580  0.3665 -3.0499
  171DOPC   C3820867   4.799   4.207   3.896 -0.2405 -0.4279  0.1383
  171DOPC   H8X20868   4.783   4.312   3.863  1.1943  0.0523  0.8894
  171DOPC   H8Y20869   4.836   4.224   4.000 -0.6161 -2.1080  0.5646
  171DOPC   C3920870   4.675   4.127   3.892  0.3797  0.3630  0.3188
  171DOPC   H9X20871   4.695   4.021   3.875 -1.6982  0.1357 -1.2361
  171DOPC  C31020872   4.548   4.163   3.928  0.8313  0.4352 -0.4330
  171DOPC  H10X20873   4.465   4.090   3.934  0.9665  0.2157 -1.2128
  171DOPC  C31120874   4.510   4.305   3.961  0.4924  0.2231 -0.6040
  171DOPC  H11X20875   4.488   4.354   3.864  0.3961 -0.4954 -0.9515
  171DOPC  H11Y20876   4.599   4.355   4.007 -1.2850  0.4527  2.9537
  171DOPC  C31220877   4.408   4.332   4.079 -0.1195 -0.2629  0.7807
  171DOPC  H12X20878   4.379   4.440   4.081 -1.4469 -0.6001  0.5743
  171DOPC  H12Y20879   4.452   4.306   4.178  0.1902 -4.2389 -0.2311
  171DOPC  C31320880   4.281   4.261   4.044  0.0428  0.3954 -0.3649
  171DOPC  H13X20881   4.234   4.303   3.952 -0.2211  1.4989  0.2585
  171DOPC  H13Y20882   4.300   4.153   4.024  1.6914  0.4558  0.6461
  171DOPC  C31420883   4.183   4.283   4.156 -0.0120 -0.6169 -0.2388
  171DOPC  H14X20884   4.217   4.262   4.260 -1.6404 -0.2120  0.4141
  171DOPC  H14Y20885   4.157   4.391   4.160  0.8452 -0.4428  1.3553
  171DOPC  C31520886   4.046   4.207   4.134  0.0891  0.4084  0.5426
  171DOPC  H15X20887   4.070   4.100   4.153 -1.9536 -0.2618 -0.2847
  171DOPC  H15Y20888   4.020   4.205   4.025 -0.8854 -0.2456  0.7728
  171DOPC  C31620889   3.926   4.261   4.213  0.4663 -0.3596  0.3198
  171DOPC  H16X20890   3.893   4.362   4.179  2.4937  1.1310  2.4566
  171DOPC  H16Y20891   3.850   4.181   4.202  0.1432 -0.1585  1.0195
  171DOPC  C31720892   3.941   4.263   4.367 -0.3535  0.2804  0.2064
  171DOPC  H17X20893   3.987   4.166   4.394  0.9246  0.2661 -1.8389
  171DOPC  H17Y20894   4.015   4.343   4.389 -0.0434 -0.4614  2.0004
  171DOPC  C31820895   3.815   4.298   4.437  0.5135  0.0374 -0.1972
  171DOPC  H18X20896   3.824   4.324   4.545 -0.4244 -1.9733  0.4263
  171DOPC  H18Y20897   3.775   4.386   4.383 -2.1019 -1.4085 -0.7712
  171DOPC  H18Z20898   3.737   4.223   4.414  3.1453 -2.2899 -2.2099
  172DOPC     N20899   3.960   5.024   2.968  0.1769 -0.5059  0.6507
  172DOPC   C1220900   3.817   5.004   2.909 -0.4380  0.3860  0.0453
  172DOPC  H12A20901   3.812   5.056   2.815  1.1238 -0.0133 -0.2979
  172DOPC  H12B20902   3.753   5.051   2.982 -0.0007  1.6110 -0.3240
  172DOPC   C1320903   4.008   5.168   2.957 -0.2299 -0.5175  0.0872
  172DOPC  H13A20904   4.107   5.162   3.001 -0.8652 -1.0653  1.5025
  172DOPC  H13B20905   4.034   5.191   2.855 -0.5204 -2.0097 -0.3351
  172DOPC  H13C20906   3.956   5.244   3.013  1.4007 -0.2165  1.2775
  172DOPC   C1420907   4.050   4.928   2.901 -0.1546  0.1069  0.3939
  172DOPC  H14A20908   4.154   4.935   2.932 -0.0715 -0.2378  0.1977
  172DOPC  H14B20909   4.010   4.828   2.899 -0.3548  0.1694  1.1049
  172DOPC  H14C20910   4.056   4.958   2.797 -0.0150 -2.7419 -0.5020
  172DOPC   C1520911   3.960   4.989   3.120 -0.4018  0.1114  0.9026
  172DOPC  H15A20912   4.057   5.010   3.163 -0.2654  0.9587  0.2195
  172DOPC  H15B20913   3.923   4.890   3.139  1.7449 -1.1145 -0.8495
  172DOPC  H15C20914   3.887   5.058   3.160 -1.1299  1.2097 -1.9927
  172DOPC   C1120915   3.767   4.856   2.881  0.6250 -0.0528 -0.2253
  172DOPC  H11A20916   3.676   4.872   2.820  0.2473 -0.2138  0.2916
  172DOPC  H11B20917   3.832   4.808   2.805 -0.9919 -1.1418 -0.9659
  172DOPC     P20918   3.612   4.769   3.064  0.1464  0.5410 -0.0999
  172DOPC   O1320919   3.527   4.685   2.978  0.0060 -0.0470 -0.1042
  172DOPC   O1420920   3.567   4.904   3.104  0.4402  0.0516  0.3166
  172DOPC   O1220921   3.755   4.783   2.993  0.1416  0.1828 -0.0396
  172DOPC   O1120922   3.644   4.684   3.199  0.2787 -0.4968  0.0137
  172DOPC    C120923   3.548   4.619   3.282  0.0033  0.5654 -0.0223
  172DOPC    HA20924   3.600   4.534   3.332  1.7844  1.6121  0.0015
  172DOPC    HB20925   3.473   4.562   3.222  0.8530 -2.4147  1.5301
  172DOPC    C220926   3.475   4.707   3.385 -0.9681 -0.3879  0.3686
  172DOPC    HS20927   3.450   4.805   3.337 -2.0691 -1.7031 -1.9014
  172DOPC   O2120928   3.570   4.715   3.495  0.0294 -0.5664 -0.3912
  172DOPC   C2120929   3.581   4.828   3.551  0.5179 -0.0940 -0.3619
  172DOPC   O2220930   3.525   4.932   3.515  0.0250  0.6371  0.4558
  172DOPC   C2220931   3.666   4.825   3.678 -0.2052 -0.2245  0.3289
  172DOPC   H2R20932   3.656   4.926   3.724  1.7521 -0.1134  0.5657
  172DOPC   H2S20933   3.771   4.812   3.647 -0.8362  0.9136 -2.7188
  172DOPC    C320934   3.345   4.643   3.433  0.2515 -0.0350 -0.3237
  172DOPC    HX20935   3.390   4.550   3.474 -2.9347 -1.5570  0.0697
  172DOPC    HY20936   3.282   4.618   3.345 -0.5401 -0.6969  0.4074
  172DOPC   O3120937   3.274   4.713   3.541 -0.0150 -0.2224 -0.0179
  172DOPC   C3120938   3.160   4.767   3.504 -0.5697 -0.1438  0.3039
  172DOPC   O3220939   3.122   4.787   3.390  0.0956 -0.1572  0.2897
  172DOPC   C3220940   3.077   4.807   3.631 -0.1810  0.4343  0.0908
  172DOPC   H2X20941   3.136   4.776   3.720 -1.1584  2.0431  1.3665
  172DOPC   H2Y20942   3.073   4.918   3.629 -0.4948  0.4536  1.0685
  172DOPC   C2320943   3.610   4.714   3.782 -0.0966 -0.0674  0.4895
  172DOPC   H3R20944   3.585   4.622   3.727 -1.6398  0.4497  0.2791
  172DOPC   H3S20945   3.524   4.751   3.842  0.8673 -1.2004  2.6743
  172DOPC   C2420946   3.712   4.671   3.893  0.5068  0.1644  0.3078
  172DOPC   H4R20947   3.815   4.657   3.854  0.5361 -1.7435  0.9432
  172DOPC   H4S20948   3.680   4.569   3.926  0.3672  0.6099  1.5926
  172DOPC   C2520949   3.704   4.756   4.020  0.5927 -0.0889  0.5279
  172DOPC   H5R20950   3.600   4.750   4.061 -0.1109 -0.3460 -1.1853
  172DOPC   H5S20951   3.714   4.865   4.002  1.1358 -0.4519 -1.5682
  172DOPC   C2620952   3.808   4.707   4.127  0.1559  0.0127 -0.1957
  172DOPC   H6R20953   3.797   4.600   4.154  1.4531  0.0346  0.5208
  172DOPC   H6S20954   3.792   4.766   4.220 -1.1193 -1.0424  0.2750
  172DOPC   C2720955   3.952   4.728   4.077  0.2574  0.2255 -0.0654
  172DOPC   H7R20956   3.971   4.834   4.049  0.4498  0.9252  2.4607
  172DOPC   H7S20957   3.977   4.666   3.988  2.4175  0.3452  0.3910
  172DOPC   C2820958   4.062   4.690   4.186 -1.1817 -0.4304  0.4330
  172DOPC   H8R20959   4.038   4.590   4.228  1.2907 -1.2897 -0.0411
  172DOPC   H8S20960   4.056   4.763   4.269  0.7690  0.4287 -0.1220
  172DOPC   C2920961   4.202   4.678   4.131 -0.3619  0.1172 -0.3581
  172DOPC   H9R20962   4.210   4.643   4.027  1.0950 -0.2294 -0.1508
  172DOPC  C21020963   4.315   4.725   4.192  0.2000 -0.7488 -0.5752
  172DOPC  H10R20964   4.410   4.725   4.137  0.0504  1.5763 -0.9242
  172DOPC  C21120965   4.321   4.804   4.323  0.2537 -0.0372 -0.0852
  172DOPC  H11R20966   4.401   4.764   4.390 -0.2472  1.0931  1.2465
  172DOPC  H11S20967   4.227   4.792   4.381  0.2795  1.0851  0.2144
  172DOPC  C21220968   4.349   4.957   4.297 -0.4551  0.1022 -0.2602
  172DOPC  H12R20969   4.427   4.962   4.218  0.4916 -1.0589  0.5694
  172DOPC  H12S20970   4.400   4.992   4.390  0.9437  0.3557 -1.1019
  172DOPC  C21320971   4.223   5.033   4.259 -0.3030 -0.0055  0.2242
  172DOPC  H13R20972   4.145   5.023   4.338 -1.0529  0.4768 -0.4484
  172DOPC  H13S20973   4.185   4.992   4.163 -1.5453  0.7379  0.3749
  172DOPC  C21420974   4.243   5.176   4.242  0.1253  0.0051 -0.4716
  172DOPC  H14R20975   4.329   5.183   4.172  0.3887 -0.4379 -0.1935
  172DOPC  H14S20976   4.254   5.236   4.335 -1.1306  2.0264 -1.5557
  172DOPC  C21520977   4.117   5.249   4.186 -0.6745 -0.1273  0.9381
  172DOPC  H15R20978   4.027   5.233   4.249  0.2663  0.4413  2.5011
  172DOPC  H15S20979   4.091   5.206   4.087 -2.4961  1.6216  0.5745
  172DOPC  C21620980   4.140   5.398   4.167  0.1348  0.1631 -0.3514
  172DOPC  H16R20981   4.229   5.430   4.109  1.9259 -0.6041  1.8029
  172DOPC  H16S20982   4.137   5.439   4.270  1.7410 -0.7543  0.0998
  172DOPC  C21720983   4.012   5.458   4.110  0.4508  0.3121  0.1366
  172DOPC  H17R20984   4.024   5.568   4.117  0.3874  0.3433 -0.2739
  172DOPC  H17S20985   3.927   5.418   4.170  0.3416  0.1509 -0.1213
  172DOPC  C21820986   3.977   5.419   3.967 -0.6893  0.3374  0.8089
  172DOPC  H18R20987   3.873   5.448   3.942  0.2663  1.1885 -2.6886
  172DOPC  H18S20988   3.970   5.310   3.950 -2.2772  0.3438  1.3053
  172DOPC  H18T20989   4.042   5.461   3.887 -1.3347 -2.0948 -1.1018
  172DOPC   C3320990   2.935   4.747   3.620  0.0024  0.6785 -0.1803
  172DOPC   H3X20991   2.885   4.776   3.524 -1.8837 -0.8534  0.2784
  172DOPC   H3Y20992   2.881   4.808   3.696 -1.8218  0.7612 -1.4603
  172DOPC   C3420993   2.925   4.601   3.636 -0.6014 -0.0430  0.1585
  172DOPC   H4X20994   3.026   4.555   3.638 -0.6747 -0.7616 -3.9857
  172DOPC   H4Y20995   2.895   4.564   3.535 -1.5362 -0.5279  0.6042
  172DOPC   C3520996   2.821   4.571   3.751  0.0135  0.6275  0.3580
  172DOPC   H5X20997   2.766   4.475   3.740  0.4088  0.5931 -1.7781
  172DOPC   H5Y20998   2.745   4.651   3.754 -1.2859 -0.5934  1.3455
  172DOPC   C3620999   2.891   4.567   3.890 -0.1132  0.0769 -0.3129
  172DOPC   H6X21000   2.983   4.508   3.871 -0.0109 -0.1831  0.8960
  172DOPC   H6Y21001   2.913   4.675   3.902  0.4737 -0.1625  0.9176
  172DOPC   C3721002   2.801   4.527   4.010 -1.1091 -0.7602  0.6789
  172DOPC   H7X21003   2.773   4.420   4.003 -1.6445 -0.5442 -0.8201
  172DOPC   H7Y21004   2.850   4.550   4.107  1.0949 -2.3427  0.0205
  172DOPC   C3821005   2.665   4.596   4.007 -0.7374 -0.9140  0.4457
  172DOPC   H8X21006   2.614   4.572   3.911  0.0149 -0.3626 -0.1056
  172DOPC   H8Y21007   2.691   4.704   4.001 -0.1798 -1.0664  0.0609
  172DOPC   C3921008   2.574   4.571   4.121 -0.9185 -0.0390 -0.2701
  172DOPC   H9X21009   2.506   4.488   4.098 -0.2578 -1.0131  1.1210
  172DOPC  C31021010   2.564   4.627   4.241 -0.3340  0.0500  0.8940
  172DOPC  H10X21011   2.491   4.589   4.314  0.7396 -2.6914  0.6912
  172DOPC  C31121012   2.644   4.739   4.295  0.4610  0.3080  0.1978
  172DOPC  H11X21013   2.754   4.741   4.278  0.3393  2.3941 -0.6778
  172DOPC  H11Y21014   2.619   4.736   4.403 -1.8137  2.1367 -0.2089
  172DOPC  C31221015   2.598   4.868   4.233  0.2960 -0.0944  0.2631
  172DOPC  H12X21016   2.488   4.880   4.245 -0.2354 -2.2505 -1.7003
  172DOPC  H12Y21017   2.605   4.862   4.122 -0.0313  2.5448  0.0300
  172DOPC  C31321018   2.678   4.995   4.266  0.7184 -0.4064  0.5751
  172DOPC  H13X21019   2.784   4.993   4.233  0.2812  0.4367 -0.9528
  172DOPC  H13Y21020   2.628   5.077   4.211 -1.1550 -1.8034  0.0785
  172DOPC  C31421021   2.672   5.037   4.415 -0.0305  0.6400 -0.6577
  172DOPC  H14X21022   2.566   5.047   4.449  0.2183  0.8760  0.0658
  172DOPC  H14Y21023   2.707   4.948   4.471 -2.7147 -0.0245  0.1606
  172DOPC  C31521024   2.754   5.166   4.446 -0.0027  0.5317 -0.3236
  172DOPC  H15X21025   2.733   5.250   4.376  0.7311 -0.9441 -2.4094
  172DOPC  H15Y21026   2.855   5.137   4.412 -0.3530 -0.7961 -0.2852
  172DOPC  C31621027   2.747   5.199   4.592 -0.2738 -0.0283  0.1862
  172DOPC  H16X21028   2.648   5.205   4.642 -0.5945  0.0502 -0.4529
  172DOPC  H16Y21029   2.795   5.116   4.648 -0.3808  0.5216  1.1232
  172DOPC  C31721030   2.823   5.323   4.631 -0.0590 -0.4906  0.4577
  172DOPC  H17X21031   2.917   5.330   4.572 -1.0036 -1.0318 -1.1839
  172DOPC  H17Y21032   2.757   5.409   4.607 -1.0112 -0.7119  2.1760
  172DOPC  C31821033   2.855   5.317   4.775  0.1345  1.3991  0.1950
  172DOPC  H18X21034   2.951   5.268   4.800 -1.6123 -0.6842  3.5755
  172DOPC  H18Y21035   2.879   5.418   4.813  2.0471  1.6512 -1.5209
  172DOPC  H18Z21036   2.790   5.258   4.843  5.1047 -1.6808  2.8094
  173DOPC     N21037   1.924   4.049   2.898 -0.1708  0.0735 -0.4854
  173DOPC   C1221038   1.887   3.900   2.876 -0.0403  0.2207  0.0035
  173DOPC  H12A21039   1.862   3.896   2.771  1.8989  0.4236 -0.4924
  173DOPC  H12B21040   1.795   3.881   2.930  1.3885  0.0306  2.5064
  173DOPC   C1321041   1.798   4.132   2.899 -0.5779  0.2751  0.3805
  173DOPC  H13A21042   1.813   4.236   2.925 -0.4825  0.5576 -0.7381
  173DOPC  H13B21043   1.750   4.128   2.802  2.2218 -0.2372 -1.0832
  173DOPC  H13C21044   1.730   4.095   2.974 -2.8185  1.5555 -0.8864
  173DOPC   C1421045   2.033   4.096   2.802  0.1634  0.0582 -0.7483
  173DOPC  H14A21046   2.041   4.203   2.805 -0.8736  0.1324  0.7245
  173DOPC  H14B21047   2.130   4.061   2.834  0.1650 -0.0509 -0.8725
  173DOPC  H14C21048   2.007   4.080   2.699 -0.4192  3.0409 -1.1399
  173DOPC   C1521049   1.977   4.071   3.035 -0.1955 -0.1407 -0.3930
  173DOPC  H15A21050   2.002   4.176   3.037 -0.3368 -0.1102 -0.2144
  173DOPC  H15B21051   2.072   4.023   3.051  1.0612  2.2555 -0.3368
  173DOPC  H15C21052   1.912   4.031   3.111 -1.6608  1.6394 -0.6421
  173DOPC   C1121053   1.990   3.782   2.914  0.6523  0.6244  0.3590
  173DOPC  H11A21054   2.015   3.767   3.021  1.4157  0.5519  0.1725
  173DOPC  H11B21055   1.935   3.689   2.885  1.1742  0.4299 -0.0222
  173DOPC     P21056   2.251   3.777   2.864 -0.2394  0.0972 -0.0358
  173DOPC   O1321057   2.335   3.874   2.790  0.6676 -0.1174  0.2831
  173DOPC   O1421058   2.301   3.637   2.851 -0.4269  0.0080 -0.4201
  173DOPC   O1221059   2.101   3.787   2.828 -0.2351  0.0309 -0.5096
  173DOPC   O1121060   2.250   3.807   3.020 -0.1189 -0.4121 -0.2371
  173DOPC    C121061   2.371   3.867   3.070  0.0119 -0.0968 -0.2074
  173DOPC    HA21062   2.348   3.909   3.170  4.1759  0.2870  0.7946
  173DOPC    HB21063   2.398   3.951   3.003  0.1324 -0.3848 -0.5212
  173DOPC    C221064   2.492   3.768   3.087  0.2199 -0.5007  0.2240
  173DOPC    HS21065   2.508   3.704   2.999  1.2557 -0.2132  0.1939
  173DOPC   O2121066   2.460   3.683   3.194  0.6537  0.0108 -0.0946
  173DOPC   C2121067   2.535   3.577   3.210 -0.3793 -0.2126  0.6739
  173DOPC   O2221068   2.617   3.533   3.132 -0.5454  0.4217 -0.5322
  173DOPC   C2221069   2.508   3.505   3.334 -0.1591 -0.0924 -0.1186
  173DOPC   H2R21070   2.594   3.438   3.356 -0.3547 -0.4133 -0.3254
  173DOPC   H2S21071   2.413   3.448   3.324  0.7106 -1.9828  1.4899
  173DOPC    C321072   2.629   3.842   3.124 -0.0803 -0.0337  0.1614
  173DOPC    HX21073   2.656   3.895   3.030 -0.7553 -0.2385 -0.1556
  173DOPC    HY21074   2.710   3.768   3.145 -0.0409  0.1123  0.5289
  173DOPC   O3121075   2.619   3.923   3.238 -0.1189  0.2351  0.2363
  173DOPC   C3121076   2.741   3.974   3.277 -0.5357  0.3749 -0.1319
  173DOPC   O3221077   2.843   3.968   3.208 -0.2049 -0.0172  0.3469
  173DOPC   C3221078   2.720   4.046   3.411 -0.4488  0.1764  0.2255
  173DOPC   H2X21079   2.662   4.137   3.385 -1.1289 -0.3447 -0.1297
  173DOPC   H2Y21080   2.648   3.988   3.473 -0.8127 -0.8254 -1.0986
  173DOPC   C2321081   2.471   3.589   3.461  0.3151  0.4619 -0.0037
  173DOPC   H3R21082   2.441   3.522   3.544  1.7382 -0.7501 -0.4202
  173DOPC   H3S21083   2.391   3.662   3.437  0.3479 -0.1782 -2.3520
  173DOPC   C2421084   2.595   3.656   3.520  0.2577 -0.3503 -0.5391
  173DOPC   H4R21085   2.629   3.737   3.453 -3.5126  0.5947 -1.5760
  173DOPC   H4S21086   2.677   3.584   3.505 -0.3681 -0.7602 -2.1584
  173DOPC   C2521087   2.585   3.690   3.671 -0.1449  0.6034  0.4135
  173DOPC   H5R21088   2.555   3.602   3.733 -1.8956  2.4978  2.4296
  173DOPC   H5S21089   2.516   3.773   3.698 -2.2207 -0.4641 -1.2471
  173DOPC   C2621090   2.725   3.739   3.726  0.7892  0.0668  0.0578
  173DOPC   H6R21091   2.730   3.845   3.692 -0.4127  0.6510  1.5997
  173DOPC   H6S21092   2.809   3.673   3.698 -0.8205 -1.7492 -0.7349
  173DOPC   C2721093   2.718   3.747   3.881  0.0916  0.1931  0.3053
  173DOPC   H7R21094   2.621   3.796   3.906  1.1124  2.5155 -0.0222
  173DOPC   H7S21095   2.786   3.828   3.913 -1.5341  1.0314  1.8532
  173DOPC   C2821096   2.728   3.623   3.961 -0.2079  0.2307 -0.1855
  173DOPC   H8R21097   2.652   3.545   3.938  0.9621 -0.5501 -1.5983
  173DOPC   H8S21098   2.706   3.654   4.065  1.1585 -0.5597  0.3687
  173DOPC   C2921099   2.864   3.556   3.944  0.8534  1.0118  0.0837
  173DOPC   H9R21100   2.901   3.559   3.841  0.9426  1.0209  0.1153
  173DOPC  C21021101   2.947   3.510   4.041 -0.2262 -0.2724  0.4110
  173DOPC  H10R21102   3.042   3.464   4.011  0.2058  0.8282  0.0537
  173DOPC  C21121103   2.915   3.516   4.185 -0.4214  0.9005  0.5495
  173DOPC  H11R21104   2.961   3.429   4.236 -2.1330 -1.1324 -1.1944
  173DOPC  H11S21105   2.805   3.504   4.197 -0.4341 -2.0929 -1.4113
  173DOPC  C21221106   2.964   3.643   4.259  0.5470 -0.4246  0.2925
  173DOPC  H12R21107   2.927   3.732   4.203 -0.3505  0.2476  1.8823
  173DOPC  H12S21108   3.073   3.646   4.279  1.2755 -1.8062 -2.8233
  173DOPC  C21321109   2.886   3.669   4.389 -0.9105 -0.7891  0.5108
  173DOPC  H13R21110   2.928   3.606   4.470 -0.1419  1.1958  1.7466
  173DOPC  H13S21111   2.777   3.645   4.383 -1.1654  0.4580 -0.1302
  173DOPC  C21421112   2.904   3.812   4.440 -0.2396 -0.3379  0.1910
  173DOPC  H14R21113   2.865   3.879   4.361  0.2154  0.4217  0.5953
  173DOPC  H14S21114   3.012   3.837   4.447 -0.2502 -0.2792  0.1429
  173DOPC  C21521115   2.833   3.835   4.576 -0.6775  0.3312  0.4587
  173DOPC  H15R21116   2.729   3.796   4.580 -0.9768  0.9284 -0.7556
  173DOPC  H15S21117   2.831   3.946   4.576  2.3399  0.4534  1.4698
  173DOPC  C21621118   2.908   3.783   4.699 -0.0295  0.7751  0.1922
  173DOPC  H16R21119   3.018   3.792   4.686 -0.0307  1.6730  0.7608
  173DOPC  H16S21120   2.894   3.673   4.705  0.9675  0.5020 -1.6522
  173DOPC  C21721121   2.870   3.856   4.823  0.3822 -0.4859  0.0182
  173DOPC  H17R21122   2.759   3.861   4.820  0.4578  2.1156 -0.3093
  173DOPC  H17S21123   2.907   3.960   4.819  1.9380 -0.9585  1.4364
  173DOPC  C21821124   2.927   3.791   4.945 -0.4354 -0.5254 -0.1431
  173DOPC  H18R21125   2.924   3.680   4.939  0.2381 -0.5382 -0.3119
  173DOPC  H18S21126   2.879   3.839   5.033 -2.0162 -2.2139 -0.0273
  173DOPC  H18T21127   3.031   3.821   4.969 -1.2176  0.8726  1.7943
  173DOPC   C3321128   2.856   4.065   3.472 -0.3267  0.2951  0.3632
  173DOPC   H3X21129   2.934   4.119   3.414 -0.0986 -0.2569  0.1526
  173DOPC   H3Y21130   2.895   3.966   3.504  0.2391 -0.0782 -1.3690
  173DOPC   C3421131   2.832   4.137   3.613 -0.1087 -0.2369 -0.0710
  173DOPC   H4X21132   2.789   4.061   3.682  0.9747 -1.4424 -0.6958
  173DOPC   H4Y21133   2.767   4.228   3.606 -0.1908 -0.1502  1.5162
  173DOPC   C3521134   2.964   4.196   3.658 -0.6135  1.2593 -0.4177
  173DOPC   H5X21135   2.978   4.291   3.603  2.5757  2.0833  1.5128
  173DOPC   H5Y21136   3.048   4.130   3.625  1.6592  2.9952  1.5629
  173DOPC   C3621137   2.972   4.222   3.811 -0.2129  0.6864 -0.3135
  173DOPC   H6X21138   3.054   4.296   3.817 -1.5371  2.1372  0.4965
  173DOPC   H6Y21139   2.882   4.269   3.856 -0.7341 -0.1808 -0.4221
  173DOPC   C3721140   3.009   4.096   3.906  0.3308 -0.0628  0.3628
  173DOPC   H7X21141   2.921   4.028   3.905 -0.8390  1.3871 -1.0872
  173DOPC   H7Y21142   3.093   4.042   3.857  1.0494  0.5885  0.8810
  173DOPC   C3821143   3.047   4.131   4.050 -0.4371  0.8856  0.2445
  173DOPC   H8X21144   2.953   4.178   4.089 -0.5249  0.0945  1.0381
  173DOPC   H8Y21145   3.125   4.209   4.043  1.5590 -0.9058  1.0976
  173DOPC   C3921146   3.091   4.008   4.129  0.2833 -0.2675  0.2513
  173DOPC   H9X21147   3.022   3.923   4.118 -0.4819  0.1418  1.5850
  173DOPC  C31021148   3.192   3.988   4.214  0.0310  0.2462  0.5452
  173DOPC  H10X21149   3.210   3.886   4.250  2.6873  0.2367 -0.5981
  173DOPC  C31121150   3.297   4.085   4.274 -0.1897  0.5256 -0.0150
  173DOPC  H11X21151   3.285   4.097   4.384  0.9476  0.0222  0.1832
  173DOPC  H11Y21152   3.266   4.185   4.237 -1.7411  0.1346  0.1627
  173DOPC  C31221153   3.445   4.062   4.236 -0.3598  0.0839 -0.6054
  173DOPC  H12X21154   3.506   4.133   4.296 -2.1877  0.7559  0.5399
  173DOPC  H12Y21155   3.462   4.095   4.131 -1.7132  1.1035 -0.5370
  173DOPC  C31321156   3.494   3.918   4.264  0.1824  0.0172 -0.8138
  173DOPC  H13X21157   3.462   3.892   4.367  1.4099  0.0776 -0.4019
  173DOPC  H13Y21158   3.442   3.850   4.194  1.5102 -1.3534 -0.5051
  173DOPC  C31421159   3.645   3.886   4.241 -0.6867  0.6618  0.5426
  173DOPC  H14X21160   3.665   3.779   4.221  1.0463  1.3628 -1.8694
  173DOPC  H14Y21161   3.677   3.936   4.147  1.0737 -1.2238  0.0759
  173DOPC  C31521162   3.730   3.918   4.362 -0.3524 -0.0729 -0.0467
  173DOPC  H15X21163   3.680   3.877   4.453  0.3128  1.1832  0.9287
  173DOPC  H15Y21164   3.734   4.027   4.385 -3.0331 -0.1007  0.9040
  173DOPC  C31621165   3.875   3.878   4.355  0.3011  0.1335  0.2488
  173DOPC  H16X21166   3.895   3.786   4.295  1.6116  1.6264 -1.7240
  173DOPC  H16Y21167   3.930   3.953   4.293 -0.2842  0.2334 -0.1590
  173DOPC  C31721168   3.931   3.877   4.499  0.2871 -0.3703 -0.1171
  173DOPC  H17X21169   3.931   3.982   4.537  0.6700 -0.0233 -1.0544
  173DOPC  H17Y21170   3.866   3.810   4.559  0.6853 -1.1820 -0.5799
  173DOPC  C31821171   4.069   3.815   4.506 -0.7187  0.2761 -0.5845
  173DOPC  H18X21172   4.080   3.713   4.462  3.2832 -0.9415  2.5892
  173DOPC  H18Y21173   4.144   3.884   4.463  0.8820 -0.3722  1.0391
  173DOPC  H18Z21174   4.100   3.812   4.613  0.7143  0.1504 -0.9948
  174DOPC     N21175   5.883   3.165   2.235  0.1377 -0.3376 -0.2828
  174DOPC   C1221176   5.866   3.047   2.326 -0.2310  0.0400  0.3828
  174DOPC  H12A21177   5.813   2.973   2.268 -0.4192  0.5854 -0.1392
  174DOPC  H12B21178   5.798   3.074   2.406 -0.0362  0.6665  0.3400
  174DOPC   C1321179   5.755   3.179   2.151  0.1539 -0.0732  0.0511
  174DOPC  H13A21180   5.670   3.219   2.205  0.5399  0.2170  0.4550
  174DOPC  H13B21181   5.771   3.254   2.075 -0.6918 -0.1613 -0.2129
  174DOPC  H13C21182   5.732   3.089   2.097 -1.5547  0.0739  0.4662
  174DOPC   C1421183   5.999   3.138   2.139 -0.3664  0.2497 -0.4730
  174DOPC  H14A21184   5.996   3.210   2.059  0.7534 -1.8201 -2.4908
  174DOPC  H14B21185   6.095   3.139   2.188 -0.5619  1.9907 -0.0605
  174DOPC  H14C21186   5.978   3.039   2.102 -1.4529  0.3385 -0.1266
  174DOPC   C1521187   5.895   3.293   2.310 -0.5733 -0.8184 -0.2210
  174DOPC  H15A21188   5.993   3.314   2.351 -1.7499  0.3189  2.2461
  174DOPC  H15B21189   5.827   3.282   2.393 -2.0717  4.3625 -0.3876
  174DOPC  H15C21190   5.859   3.380   2.256  1.5744 -1.2880 -2.5985
  174DOPC   C1121191   5.994   2.974   2.397  0.6695  0.0057 -0.1935
  174DOPC  H11A21192   5.951   2.888   2.452  1.2249 -0.2880 -0.2110
  174DOPC  H11B21193   6.052   2.922   2.318 -0.8338 -1.3228 -0.4830
  174DOPC     P21194   6.074   3.057   2.638 -0.3071  0.2972  0.0513
  174DOPC   O1321195   6.114   3.188   2.689 -0.2854  0.2337  0.0330
  174DOPC   O1421196   6.155   2.942   2.685  0.3111  0.0375  0.7096
  174DOPC   O1221197   6.080   3.059   2.479  0.6242  0.2059 -0.5214
  174DOPC   O1121198   5.922   3.032   2.658  0.5476 -0.1386 -0.1553
  174DOPC    C121199   5.840   3.131   2.714 -0.2349 -0.4288 -0.0590
  174DOPC    HA21200   5.736   3.095   2.700 -0.5075  0.4302 -0.3032
  174DOPC    HB21201   5.851   3.232   2.669 -0.0566 -0.5546 -0.3009
  174DOPC    C221202   5.855   3.146   2.870 -0.2237  0.0163 -0.0883
  174DOPC    HS21203   5.960   3.179   2.888  0.1743 -1.1734 -0.1425
  174DOPC   O2121204   5.834   3.018   2.930  0.1388  0.0195 -0.6604
  174DOPC   C2121205   5.898   2.985   3.041  0.2028  1.1936  0.2633
  174DOPC   O2221206   6.011   3.025   3.071  0.2748  0.9058 -0.6281
  174DOPC   C2221207   5.806   2.884   3.119  0.0200  0.0345  0.7968
  174DOPC   H2R21208   5.787   2.804   3.044  1.2455 -0.2415  0.7546
  174DOPC   H2S21209   5.704   2.926   3.134 -0.5642 -0.3930 -1.5385
  174DOPC    C321210   5.750   3.252   2.911 -0.2422  0.3113 -0.0247
  174DOPC    HX21211   5.661   3.187   2.894 -0.4577  0.2324  1.3385
  174DOPC    HY21212   5.734   3.342   2.848  1.1364  1.1841  0.8336
  174DOPC   O3121213   5.754   3.282   3.053 -0.0448 -0.3084 -0.1562
  174DOPC   C3121214   5.874   3.338   3.097  0.4704  0.0204 -0.6078
  174DOPC   O3221215   5.963   3.385   3.027  0.3445 -0.3312 -0.1127
  174DOPC   C3221216   5.868   3.313   3.245  0.1004 -0.1077 -0.5547
  174DOPC   H2X21217   5.803   3.395   3.282 -2.4109 -0.5499 -3.5677
  174DOPC   H2Y21218   5.829   3.212   3.268 -2.3542  0.6231 -1.1618
  174DOPC   C2321219   5.868   2.823   3.243 -0.3621  0.9718 -0.1665
  174DOPC   H3R21220   5.978   2.803   3.240 -0.2905  0.9695  1.7314
  174DOPC   H3S21221   5.820   2.723   3.253 -0.3608  0.9858 -0.0280
  174DOPC   C2421222   5.834   2.911   3.364  0.4913 -0.2938 -0.6204
  174DOPC   H4R21223   5.742   2.964   3.332 -0.0528  0.1485  1.5560
  174DOPC   H4S21224   5.905   2.996   3.375 -3.1010  2.8179  0.6995
  174DOPC   C2521225   5.825   2.836   3.504 -0.1085  0.1367 -0.1037
  174DOPC   H5R21226   5.927   2.797   3.524 -0.2118 -0.9798 -1.5464
  174DOPC   H5S21227   5.762   2.744   3.508  2.1187 -1.4483  2.1105
  174DOPC   C2621228   5.785   2.933   3.613  1.0666  0.3720  0.1027
  174DOPC   H6R21229   5.745   2.886   3.705 -0.7278  0.2409 -0.6977
  174DOPC   H6S21230   5.700   2.993   3.575 -0.1198  1.0970  3.6078
  174DOPC   C2721231   5.891   3.033   3.664 -0.8602 -0.2044 -0.6242
  174DOPC   H7R21232   5.847   3.106   3.735  0.2846  1.5691 -1.6686
  174DOPC   H7S21233   5.923   3.078   3.568  2.8197 -0.6245  0.2697
  174DOPC   C2821234   6.000   2.949   3.726 -0.7204 -0.3245  0.5383
  174DOPC   H8R21235   6.053   2.898   3.642 -0.2889  2.6331 -1.1042
  174DOPC   H8S21236   5.954   2.884   3.804 -1.6732  2.1571  2.1561
  174DOPC   C2921237   6.113   3.040   3.770 -0.3268 -0.3810  0.2411
  174DOPC   H9R21238   6.194   3.061   3.698 -1.7891 -0.0445 -1.3667
  174DOPC  C21021239   6.104   3.099   3.890 -0.7651 -0.6906  0.4132
  174DOPC  H10R21240   6.183   3.173   3.907 -1.2931  0.5378 -2.0207
  174DOPC  C21121241   6.005   3.082   4.008  0.9072 -0.1462  0.1014
  174DOPC  H11R21242   5.936   2.995   4.010 -1.0996  1.3505  2.4089
  174DOPC  H11S21243   5.930   3.163   4.014 -0.1892 -0.8119 -2.8145
  174DOPC  C21221244   6.076   3.088   4.150  0.6710 -0.5560 -0.1159
  174DOPC  H12R21245   6.129   3.185   4.158 -1.4351  0.5368  1.6467
  174DOPC  H12S21246   6.152   3.008   4.163 -1.5849 -2.3905  3.7245
  174DOPC  C21321247   5.987   3.069   4.273  0.4490 -0.1076  0.1283
  174DOPC  H13R21248   5.929   2.975   4.258  0.4248 -0.5440  2.4689
  174DOPC  H13S21249   5.909   3.149   4.274  0.5693  0.0474  2.0192
  174DOPC  C21421250   6.066   3.046   4.407 -0.0042 -0.3904 -0.8093
  174DOPC  H14R21251   6.133   3.132   4.429 -2.1702  0.7634  1.7834
  174DOPC  H14S21252   6.139   2.963   4.399  2.0631  1.2058  0.2479
  174DOPC  C21521253   5.973   3.019   4.535  0.1500 -0.6406 -0.3637
  174DOPC  H15R21254   5.915   2.931   4.501 -0.3174 -1.3752  2.1416
  174DOPC  H15S21255   5.909   3.110   4.538  2.1486  0.9142 -1.9884
  174DOPC  C21621256   6.038   3.010   4.672 -0.9766  0.6255  0.1275
  174DOPC  H16R21257   6.105   3.098   4.676 -0.6395  0.6900 -3.6554
  174DOPC  H16S21258   6.099   2.917   4.670 -2.8254 -0.7549 -4.1792
  174DOPC  C21721259   5.955   3.012   4.805 -0.0744 -0.6843  0.9012
  174DOPC  H17R21260   5.890   2.922   4.800  0.3221 -0.9392  0.2477
  174DOPC  H17S21261   5.884   3.097   4.808  0.6319 -0.0578  0.3316
  174DOPC  C21821262   6.050   3.011   4.923 -0.3843 -0.4008  0.1036
  174DOPC  H18R21263   5.995   3.003   5.019 -1.2533  1.4629 -0.1954
  174DOPC  H18S21264   6.105   3.108   4.924 -1.7853  0.4158 -0.4232
  174DOPC  H18T21265   6.119   2.924   4.923  0.0883 -0.0472 -1.0707
  174DOPC   C3321266   6.004   3.317   3.308  0.1837 -0.1858 -0.1418
  174DOPC   H3X21267   6.088   3.380   3.271 -1.3373  1.4292 -1.0259
  174DOPC   H3Y21268   6.037   3.211   3.309  0.9244  0.0360  0.1250
  174DOPC   C3421269   5.989   3.361   3.450  0.2599  0.0282 -0.1539
  174DOPC   H4X21270   5.910   3.303   3.503  0.7621  0.0673  0.6458
  174DOPC   H4Y21271   5.951   3.465   3.440  1.5017  0.4633 -0.4143
  174DOPC   C3521272   6.119   3.363   3.538 -0.6729 -0.4559  0.1351
  174DOPC   H5X21273   6.179   3.440   3.485 -2.9352  0.0913 -1.8290
  174DOPC   H5Y21274   6.180   3.270   3.534 -0.1047 -0.1109  0.6416
  174DOPC   C3621275   6.081   3.414   3.681 -0.6713  0.7402 -0.0285
  174DOPC   H6X21276   6.020   3.507   3.680 -0.6445  0.8475  2.3421
  174DOPC   H6Y21277   6.016   3.339   3.731  0.1677 -0.3809 -0.5784
  174DOPC   C3721278   6.197   3.440   3.775 -0.6626  0.4294 -0.3025
  174DOPC   H7X21279   6.274   3.361   3.763 -0.1218  0.8396  0.3825
  174DOPC   H7Y21280   6.227   3.540   3.739 -0.5904  0.4026 -0.3172
  174DOPC   C3821281   6.149   3.449   3.923 -0.2434  0.1030  0.4934
  174DOPC   H8X21282   6.238   3.453   3.989 -0.4131  3.3385  0.6753
  174DOPC   H8Y21283   6.090   3.359   3.950 -0.0113 -0.0790  0.4027
  174DOPC   C3921284   6.065   3.568   3.955 -0.1255 -0.3155 -0.1264
  174DOPC   H9X21285   6.095   3.662   3.906  2.1153 -0.9607 -0.0581
  174DOPC  C31021286   5.955   3.568   4.030 -0.4011 -0.4783 -0.2695
  174DOPC  H10X21287   5.893   3.660   4.034  0.2823 -0.0528  1.8768
  174DOPC  C31121288   5.890   3.453   4.105 -0.0889 -0.8645  0.0925
  174DOPC  H11X21289   5.971   3.393   4.151  0.1447  0.1771  1.0667
  174DOPC  H11Y21290   5.835   3.387   4.035  0.1240  0.3572 -1.2887
  174DOPC  C31221291   5.803   3.494   4.233  0.0259  0.0341  0.1500
  174DOPC  H12X21292   5.707   3.531   4.191  1.0862  1.7851 -0.8398
  174DOPC  H12Y21293   5.848   3.572   4.298  0.3997  0.4332 -0.5828
  174DOPC  C31321294   5.774   3.375   4.336 -0.1417 -0.0838  0.3883
  174DOPC  H13X21295   5.727   3.288   4.283  1.2888 -0.6437 -0.0002
  174DOPC  H13Y21296   5.873   3.347   4.377 -0.2650 -0.5111  0.4047
  174DOPC  C31421297   5.684   3.438   4.443 -0.0789 -0.0088  0.1281
  174DOPC  H14X21298   5.726   3.535   4.477  3.3030 -1.0953 -0.4874
  174DOPC  H14Y21299   5.582   3.460   4.405 -0.2211 -0.2364  0.3798
  174DOPC  C31521300   5.678   3.346   4.561  0.4228 -0.5232  0.3271
  174DOPC  H15X21301   5.782   3.334   4.598  0.8742  2.4590  0.2864
  174DOPC  H15Y21302   5.643   3.247   4.524  2.8194 -0.3142 -2.9084
  174DOPC  C31621303   5.597   3.395   4.674 -0.5360  0.4981  0.5035
  174DOPC  H16X21304   5.651   3.485   4.711  0.0742  0.6102 -0.6259
  174DOPC  H16Y21305   5.501   3.434   4.634  1.0091  2.5258 -1.4891
  174DOPC  C31721306   5.583   3.307   4.798 -0.0726  0.2408 -0.3348
  174DOPC  H17X21307   5.558   3.206   4.760  2.5975 -0.8613  0.5742
  174DOPC  H17Y21308   5.677   3.304   4.857 -0.1250 -0.0141 -0.2646
  174DOPC  C31821309   5.478   3.358   4.893 -0.5290  0.5971 -0.4708
  174DOPC  H18X21310   5.512   3.453   4.938  1.5806 -0.7270  0.9048
  174DOPC  H18Y21311   5.374   3.354   4.853  0.1255 -2.0710 -2.1830
  174DOPC  H18Z21312   5.477   3.288   4.980  0.6705  0.1842 -0.7727
  175DOPC     N21313   3.110   6.268   2.866 -0.1325  0.0539  0.6879
  175DOPC   C1221314   3.159   6.367   2.969 -0.4366 -0.4470 -0.3590
  175DOPC  H12A21315   3.132   6.331   3.067  2.0021 -0.0136  0.5520
  175DOPC  H12B21316   3.107   6.457   2.942  4.0972  2.3281 -0.9406
  175DOPC   C1321317   2.964   6.259   2.856 -0.5813  0.1221  0.2556
  175DOPC  H13A21318   2.926   6.243   2.956  1.8019 -0.9685  1.0512
  175DOPC  H13B21319   2.920   6.350   2.818  1.8301  2.2207  2.2195
  175DOPC  H13C21320   2.932   6.172   2.799 -0.6629 -0.6092  1.3868
  175DOPC   C1421321   3.166   6.128   2.900 -0.1173  0.2988 -0.3208
  175DOPC  H14A21322   3.268   6.126   2.935 -1.2067 -0.8516  3.2739
  175DOPC  H14B21323   3.115   6.083   2.984  0.7636  0.8986  0.5590
  175DOPC  H14C21324   3.158   6.063   2.814 -0.2373  0.5296 -0.4862
  175DOPC   C1521325   3.163   6.301   2.724  0.3465  0.4382  0.1466
  175DOPC  H15A21326   3.113   6.233   2.657  0.0936  0.8721 -0.1114
  175DOPC  H15B21327   3.268   6.277   2.722 -0.2472 -2.5690 -2.1285
  175DOPC  H15C21328   3.143   6.406   2.705  3.2458  1.2450  0.9601
  175DOPC   C1121329   3.308   6.412   2.986  0.1153  0.3327  0.4725
  175DOPC  H11A21330   3.335   6.470   2.895 -1.7633 -0.6285 -0.7714
  175DOPC  H11B21331   3.315   6.487   3.067 -1.4504 -0.2054  1.1499
  175DOPC     P21332   3.415   6.261   3.169  0.6853  0.0642 -0.5699
  175DOPC   O1321333   3.533   6.333   3.221  0.1851 -0.2521 -0.2107
  175DOPC   O1421334   3.415   6.115   3.176 -0.2226  0.3660 -0.1408
  175DOPC   O1221335   3.389   6.300   3.013 -0.1977 -0.5127 -0.3964
  175DOPC   O1121336   3.279   6.301   3.247 -0.0260 -0.2966  0.3358
  175DOPC    C121337   3.170   6.206   3.245  0.2938 -0.0896 -0.2535
  175DOPC    HA21338   3.182   6.131   3.164 -2.5013  0.4315 -1.2531
  175DOPC    HB21339   3.073   6.256   3.225  1.2532  2.3367  0.6572
  175DOPC    C221340   3.159   6.137   3.383  0.6346  0.3044  0.6688
  175DOPC    HS21341   3.067   6.075   3.376 -0.3773  1.5726  2.0739
  175DOPC   O2121342   3.139   6.238   3.481  0.6899 -0.6438  0.6211
  175DOPC   C2121343   3.023   6.303   3.480 -0.4701  0.2006 -0.1288
  175DOPC   O2221344   2.922   6.269   3.421  0.2204 -0.0737  0.1092
  175DOPC   C2221345   3.025   6.417   3.580  0.2312 -0.1276  0.5720
  175DOPC   H2R21346   2.962   6.494   3.531 -0.2091 -1.2419 -0.6839
  175DOPC   H2S21347   3.127   6.459   3.589  0.6911 -1.1152  0.1925
  175DOPC    C321348   3.277   6.047   3.423  0.2441  0.4364 -0.1725
  175DOPC    HX21349   3.364   6.113   3.442  0.4726  0.5096 -1.4486
  175DOPC    HY21350   3.298   5.967   3.350 -2.6880 -0.2626 -0.3808
  175DOPC   O3121351   3.250   5.990   3.549  0.2462 -0.1064 -0.3507
  175DOPC   C3121352   3.345   5.911   3.592 -0.8708  0.3802  0.7141
  175DOPC   O3221353   3.454   5.893   3.539 -0.9355 -0.4318  0.1466
  175DOPC   C3221354   3.303   5.850   3.722  0.1112 -0.0031 -0.8145
  175DOPC   H2X21355   3.294   5.939   3.788  2.5952  1.5840 -2.4603
  175DOPC   H2Y21356   3.199   5.809   3.725  1.1697 -3.1080 -2.1498
  175DOPC   C2321357   2.966   6.381   3.721 -0.6006 -0.2891 -0.1278
  175DOPC   H3R21358   3.051   6.327   3.770  2.2870  1.7876 -2.4949
  175DOPC   H3S21359   2.880   6.310   3.718  1.0422 -2.5299  1.6708
  175DOPC   C2421360   2.921   6.498   3.801 -0.1781 -0.2011  0.7602
  175DOPC   H4R21361   2.833   6.553   3.761 -0.4827 -2.0935 -1.4001
  175DOPC   H4S21362   3.009   6.565   3.811  1.1905 -1.4406 -1.8960
  175DOPC   C2521363   2.873   6.440   3.934 -0.1179  0.7276  0.1550
  175DOPC   H5R21364   2.957   6.396   3.991 -0.6830 -1.3719 -0.5349
  175DOPC   H5S21365   2.806   6.355   3.910  1.7310 -0.6725 -0.2265
  175DOPC   C2621366   2.796   6.539   4.026  0.0371 -0.1102 -0.8206
  175DOPC   H6R21367   2.721   6.610   3.985 -1.0325 -0.7474 -0.0281
  175DOPC   H6S21368   2.876   6.604   4.069 -0.3167 -0.6228  0.6705
  175DOPC   C2721369   2.721   6.474   4.144  0.6399 -0.4178 -0.3606
  175DOPC   H7R21370   2.628   6.436   4.097 -0.2199  1.8254 -0.5907
  175DOPC   H7S21371   2.688   6.559   4.207 -2.0065 -0.4721 -1.5334
  175DOPC   C2821372   2.798   6.369   4.220  0.3148 -0.0340  0.2326
  175DOPC   H8R21373   2.900   6.406   4.242 -0.4951  2.2902  0.4092
  175DOPC   H8S21374   2.794   6.275   4.161 -0.7957 -0.3428  0.7695
  175DOPC   C2921375   2.706   6.342   4.336  0.6659  0.6734 -0.4177
  175DOPC   H9R21376   2.614   6.288   4.309  1.1954 -0.6233  0.3056
  175DOPC  C21021377   2.727   6.384   4.459  0.0620  0.1808  0.6264
  175DOPC  H10R21378   2.647   6.362   4.532 -1.4750 -0.4597 -1.1677
  175DOPC  C21121379   2.845   6.461   4.512  0.4144  0.2621  0.2007
  175DOPC  H11R21380   2.804   6.553   4.559 -0.5427  0.3391 -0.7406
  175DOPC  H11S21381   2.919   6.495   4.436  1.1579  0.1642  0.8714
  175DOPC  C21221382   2.913   6.373   4.610 -0.3055  0.0800  0.6828
  175DOPC  H12R21383   2.946   6.278   4.562  0.9571  1.3413 -1.0595
  175DOPC  H12S21384   2.850   6.349   4.698  0.0398  3.7092  2.0858
  175DOPC  C21321385   3.026   6.450   4.671 -0.3910  0.1512  0.3598
  175DOPC  H13R21386   2.999   6.546   4.721  2.3918 -0.0617  2.5115
  175DOPC  H13S21387   3.092   6.484   4.589 -0.9334  0.3072 -0.0229
  175DOPC  C21421388   3.094   6.365   4.773  0.1429  0.0330 -0.0457
  175DOPC  H14R21389   3.196   6.409   4.771  0.0822  0.2686  1.2067
  175DOPC  H14S21390   3.112   6.259   4.744 -1.4956 -0.4155  0.4537
  175DOPC  C21521391   3.031   6.386   4.910 -0.5348  0.5603 -0.8145
  175DOPC  H15R21392   2.924   6.360   4.900 -0.1763 -1.9345  0.9110
  175DOPC  H15S21393   3.038   6.490   4.948  2.4231 -0.0775  0.7314
  175DOPC  C21621394   3.078   6.285   5.020  0.4281 -0.1142 -0.5655
  175DOPC  H16R21395   3.187   6.305   5.027  0.5229  0.9857 -3.8315
  175DOPC  H16S21396   3.066   6.184   4.976 -1.7437  0.3355 -1.1151
  175DOPC  C21721397   3.013   6.318   5.154  0.1591  0.1137  0.6177
  175DOPC  H17R21398   2.902   6.328   5.154  0.2993  2.8536 -1.5294
  175DOPC  H17S21399   3.049   6.419   5.184 -2.5763  1.5262 -0.4834
  175DOPC  C21821400   3.069   6.231   5.259 -0.1599 -0.0662 -0.6071
  175DOPC  H18R21401   3.053   6.286   5.354 -0.5383  1.3269 -1.4361
  175DOPC  H18S21402   3.179   6.218   5.253  0.3107  0.8167  3.2761
  175DOPC  H18T21403   3.036   6.126   5.270  1.4152 -0.2766  3.6419
  175DOPC   C3321404   3.393   5.745   3.793  0.2443 -0.3507  0.0179
  175DOPC   H3X21405   3.461   5.696   3.721 -1.1569 -1.0954 -0.8483
  175DOPC   H3Y21406   3.328   5.666   3.836 -0.6849  0.7934  0.8072
  175DOPC   C3421407   3.471   5.806   3.914  0.0158 -0.6458  0.1565
  175DOPC   H4X21408   3.482   5.916   3.905 -3.1981 -0.1631  0.7815
  175DOPC   H4Y21409   3.571   5.757   3.916  0.0470 -0.6296 -0.7802
  175DOPC   C3521410   3.400   5.776   4.046  0.0443  0.0684 -0.0544
  175DOPC   H5X21411   3.289   5.777   4.046 -0.0249  0.2992  2.5744
  175DOPC   H5Y21412   3.426   5.857   4.117 -0.3919  1.0344 -0.9742
  175DOPC   C3621413   3.435   5.635   4.108 -0.4494 -0.4132  0.0840
  175DOPC   H6X21414   3.398   5.548   4.050 -0.4479 -0.9749  0.9114
  175DOPC   H6Y21415   3.545   5.633   4.125 -0.5093 -0.8223  0.4531
  175DOPC   C3721416   3.368   5.603   4.243 -0.3423 -0.8209  0.1311
  175DOPC   H7X21417   3.397   5.504   4.285 -2.4726 -1.8013 -0.5398
  175DOPC   H7Y21418   3.397   5.676   4.322  2.8299 -2.3060  0.5135
  175DOPC   C3821419   3.213   5.593   4.238 -0.2247  0.3380  0.1840
  175DOPC   H8X21420   3.198   5.493   4.192  0.7583  1.5227 -2.9660
  175DOPC   H8Y21421   3.167   5.663   4.165 -0.3204 -0.8076 -0.8864
  175DOPC   C3921422   3.154   5.597   4.380 -0.2782  0.3738 -0.2510
  175DOPC   H9X21423   3.225   5.568   4.459 -1.9891  0.6104  1.4599
  175DOPC  C31021424   3.041   5.653   4.417 -0.2580 -0.2108 -0.3478
  175DOPC  H10X21425   3.004   5.658   4.520 -0.7104 -0.1144 -0.5116
  175DOPC  C31121426   2.934   5.708   4.326 -0.4187  0.1242  0.0664
  175DOPC  H11X21427   2.937   5.663   4.225  1.4167  2.0471 -0.8107
  175DOPC  H11Y21428   2.960   5.814   4.307 -1.2032  0.5707  1.3445
  175DOPC  C31221429   2.786   5.702   4.367 -0.4124  0.3404 -0.5401
  175DOPC  H12X21430   2.789   5.758   4.463 -0.9181 -1.5241  0.5968
  175DOPC  H12Y21431   2.738   5.607   4.398 -2.9607  1.4276 -0.9798
  175DOPC  C31321432   2.696   5.761   4.264  0.0303  0.4803 -0.3736
  175DOPC  H13X21433   2.738   5.851   4.213  0.6118  0.5354  0.1809
  175DOPC  H13Y21434   2.684   5.687   4.182  1.4673  0.6448 -0.7680
  175DOPC  C31421435   2.561   5.813   4.313  0.3587 -0.8588 -0.4099
  175DOPC  H14X21436   2.514   5.725   4.363  0.5922  0.1387  1.6593
  175DOPC  H14Y21437   2.559   5.901   4.381  0.4249  0.4537 -2.0433
  175DOPC  C31521438   2.455   5.854   4.205 -0.1724 -0.0167  0.7922
  175DOPC  H15X21439   2.371   5.908   4.255  0.8552  2.0691  0.3910
  175DOPC  H15Y21440   2.424   5.760   4.155  2.2275 -0.3972 -0.1264
  175DOPC  C31621441   2.503   5.951   4.092 -0.3972  0.0857  0.3284
  175DOPC  H16X21442   2.537   6.043   4.145 -0.0476 -0.1841  0.5866
  175DOPC  H16Y21443   2.593   5.917   4.036 -1.5195 -0.5363 -1.1297
  175DOPC  C31721444   2.390   5.977   3.993  0.0684 -0.3252  0.0730
  175DOPC  H17X21445   2.334   5.890   3.950 -2.2778  1.4002 -0.6181
  175DOPC  H17Y21446   2.311   6.039   4.040  0.7509  0.8980 -0.3545
  175DOPC  C31821447   2.441   6.045   3.859  0.1857  0.3072 -0.6688
  175DOPC  H18X21448   2.492   6.141   3.883  1.2430 -0.6769  1.2170
  175DOPC  H18Y21449   2.523   5.980   3.821 -0.4606 -2.8759  2.8807
  175DOPC  H18Z21450   2.364   6.055   3.779 -0.0409  0.3705 -0.4410
  176DOPC     N21451   4.178   2.503   2.807 -0.1534  0.0872  0.0491
  176DOPC   C1221452   4.195   2.410   2.923  0.3668 -0.1749  0.2547
  176DOPC  H12A21453   4.202   2.308   2.889 -0.0608  0.2481 -1.1333
  176DOPC  H12B21454   4.111   2.420   2.990  1.1248  1.8520  0.9792
  176DOPC   C1321455   4.037   2.507   2.756 -0.0469 -0.4657 -0.8234
  176DOPC  H13A21456   4.019   2.571   2.671  1.5150  2.8928  1.1800
  176DOPC  H13B21457   4.003   2.407   2.731 -0.6650 -0.7089  0.8408
  176DOPC  H13C21458   3.971   2.542   2.834  0.4599 -1.9101  0.2892
  176DOPC   C1421459   4.273   2.451   2.698  0.1613 -0.5201  0.0142
  176DOPC  H14A21460   4.274   2.506   2.605  0.1335 -1.3243 -0.4686
  176DOPC  H14B21461   4.368   2.470   2.747  0.3974 -0.4899 -0.4517
  176DOPC  H14C21462   4.254   2.347   2.674  3.6158 -0.5597 -3.7563
  176DOPC   C1521463   4.224   2.645   2.839  0.0967 -0.6636 -1.1631
  176DOPC  H15A21464   4.168   2.709   2.904  2.1636  0.6583 -0.5967
  176DOPC  H15B21465   4.236   2.695   2.744  2.2669  1.2756  0.0308
  176DOPC  H15C21466   4.324   2.647   2.879 -1.2731 -1.7279  2.6847
  176DOPC   C1121467   4.323   2.422   3.018  0.3105  0.5993  0.5115
  176DOPC  H11A21468   4.326   2.342   3.095 -0.4449  1.0268  0.9967
  176DOPC  H11B21469   4.413   2.417   2.952  1.9060 -1.9117  2.6694
  176DOPC     P21470   4.202   2.589   3.180 -0.7492 -0.2013 -0.2695
  176DOPC   O1321471   4.118   2.472   3.205  0.4456  0.1120  0.1401
  176DOPC   O1421472   4.133   2.712   3.129 -0.2242 -0.7240  1.0806
  176DOPC   O1221473   4.324   2.551   3.076  0.6519 -0.1008 -0.3946
  176DOPC   O1121474   4.285   2.621   3.313  0.1833 -0.4797 -0.0954
  176DOPC    C121475   4.403   2.540   3.350  0.5447  0.3853 -0.1519
  176DOPC    HA21476   4.494   2.563   3.291  0.0013  0.4499 -0.9853
  176DOPC    HB21477   4.382   2.431   3.341 -0.5072  0.4684  1.0253
  176DOPC    C221478   4.436   2.563   3.506 -0.7155  0.7395 -0.9263
  176DOPC    HS21479   4.492   2.474   3.543  1.9738  2.2485 -1.1353
  176DOPC   O2121480   4.316   2.568   3.587  0.8508 -0.3699 -0.5718
  176DOPC   C2121481   4.259   2.446   3.604  0.3533  0.2841  0.2051
  176DOPC   O2221482   4.306   2.337   3.567  0.1576 -0.8972 -0.3873
  176DOPC   C2221483   4.117   2.467   3.663 -0.0346  0.3877 -0.1687
  176DOPC   H2R21484   4.044   2.417   3.597  1.1541 -0.2291 -1.0632
  176DOPC   H2S21485   4.089   2.572   3.684 -0.5646  0.2674 -0.2692
  176DOPC    C321486   4.531   2.684   3.528 -0.1629  0.1915 -0.2936
  176DOPC    HX21487   4.480   2.770   3.479  0.5540  1.6231  1.3814
  176DOPC    HY21488   4.626   2.667   3.473  0.2300 -1.7663  0.8668
  176DOPC   O3121489   4.549   2.710   3.671 -0.0581  0.4100  0.0546
  176DOPC   C3121490   4.625   2.816   3.697  0.3852 -0.3104 -0.0834
  176DOPC   O3221491   4.680   2.884   3.611 -0.2340  0.0945  0.3005
  176DOPC   C3221492   4.629   2.850   3.847  0.1488 -0.0075  0.2396
  176DOPC   H2X21493   4.731   2.835   3.887  0.1760 -0.0861  0.1375
  176DOPC   H2Y21494   4.611   2.958   3.870  1.6907  0.1972  0.5541
  176DOPC   C2321495   4.097   2.393   3.796 -0.3869 -0.0450  0.1054
  176DOPC   H3R21496   4.099   2.282   3.783 -0.8286  0.1909 -2.4412
  176DOPC   H3S21497   3.992   2.419   3.821 -0.2564  1.5770 -0.9232
  176DOPC   C2421498   4.192   2.432   3.907 -0.1394 -0.5316 -0.4269
  176DOPC   H4R21499   4.184   2.539   3.933 -3.3261 -1.1720  1.8395
  176DOPC   H4S21500   4.301   2.414   3.891 -0.3346 -2.4659  0.0993
  176DOPC   C2521501   4.150   2.362   4.039  0.0500  0.2337  0.1640
  176DOPC   H5R21502   4.123   2.258   4.012  0.3848  0.1800  0.0313
  176DOPC   H5S21503   4.053   2.402   4.076 -0.3362  0.8871 -1.4737
  176DOPC   C2621504   4.265   2.347   4.140 -0.2857 -0.1087 -0.2598
  176DOPC   H6R21505   4.305   2.450   4.147 -1.3932  0.2605  0.9505
  176DOPC   H6S21506   4.339   2.282   4.088 -0.3900  1.4006 -2.4524
  176DOPC   C2721507   4.223   2.290   4.273 -0.6690  0.3504  0.5967
  176DOPC   H7R21508   4.167   2.195   4.264 -0.5790  0.3343  0.1698
  176DOPC   H7S21509   4.154   2.362   4.321  0.2677  0.4214  1.8874
  176DOPC   C2821510   4.342   2.255   4.364 -0.2253  0.3414  0.3048
  176DOPC   H8R21511   4.410   2.193   4.302 -2.6791 -0.9910 -1.1831
  176DOPC   H8S21512   4.303   2.180   4.436 -0.9797  1.5529  1.2019
  176DOPC   C2921513   4.410   2.377   4.424  0.2397 -0.1135 -0.3788
  176DOPC   H9R21514   4.395   2.469   4.366  2.4719  0.2404 -0.4651
  176DOPC  C21021515   4.492   2.381   4.532 -0.0445 -0.2893 -0.1085
  176DOPC  H10R21516   4.524   2.483   4.560 -3.3004  0.9617 -0.5279
  176DOPC  C21121517   4.536   2.259   4.612 -0.3586  0.5865 -1.1417
  176DOPC  H11R21518   4.644   2.246   4.590 -0.2255 -0.5779  0.0881
  176DOPC  H11S21519   4.477   2.174   4.570 -1.9942  1.8349 -1.4805
  176DOPC  C21221520   4.520   2.259   4.771 -0.4606  0.2302 -0.0194
  176DOPC  H12R21521   4.571   2.353   4.802 -0.7833  0.9584 -1.5852
  176DOPC  H12S21522   4.571   2.172   4.817  2.5101  1.5670 -0.5475
  176DOPC  C21321523   4.374   2.269   4.807 -1.5518 -1.2496 -0.2064
  176DOPC  H13R21524   4.306   2.244   4.723 -0.8258  2.4192 -2.1229
  176DOPC  H13S21525   4.348   2.376   4.825 -4.3101 -1.7205 -1.0358
  176DOPC  C21421526   4.336   2.184   4.931  0.0995 -0.4708 -0.4172
  176DOPC  H14R21527   4.354   2.080   4.894  2.0523 -0.4984  0.4982
  176DOPC  H14S21528   4.229   2.206   4.953  0.7844  2.6448  0.2624
  176DOPC  C21521529   4.414   2.225   5.059  0.0668  0.4617  0.7741
  176DOPC  H15R21530   4.521   2.226   5.032 -0.2060 -0.5123 -0.4434
  176DOPC  H15S21531   4.393   2.149   5.138 -1.5988  0.2018  0.1253
  176DOPC  C21621532   4.353   2.355   5.127 -0.7772  0.0776 -0.5612
  176DOPC  H16R21533   4.243   2.347   5.134 -0.9438  0.8641 -1.9598
  176DOPC  H16S21534   4.380   2.432   5.052  0.6835  2.3935  2.1613
  176DOPC  C21721535   4.417   2.387   5.261 -0.3910 -0.3015  0.3146
  176DOPC  H17R21536   4.522   2.421   5.246 -0.3373 -0.4254  0.4071
  176DOPC  H17S21537   4.415   2.303   5.334  1.0759  0.5193  1.3639
  176DOPC  C21821538   4.343   2.500   5.330 -0.0522  0.1769 -0.8350
  176DOPC  H18R21539   4.409   2.514   5.418  0.3030 -1.7346 -0.7751
  176DOPC  H18S21540   4.245   2.479   5.378 -0.2481  1.9988 -0.3427
  176DOPC  H18T21541   4.329   2.592   5.268 -0.6160  0.9423  0.3922
  176DOPC   C3321542   4.527   2.766   3.929  0.1750  0.4597  0.2708
  176DOPC   H3X21543   4.548   2.658   3.913  0.2823  0.9271 -3.4777
  176DOPC   H3Y21544   4.422   2.772   3.894  0.0829 -0.2468  0.3921
  176DOPC   C3421545   4.551   2.788   4.079 -0.0422  0.2629  0.6337
  176DOPC   H4X21546   4.538   2.895   4.106 -1.6483 -0.4386  2.8910
  176DOPC   H4Y21547   4.659   2.763   4.086 -0.4908 -3.2590 -2.0203
  176DOPC   C3521548   4.473   2.692   4.161 -0.0224 -0.0478 -0.1837
  176DOPC   H5X21549   4.511   2.589   4.143  2.7724  0.7299  0.6638
  176DOPC   H5Y21550   4.365   2.688   4.135  0.2119 -0.4619 -1.1517
  176DOPC   C3621551   4.483   2.723   4.316 -0.0539 -0.2909 -0.4421
  176DOPC   H6X21552   4.464   2.830   4.334  0.9696  0.5749 -3.8376
  176DOPC   H6Y21553   4.395   2.666   4.354  0.1500  0.5799  1.4583
  176DOPC   C3721554   4.608   2.673   4.382 -0.0767  0.1354 -0.3960
  176DOPC   H7X21555   4.598   2.563   4.370  2.7048 -0.2244 -0.0772
  176DOPC   H7Y21556   4.697   2.707   4.325  0.6415  1.4526  1.4308
  176DOPC   C3821557   4.633   2.721   4.525  0.1625 -0.1224 -0.6082
  176DOPC   H8X21558   4.531   2.717   4.569 -1.2598 -0.7677 -3.6720
  176DOPC   H8Y21559   4.648   2.830   4.514 -0.4498 -0.0534 -0.8081
  176DOPC   C3921560   4.730   2.645   4.612  0.1493 -0.3103 -0.3352
  176DOPC   H9X21561   4.749   2.539   4.591  2.7126 -0.2593  1.3327
  176DOPC  C31021562   4.786   2.702   4.721 -0.3225 -0.2222 -0.7145
  176DOPC  H10X21563   4.849   2.632   4.778 -0.6287 -0.7729 -1.0399
  176DOPC  C31121564   4.753   2.838   4.786 -0.7540 -0.1103 -0.0640
  176DOPC  H11X21565   4.752   2.904   4.697 -0.8523  1.1989  0.8852
  176DOPC  H11Y21566   4.829   2.867   4.862 -2.0173 -1.1481  1.6785
  176DOPC  C31221567   4.611   2.830   4.856  0.0711  0.6036  0.3190
  176DOPC  H12X21568   4.537   2.799   4.779 -0.1836 -0.1499  0.8609
  176DOPC  H12Y21569   4.579   2.930   4.893  0.6681  0.3306  1.6152
  176DOPC  C31321570   4.599   2.734   4.965 -0.0902  0.1397  0.3176
  176DOPC  H13X21571   4.492   2.729   4.995  0.3597 -0.5002  1.9348
  176DOPC  H13Y21572   4.646   2.637   4.938  2.0106  1.0101  0.6816
  176DOPC  C31421573   4.670   2.781   5.087 -0.3060 -0.5820  0.1105
  176DOPC  H14X21574   4.780   2.783   5.078 -0.2008  1.5643  1.1342
  176DOPC  H14Y21575   4.639   2.885   5.111  0.6116 -0.2514 -0.0955
  176DOPC  C31521576   4.652   2.710   5.211 -0.1886  0.5447 -0.2262
  176DOPC  H15X21577   4.660   2.600   5.206  1.7913  0.6588 -0.2061
  176DOPC  H15Y21578   4.545   2.730   5.235 -0.1980 -0.8012  1.0105
  176DOPC  C31621579   4.748   2.747   5.326 -0.1282  0.2434  0.1986
  176DOPC  H16X21580   4.855   2.729   5.303 -0.5432 -3.0235  0.2985
  176DOPC  H16Y21581   4.734   2.855   5.348  1.0045  0.2961  0.7313
  176DOPC  C31721582   4.723   2.692   5.462 -0.7154  0.2067 -0.1050
  176DOPC  H17X21583   4.614   2.700   5.480 -0.8547  0.3081 -0.9447
  176DOPC  H17Y21584   4.763   2.590   5.480  1.9500  0.9513 -1.1371
  176DOPC  C31821585   4.787   2.781   5.570 -0.0826 -0.9034 -0.5788
  176DOPC  H18X21586   4.760   2.740   5.670 -0.3992  1.7035  0.4895
  176DOPC  H18Y21587   4.896   2.775   5.552 -0.1232 -0.1109 -1.1468
  176DOPC  H18Z21588   4.741   2.882   5.570 -0.7120 -1.1795  0.3221
  177DOPC     N21589   5.028   6.316   2.783 -0.2809 -0.1782 -0.1580
  177DOPC   C1221590   5.006   6.421   2.669  0.6776 -0.4586  0.4212
  177DOPC  H12A21591   4.930   6.493   2.696 -0.9866 -1.4404 -1.3253
  177DOPC  H12B21592   4.979   6.363   2.582  1.0553 -0.9125  0.6057
  177DOPC   C1321593   4.900   6.250   2.811 -0.7148 -0.5408 -0.0831
  177DOPC  H13A21594   4.860   6.200   2.724 -0.3423 -0.5392 -0.2588
  177DOPC  H13B21595   4.925   6.166   2.873  2.7493  0.6025  0.3189
  177DOPC  H13C21596   4.832   6.319   2.860  0.3869  0.2269  0.4037
  177DOPC   C1421597   5.085   6.389   2.903  0.9705 -0.0619 -0.4324
  177DOPC  H14A21598   5.176   6.437   2.869  0.8355 -0.1565 -0.9425
  177DOPC  H14B21599   5.025   6.475   2.930  2.2690  0.2534  1.6504
  177DOPC  H14C21600   5.102   6.325   2.988  1.2910 -0.4785 -0.8102
  177DOPC   C1521601   5.125   6.211   2.734  0.4560  0.5630 -0.3566
  177DOPC  H15A21602   5.204   6.200   2.807 -0.5535  2.5513  1.1331
  177DOPC  H15B21603   5.172   6.249   2.645  0.1995 -1.0928 -1.2337
  177DOPC  H15C21604   5.083   6.114   2.713 -0.1322  0.8256 -0.4060
  177DOPC   C1121605   5.124   6.514   2.637 -0.3250 -0.3354  0.2721
  177DOPC  H11A21606   5.219   6.456   2.634 -1.1246 -1.7322 -2.8534
  177DOPC  H11B21607   5.121   6.560   2.536 -0.6544  2.2777  1.4146
  177DOPC     P21608   5.100   6.769   2.702 -0.4040 -0.1510  0.2064
  177DOPC   O1321609   4.958   6.751   2.669  0.5417 -0.3301 -0.0586
  177DOPC   O1421610   5.192   6.823   2.598  0.2812 -0.2428 -0.2473
  177DOPC   O1221611   5.138   6.614   2.731 -0.3057  0.8569  0.7239
  177DOPC   O1121612   5.114   6.837   2.850 -0.1688 -0.6407 -0.3166
  177DOPC    C121613   5.214   6.803   2.946 -0.7691  0.2145  0.1022
  177DOPC    HA21614   5.260   6.895   2.990 -0.2516  0.1901 -0.3758
  177DOPC    HB21615   5.302   6.764   2.890 -2.3412 -1.0626 -1.5913
  177DOPC    C221616   5.167   6.721   3.059  0.1213  0.9612  0.1517
  177DOPC    HS21617   5.092   6.644   3.030 -1.4313  2.1464  0.8655
  177DOPC   O2121618   5.084   6.812   3.137  0.2334 -0.3591  0.1599
  177DOPC   C2121619   5.037   6.766   3.250 -0.2899 -0.1210 -0.2370
  177DOPC   O2221620   5.047   6.650   3.290 -0.4101  0.5483 -0.4937
  177DOPC   C2221621   4.969   6.876   3.329 -0.1225  0.0502 -0.0688
  177DOPC   H2R21622   4.867   6.886   3.285 -0.8294 -1.3324  1.1916
  177DOPC   H2S21623   5.020   6.974   3.315 -1.0505  0.3401 -1.6451
  177DOPC    C321624   5.285   6.647   3.128 -0.0637  0.0785  0.1408
  177DOPC    HX21625   5.344   6.626   3.036  0.0654  1.0502 -0.0126
  177DOPC    HY21626   5.263   6.549   3.175  2.3828 -0.1105  1.0390
  177DOPC   O3121627   5.348   6.733   3.220 -0.1219  0.2156  0.2131
  177DOPC   C3121628   5.454   6.680   3.285 -0.3037 -0.0832  0.0111
  177DOPC   O3221629   5.507   6.574   3.270 -0.3563  0.0122 -0.1075
  177DOPC   C3221630   5.485   6.763   3.408 -0.1864 -0.0027 -0.1640
  177DOPC   H2X21631   5.486   6.868   3.370  0.3307  0.3139  0.6870
  177DOPC   H2Y21632   5.404   6.763   3.483 -0.1769  1.5789 -0.1007
  177DOPC   C2321633   4.955   6.841   3.480  0.4162 -0.6159  0.2657
  177DOPC   H3R21634   5.059   6.842   3.520  0.7902  0.6206 -0.6729
  177DOPC   H3S21635   4.917   6.737   3.484  0.7731 -0.7201  1.4040
  177DOPC   C2421636   4.863   6.932   3.556 -0.0669  0.4067  0.4013
  177DOPC   H4R21637   4.766   6.915   3.504 -0.4477 -1.1660  1.5662
  177DOPC   H4S21638   4.903   7.036   3.557  1.2670 -0.0859  0.2285
  177DOPC   C2521639   4.842   6.898   3.703 -0.1652  0.0442 -0.3765
  177DOPC   H5R21640   4.941   6.901   3.752 -0.5868  1.3271  0.4599
  177DOPC   H5S21641   4.799   6.801   3.737 -1.5705  1.1908  1.3236
  177DOPC   C2621642   4.764   7.006   3.774  0.2275  0.6280 -0.3752
  177DOPC   H6R21643   4.672   7.023   3.714  0.3644 -0.0307 -0.7714
  177DOPC   H6S21644   4.831   7.094   3.766  2.3314 -0.7099  1.2500
  177DOPC   C2721645   4.735   6.980   3.929  0.3924  0.7465  0.1540
  177DOPC   H7R21646   4.670   6.892   3.948  0.5868  0.9642  2.0854
  177DOPC   H7S21647   4.682   7.074   3.956  0.0291  1.5287 -2.9002
  177DOPC   C2821648   4.853   6.954   4.025  0.5031 -0.5147  0.7176
  177DOPC   H8R21649   4.931   7.031   4.011  0.2608 -0.6046 -1.4325
  177DOPC   H8S21650   4.919   6.869   3.997  1.6822  0.5572  0.1492
  177DOPC   C2921651   4.796   6.965   4.164  0.7169 -0.1020 -0.4806
  177DOPC   H9R21652   4.723   7.047   4.171  0.7646 -0.1594  1.2604
  177DOPC  C21021653   4.803   6.883   4.267 -0.2984  0.0863  0.2786
  177DOPC  H10R21654   4.759   6.902   4.366  0.6407  1.2177  0.5075
  177DOPC  C21121655   4.863   6.744   4.248  0.8545  0.6829  0.1130
  177DOPC  H11R21656   4.925   6.721   4.338  0.6231 -0.9934 -0.1216
  177DOPC  H11S21657   4.928   6.751   4.159 -0.5280  1.1451 -0.8835
  177DOPC  C21221658   4.748   6.646   4.215 -0.6485  0.9951 -0.4253
  177DOPC  H12R21659   4.798   6.557   4.171 -0.4565  3.0378 -4.8800
  177DOPC  H12S21660   4.674   6.691   4.146 -3.3074 -0.2353  1.4249
  177DOPC  C21321661   4.677   6.599   4.344 -0.1701 -0.4465 -1.0629
  177DOPC  H13R21662   4.632   6.689   4.391  1.9947 -0.0283  0.3421
  177DOPC  H13S21663   4.752   6.560   4.415 -2.3560 -2.3263  0.3707
  177DOPC  C21421664   4.572   6.490   4.306  0.1929 -0.8492  0.3798
  177DOPC  H14R21665   4.638   6.426   4.245 -0.5736  0.8447 -2.4075
  177DOPC  H14S21666   4.493   6.539   4.245  0.9690 -1.2063 -0.9465
  177DOPC  C21521667   4.521   6.420   4.430 -0.1896  0.7661 -0.5419
  177DOPC  H15R21668   4.604   6.393   4.498 -1.2766 -0.8887  0.1932
  177DOPC  H15S21669   4.470   6.325   4.402 -0.4730  0.5779  0.5713
  177DOPC  C21621670   4.413   6.495   4.508 -0.2264 -0.3210  0.2496
  177DOPC  H16R21671   4.317   6.505   4.453  1.4136  0.8875 -2.5860
  177DOPC  H16S21672   4.453   6.595   4.535  1.3143 -0.3389 -1.7366
  177DOPC  C21721673   4.382   6.420   4.636  0.3768  0.3096  0.6984
  177DOPC  H17R21674   4.336   6.490   4.708 -0.9690 -1.0289  1.1930
  177DOPC  H17S21675   4.481   6.391   4.678  0.4564  0.7037  0.7850
  177DOPC  C21821676   4.282   6.299   4.627  0.1895 -0.5024 -0.2862
  177DOPC  H18R21677   4.325   6.198   4.610  1.3909  0.2915 -2.3330
  177DOPC  H18S21678   4.205   6.312   4.548  0.5744 -1.7065 -0.8816
  177DOPC  H18T21679   4.230   6.291   4.725 -0.6930  1.5805 -0.5457
  177DOPC   C3321680   5.615   6.735   3.474 -0.1727 -0.0600 -0.2045
  177DOPC   H3X21681   5.696   6.709   3.402  0.1063  0.1605  0.0255
  177DOPC   H3Y21682   5.600   6.638   3.526 -1.6619  0.0723 -0.3594
  177DOPC   C3421683   5.669   6.841   3.574  0.6853 -0.1803 -0.8330
  177DOPC   H4X21684   5.594   6.848   3.656 -0.0128  0.4255 -1.5054
  177DOPC   H4Y21685   5.664   6.939   3.521  2.2861  1.2415  1.4716
  177DOPC   C3521686   5.805   6.798   3.621  0.7506  0.1433 -0.5723
  177DOPC   H5X21687   5.885   6.820   3.548  1.6340  0.4364  0.4564
  177DOPC   H5Y21688   5.795   6.688   3.632 -0.4727  0.2128 -0.7963
  177DOPC   C3621689   5.841   6.872   3.753  0.4924  0.4784 -1.0043
  177DOPC   H6X21690   5.846   6.980   3.729  0.1788  0.7015 -0.1051
  177DOPC   H6Y21691   5.759   6.844   3.823  0.7393 -1.3250 -1.3659
  177DOPC   C3721692   5.968   6.817   3.813 -0.8269  0.2447 -0.8346
  177DOPC   H7X21693   5.954   6.711   3.842 -0.0152 -0.0340 -1.4395
  177DOPC   H7Y21694   6.046   6.821   3.734 -0.9860  4.1685 -0.9992
  177DOPC   C3821695   6.009   6.896   3.939 -0.5467  0.6720  0.0011
  177DOPC   H8X21696   6.008   7.007   3.939 -1.9601  0.6855  0.7824
  177DOPC   H8Y21697   6.115   6.868   3.956 -0.8010 -0.8379 -0.7387
  177DOPC   C3921698   5.929   6.862   4.059 -0.5596 -0.1112 -0.4135
  177DOPC   H9X21699   5.825   6.899   4.056 -0.7011 -0.4640 -3.6508
  177DOPC  C31021700   5.970   6.816   4.175  0.2359 -0.0583  0.2583
  177DOPC  H10X21701   5.897   6.807   4.257 -0.8572  1.3457 -0.5213
  177DOPC  C31121702   6.107   6.768   4.210  0.6919 -0.0104  0.1484
  177DOPC  H11X21703   6.189   6.799   4.141  1.7287 -0.7183  1.0257
  177DOPC  H11Y21704   6.112   6.658   4.226  0.2569 -0.1339 -0.5249
  177DOPC  C31221705   6.138   6.836   4.348 -0.5156 -0.2753 -0.3860
  177DOPC  H12X21706   6.055   6.836   4.421 -0.9833  1.1277 -0.8878
  177DOPC  H12Y21707   6.157   6.938   4.310 -0.6003 -0.4231 -0.8374
  177DOPC  C31321708   6.272   6.788   4.398  0.0042  0.2367  0.5171
  177DOPC  H13X21709   6.275   6.677   4.410 -2.9286 -0.4940 -3.4522
  177DOPC  H13Y21710   6.347   6.806   4.318 -1.7325  1.4203 -0.9112
  177DOPC  C31421711   6.323   6.870   4.511 -0.0840 -0.5831 -0.1080
  177DOPC  H14X21712   6.434   6.866   4.515  0.0361  0.6488 -1.5112
  177DOPC  H14Y21713   6.311   6.979   4.495 -1.5654 -0.7634 -0.3858
  177DOPC  C31521714   6.286   6.834   4.652  0.1588  0.2501 -0.1454
  177DOPC  H15X21715   6.176   6.844   4.663  0.2213  0.8621 -0.0770
  177DOPC  H15Y21716   6.323   6.913   4.721  0.0600 -1.7960  2.4292
  177DOPC  C31621717   6.338   6.698   4.700  0.2907 -0.1928 -0.1874
  177DOPC  H16X21718   6.285   6.625   4.635  0.2497  0.2294 -0.6364
  177DOPC  H16Y21719   6.448   6.687   4.686  0.5846  1.6785  0.3566
  177DOPC  C31721720   6.307   6.675   4.849  0.9346 -0.0197 -0.1737
  177DOPC  H17X21721   6.329   6.771   4.901 -0.0152  1.1219 -1.7848
  177DOPC  H17Y21722   6.196   6.666   4.855  1.0158 -0.7297  0.4969
  177DOPC  C31821723   6.385   6.562   4.906 -0.5676 -1.0116  0.2241
  177DOPC  H18X21724   6.390   6.562   5.017 -0.5362 -1.9143  0.2357
  177DOPC  H18Y21725   6.335   6.468   4.874  2.4891 -2.7299  0.0876
  177DOPC  H18Z21726   6.491   6.556   4.874 -0.9398 -0.3381 -1.2000
  178DOPC     N21727   2.199   5.574   2.969  0.5711 -0.0151 -0.0407
  178DOPC   C1221728   2.294   5.637   3.071 -0.1281 -0.6263  0.2376
  178DOPC  H12A21729   2.231   5.681   3.148 -0.7340 -0.2597 -0.4518
  178DOPC  H12B21730   2.342   5.727   3.037  0.0105  1.0990  4.3353
  178DOPC   C1321731   2.114   5.464   3.021  0.2688  0.7089  0.0264
  178DOPC  H13A21732   2.049   5.485   3.104 -1.6122 -2.1559 -0.5878
  178DOPC  H13B21733   2.049   5.426   2.943 -0.2147  0.0920  0.7176
  178DOPC  H13C21734   2.170   5.374   3.040 -0.1570  0.4361  0.0055
  178DOPC   C1421735   2.281   5.523   2.853  0.1814 -0.0759 -0.4655
  178DOPC  H14A21736   2.349   5.604   2.828  1.5461 -0.3734  1.9394
  178DOPC  H14B21737   2.346   5.449   2.897  0.8970  0.4428 -0.6365
  178DOPC  H14C21738   2.214   5.492   2.775 -0.5574  1.8353 -0.6500
  178DOPC   C1521739   2.107   5.683   2.928  0.0572 -0.5144 -0.4391
  178DOPC  H15A21740   2.081   5.737   3.018 -0.2199 -2.8340  0.9556
  178DOPC  H15B21741   2.015   5.640   2.890 -1.5120  0.5596  1.8719
  178DOPC  H15C21742   2.157   5.752   2.862 -0.2414 -1.9615 -2.2606
  178DOPC   C1121743   2.404   5.546   3.124  0.2067  0.5013 -0.5147
  178DOPC  H11A21744   2.440   5.593   3.218  0.7281 -0.7268 -0.0780
  178DOPC  H11B21745   2.351   5.453   3.153  2.4717 -1.3093 -1.7545
  178DOPC     P21746   2.620   5.593   2.982 -0.5621  0.3671 -0.2527
  178DOPC   O1321747   2.571   5.731   2.952 -0.1530  0.8513  0.2844
  178DOPC   O1421748   2.678   5.514   2.876  0.0030 -0.1167 -0.5777
  178DOPC   O1221749   2.502   5.508   3.026 -0.4407 -0.1154 -0.1317
  178DOPC   O1121750   2.711   5.599   3.111 -0.2957 -0.5273 -0.3931
  178DOPC    C121751   2.719   5.728   3.179 -0.6904 -0.3739 -0.0147
  178DOPC    HA21752   2.710   5.716   3.289 -0.3370  1.5502  0.2563
  178DOPC    HB21753   2.629   5.791   3.161  0.7368  1.1820 -2.1891
  178DOPC    C221754   2.841   5.815   3.136  0.0535  0.4875 -0.4093
  178DOPC    HS21755   2.839   5.850   3.030  1.5503 -0.4033 -0.7676
  178DOPC   O2121756   2.961   5.738   3.174 -0.0731 -0.0576  0.6624
  178DOPC   C2121757   3.080   5.787   3.141  0.4434  0.0709 -0.5071
  178DOPC   O2221758   3.100   5.893   3.088 -0.3815 -0.8017 -0.0533
  178DOPC   C2221759   3.184   5.690   3.199  0.3068 -0.0206 -0.0722
  178DOPC   H2R21760   3.280   5.744   3.184  0.1673 -0.3327 -2.4013
  178DOPC   H2S21761   3.169   5.594   3.145 -1.9290 -0.0068  0.4172
  178DOPC    C321762   2.838   5.958   3.210 -0.3853 -0.8493 -0.5891
  178DOPC    HX21763   2.734   5.993   3.191 -0.5968 -1.6507 -0.9738
  178DOPC    HY21764   2.910   6.028   3.161 -0.2641 -1.1108 -0.7901
  178DOPC   O3121765   2.884   5.950   3.348 -0.7787 -0.1434 -0.0429
  178DOPC   C3121766   2.791   5.954   3.442 -0.6098  0.0216 -0.2029
  178DOPC   O3221767   2.672   5.973   3.424 -0.2472 -0.4740 -0.2329
  178DOPC   C3221768   2.864   5.931   3.573 -0.5795 -0.0851  0.4052
  178DOPC   H2X21769   2.885   5.823   3.568 -2.1001 -0.3874 -0.0806
  178DOPC   H2Y21770   2.960   5.985   3.557 -1.7558  1.9119 -0.3253
  178DOPC   C2321771   3.155   5.661   3.352 -0.1595 -0.9199  0.7435
  178DOPC   H3R21772   3.065   5.597   3.362  0.5743 -2.1478 -0.2080
  178DOPC   H3S21773   3.130   5.762   3.392 -0.2201 -0.7718  0.3460
  178DOPC   C2421774   3.267   5.604   3.436 -0.0222  0.3136  0.0529
  178DOPC   H4R21775   3.209   5.590   3.530 -1.8405 -2.2379 -1.3308
  178DOPC   H4S21776   3.355   5.670   3.455  0.6226 -0.9001  1.5708
  178DOPC   C2521777   3.318   5.478   3.376 -0.0464  0.4093  0.0362
  178DOPC   H5R21778   3.359   5.490   3.274  0.1041 -0.4980 -0.0223
  178DOPC   H5S21779   3.235   5.409   3.349  0.4423  0.0596 -0.6006
  178DOPC   C2621780   3.415   5.388   3.466 -0.2584 -0.1485  0.2527
  178DOPC   H6R21781   3.513   5.441   3.464 -1.4742  2.4469  2.6167
  178DOPC   H6S21782   3.434   5.286   3.426 -1.6129  0.1788 -1.3123
  178DOPC   C2721783   3.375   5.370   3.611 -0.0433  0.3962  0.1736
  178DOPC   H7R21784   3.266   5.351   3.611 -0.0876  0.4131  2.1232
  178DOPC   H7S21785   3.380   5.459   3.678 -0.5759  0.9485 -0.5126
  178DOPC   C2821786   3.440   5.258   3.690 -0.9846  0.0210  0.4395
  178DOPC   H8R21787   3.424   5.156   3.650  1.5130  0.2323 -1.3051
  178DOPC   H8S21788   3.395   5.263   3.791  2.1629  0.3256  1.9257
  178DOPC   C2921789   3.585   5.283   3.695 -0.4080 -0.0206 -0.1310
  178DOPC   H9R21790   3.634   5.297   3.597  0.9705  1.0680  0.6750
  178DOPC  C21021791   3.661   5.292   3.807 -0.2436 -0.4379 -0.0638
  178DOPC  H10R21792   3.769   5.305   3.794 -0.5341 -0.1638 -2.9374
  178DOPC  C21121793   3.613   5.267   3.947 -0.5100 -0.5172 -0.0838
  178DOPC  H11R21794   3.506   5.240   3.952 -0.4180 -0.8875 -0.1463
  178DOPC  H11S21795   3.635   5.363   4.000  2.3984 -1.8242  1.2787
  178DOPC  C21221796   3.676   5.154   4.032  0.5681  0.2874  0.4730
  178DOPC  H12R21797   3.781   5.158   3.996  0.4798  2.8599  0.2971
  178DOPC  H12S21798   3.639   5.055   3.997  1.9361 -0.1198  0.1042
  178DOPC  C21321799   3.663   5.186   4.176 -0.2203 -0.3200  0.2448
  178DOPC  H13R21800   3.731   5.266   4.213 -0.0297 -0.3773  0.0191
  178DOPC  H13S21801   3.696   5.091   4.225  0.0134 -0.0633  0.5908
  178DOPC  C21421802   3.522   5.213   4.212 -0.2787  0.2695 -0.1753
  178DOPC  H14R21803   3.455   5.141   4.160 -1.0847  0.2299  0.9020
  178DOPC  H14S21804   3.502   5.313   4.168  1.4374  0.1206 -1.4518
  178DOPC  C21521805   3.494   5.183   4.359 -0.0669  0.2844 -0.2814
  178DOPC  H15R21806   3.548   5.259   4.419  0.2643  1.2377 -1.7368
  178DOPC  H15S21807   3.530   5.087   4.402  0.0079  1.2191  1.9002
  178DOPC  C21621808   3.342   5.194   4.380  0.3919 -0.3995 -0.0746
  178DOPC  H16R21809   3.291   5.113   4.323  1.5704 -1.8952  0.8998
  178DOPC  H16S21810   3.299   5.294   4.357  1.1206 -0.0598  0.0112
  178DOPC  C21721811   3.306   5.168   4.527  0.7500 -0.0604 -0.4394
  178DOPC  H17R21812   3.383   5.218   4.591  0.1086  0.2785  0.0763
  178DOPC  H17S21813   3.314   5.058   4.535  1.0508 -0.1506 -1.7938
  178DOPC  C21821814   3.163   5.220   4.566 -0.1735 -0.6439  0.3159
  178DOPC  H18R21815   3.159   5.327   4.537 -3.2320 -1.0003 -0.9184
  178DOPC  H18S21816   3.144   5.201   4.674 -0.9486 -0.8204  0.1520
  178DOPC  H18T21817   3.090   5.173   4.497  0.4341  0.1007 -0.8627
  178DOPC   C3321818   2.785   5.971   3.694  0.0575  0.5554 -0.3260
  178DOPC   H3X21819   2.690   5.914   3.706 -0.7470  2.0610  0.7532
  178DOPC   H3Y21820   2.758   6.078   3.682  2.1867  1.1782  0.0892
  178DOPC   C3421821   2.871   5.941   3.817 -0.3758  0.3778 -0.3955
  178DOPC   H4X21822   2.982   5.940   3.803  0.1444 -2.2457  2.6561
  178DOPC   H4Y21823   2.854   5.834   3.840 -0.5909  0.2524 -1.1278
  178DOPC   C3521824   2.852   6.040   3.931 -0.6726 -0.7736 -0.1876
  178DOPC   H5X21825   2.744   6.020   3.952 -1.2991  0.9018 -1.5235
  178DOPC   H5Y21826   2.870   6.143   3.894  2.6520 -1.0154  0.4603
  178DOPC   C3621827   2.931   6.009   4.052  0.5204 -0.7315 -0.6268
  178DOPC   H6X21828   2.880   6.051   4.141  1.9515 -0.3177  0.0254
  178DOPC   H6Y21829   2.936   5.899   4.073 -1.8943 -0.4220  2.4255
  178DOPC   C3721830   3.075   6.067   4.059 -0.1383 -0.1665 -0.0562
  178DOPC   H7X21831   3.140   6.038   3.973 -2.6954  0.5071 -2.3879
  178DOPC   H7Y21832   3.068   6.178   4.050  1.5199  0.0685  1.1044
  178DOPC   C3821833   3.140   6.030   4.195 -0.2578  0.5087 -0.5800
  178DOPC   H8X21834   3.250   6.041   4.184 -0.1007  0.2814  0.6040
  178DOPC   H8Y21835   3.138   5.920   4.210 -0.7153  0.5021 -0.6484
  178DOPC   C3921836   3.093   6.112   4.313  0.6209 -0.8963  0.0678
  178DOPC   H9X21837   2.997   6.166   4.313  1.4679  0.6695 -0.7635
  178DOPC  C31021838   3.168   6.126   4.426 -0.4289 -0.4626  0.7779
  178DOPC  H10X21839   3.130   6.191   4.506  1.4808 -0.5218  1.7989
  178DOPC  C31121840   3.298   6.060   4.455 -0.1044 -0.1747 -0.3015
  178DOPC  H11X21841   3.367   6.081   4.371  0.6042  0.2944  0.3806
  178DOPC  H11Y21842   3.286   5.950   4.460  1.3938 -0.4543 -1.8050
  178DOPC  C31221843   3.383   6.108   4.581  0.2740  0.2287  0.4038
  178DOPC  H12X21844   3.350   6.214   4.591 -0.2566 -0.0188  1.4577
  178DOPC  H12Y21845   3.491   6.114   4.559  0.1463 -0.6504 -0.5201
  178DOPC  C31321846   3.340   6.030   4.705 -0.2380  0.3743 -1.2460
  178DOPC  H13X21847   3.229   6.036   4.717 -0.4969 -2.3993 -1.4113
  178DOPC  H13Y21848   3.358   5.920   4.700  0.4208  0.4449 -0.5599
  178DOPC  C31421849   3.401   6.078   4.840  0.3899  0.3029 -0.4790
  178DOPC  H14X21850   3.510   6.060   4.831  0.2240 -1.6101  0.7613
  178DOPC  H14Y21851   3.376   6.185   4.853 -0.3958  0.3037 -1.7438
  178DOPC  C31521852   3.353   5.995   4.957  0.1394 -0.1121  0.0614
  178DOPC  H15X21853   3.384   5.888   4.954  2.4431  0.5169 -0.9909
  178DOPC  H15Y21854   3.244   6.005   4.977 -0.1181 -0.0404 -1.2909
  178DOPC  C31621855   3.414   6.066   5.080  0.1606 -0.7702 -0.7240
  178DOPC  H16X21856   3.525   6.056   5.082  0.0849 -1.6578  0.0709
  178DOPC  H16Y21857   3.385   6.173   5.082 -0.0641 -0.8368  0.4441
  178DOPC  C31721858   3.350   6.013   5.214  0.1983  0.5225 -0.5764
  178DOPC  H17X21859   3.353   6.098   5.286  1.4898  0.7656 -0.8971
  178DOPC  H17Y21860   3.241   5.992   5.206  0.0433  1.4390 -0.9548
  178DOPC  C31821861   3.413   5.887   5.265 -0.2090  0.0275 -0.5203
  178DOPC  H18X21862   3.373   5.857   5.364 -0.3656  2.2399  0.1429
  178DOPC  H18Y21863   3.388   5.812   5.187  0.6702  0.7267 -1.4958
  178DOPC  H18Z21864   3.523   5.900   5.276 -0.6045  2.2304  1.7980
  179DOPC     N21865   5.809   6.431   3.060 -0.5146 -0.3374  0.1087
  179DOPC   C1221866   5.860   6.301   3.127 -0.2604 -0.2362  0.3995
  179DOPC  H12A21867   5.798   6.266   3.208 -1.3397 -0.0999 -0.3413
  179DOPC  H12B21868   5.961   6.315   3.162  1.5160  1.0168 -4.3950
  179DOPC   C1321869   5.921   6.481   2.971 -0.9613 -0.6021  0.0465
  179DOPC  H13A21870   6.016   6.482   3.023 -0.6323  0.7547 -0.5524
  179DOPC  H13B21871   5.923   6.419   2.883  1.7666 -1.1063  0.3696
  179DOPC  H13C21872   5.889   6.571   2.921 -0.7576 -0.6883 -0.2358
  179DOPC   C1421873   5.792   6.531   3.173 -0.1048  0.8921  0.1575
  179DOPC  H14A21874   5.874   6.530   3.243  0.3921  1.3559 -0.4123
  179DOPC  H14B21875   5.775   6.630   3.133  0.9018  0.2139 -2.0572
  179DOPC  H14C21876   5.702   6.502   3.227 -0.7988 -0.6550 -1.7188
  179DOPC   C1521877   5.680   6.417   2.988  0.0224 -0.8491  0.1048
  179DOPC  H15A21878   5.650   6.514   2.950 -1.0111 -0.3047  2.1361
  179DOPC  H15B21879   5.600   6.402   3.059  1.1395  1.1171  1.8927
  179DOPC  H15C21880   5.695   6.347   2.907  0.6611  1.0621 -1.5091
  179DOPC   C1121881   5.882   6.174   3.037 -0.3232 -0.9410  0.5971
  179DOPC  H11A21882   5.791   6.137   2.984  0.7702 -1.4413 -1.0035
  179DOPC  H11B21883   5.947   6.206   2.953 -1.0677 -2.7832 -0.7424
  179DOPC     P21884   6.088   6.081   3.153  0.4601  0.0280 -0.2488
  179DOPC   O1321885   6.159   6.168   3.062  0.2389 -0.5528 -0.1122
  179DOPC   O1421886   6.139   5.943   3.177 -0.4836 -0.3226 -0.3340
  179DOPC   O1221887   5.941   6.066   3.111 -0.1147  0.4861 -0.5973
  179DOPC   O1121888   6.071   6.158   3.287 -0.1839  0.0419  0.0432
  179DOPC    C121889   5.994   6.103   3.391  0.0490  0.2293  0.1209
  179DOPC    HA21890   6.029   6.004   3.428 -1.5463  0.1549  1.5449
  179DOPC    HB21891   5.890   6.083   3.357  0.9957 -1.8795 -1.7845
  179DOPC    C221892   5.979   6.206   3.511  0.0909 -0.1080 -1.4539
  179DOPC    HS21893   5.925   6.294   3.473 -1.8341 -0.6327 -0.0733
  179DOPC   O2121894   6.110   6.229   3.571  0.5209 -0.5587 -0.0393
  179DOPC   C2121895   6.126   6.337   3.647  0.4582  0.5465  0.5575
  179DOPC   O2221896   6.046   6.428   3.654  0.1958  0.1007 -0.6408
  179DOPC   C2221897   6.259   6.335   3.713  0.2084 -0.0940 -0.4974
  179DOPC   H2R21898   6.323   6.398   3.647  1.0599 -0.6797 -0.2425
  179DOPC   H2S21899   6.313   6.238   3.709  2.2171  0.9247  0.5489
  179DOPC    C321900   5.892   6.140   3.626 -0.7945 -0.5036 -0.0269
  179DOPC    HX21901   5.951   6.059   3.674  0.9272  1.5498  1.5739
  179DOPC    HY21902   5.796   6.098   3.589 -0.6844 -0.3554 -0.4760
  179DOPC   O3121903   5.863   6.234   3.739 -0.3491  1.0767  0.4363
  179DOPC   C3121904   5.766   6.322   3.724  0.7022  0.5528 -1.0560
  179DOPC   O3221905   5.694   6.338   3.626  0.0867  0.1807 -0.2082
  179DOPC   C3221906   5.766   6.405   3.856  0.4248 -0.9987  0.4512
  179DOPC   H2X21907   5.819   6.340   3.929 -0.4996 -1.6243  0.5814
  179DOPC   H2Y21908   5.842   6.484   3.839 -0.4363  0.1936  1.7937
  179DOPC   C2321909   6.256   6.372   3.863  0.5779 -0.0296  0.2824
  179DOPC   H3R21910   6.198   6.466   3.870  1.0009  0.1468  1.8713
  179DOPC   H3S21911   6.360   6.400   3.892  0.0283 -0.1922  2.6433
  179DOPC   C2421912   6.193   6.273   3.957  0.3252  0.9712 -0.4926
  179DOPC   H4R21913   6.262   6.188   3.975 -2.3276 -1.4140 -0.8306
  179DOPC   H4S21914   6.100   6.229   3.914  1.0371 -0.6419 -0.4655
  179DOPC   C2521915   6.146   6.344   4.086 -0.1682 -0.9785 -0.7887
  179DOPC   H5R21916   6.089   6.431   4.048  1.4882 -0.3439 -1.9733
  179DOPC   H5S21917   6.228   6.388   4.147 -1.5779  0.0239  0.4640
  179DOPC   C2621918   6.075   6.254   4.187  0.7500  0.1732  1.0783
  179DOPC   H6R21919   6.147   6.186   4.237  1.9610 -0.5825 -1.5251
  179DOPC   H6S21920   5.996   6.198   4.133  2.9037 -0.5824 -1.5132
  179DOPC   C2721921   6.002   6.347   4.288 -0.2498 -0.7198 -0.3731
  179DOPC   H7R21922   5.916   6.298   4.338 -1.4002  2.1115  0.6399
  179DOPC   H7S21923   5.957   6.428   4.227  0.5779 -0.9642 -1.3342
  179DOPC   C2821924   6.103   6.409   4.387 -0.1216 -0.3614 -0.1706
  179DOPC   H8R21925   6.046   6.487   4.442 -2.0387 -2.5035  1.0752
  179DOPC   H8S21926   6.183   6.462   4.332 -0.4495  0.1152 -0.1976
  179DOPC   C2921927   6.179   6.316   4.481  0.0561 -0.2189  0.2985
  179DOPC   H9R21928   6.242   6.250   4.421 -1.2874 -0.2020 -1.2010
  179DOPC  C21021929   6.164   6.292   4.613  0.3172  0.2135  0.2342
  179DOPC  H10R21930   6.223   6.221   4.672 -1.4574 -1.9618 -0.4605
  179DOPC  C21121931   6.063   6.367   4.704 -0.2810  0.4898  0.4358
  179DOPC  H11R21932   5.961   6.369   4.661 -0.3074  1.1532  0.5155
  179DOPC  H11S21933   6.102   6.470   4.720 -1.0115  0.9960 -0.9246
  179DOPC  C21221934   6.054   6.293   4.842 -0.2417 -0.1242  0.3483
  179DOPC  H12R21935   6.152   6.282   4.892  0.0632 -0.6307 -0.3445
  179DOPC  H12S21936   6.012   6.192   4.823 -0.6805 -0.1305  1.3154
  179DOPC  C21321937   5.955   6.357   4.937  0.1085 -0.0486  0.0650
  179DOPC  H13R21938   5.922   6.280   5.009 -0.2555 -0.2403 -0.3012
  179DOPC  H13S21939   5.866   6.380   4.874  0.5095  2.7266  0.3661
  179DOPC  C21421940   6.006   6.482   5.004  0.8984  0.1603  0.0326
  179DOPC  H14R21941   6.022   6.566   4.934 -0.9593  0.6032  0.0980
  179DOPC  H14S21942   6.101   6.472   5.061  0.1413 -1.2487  1.0898
  179DOPC  C21521943   5.907   6.529   5.110  0.1671 -0.1117 -0.0963
  179DOPC  H15R21944   5.896   6.451   5.188  0.4870  2.2348  2.4745
  179DOPC  H15S21945   5.812   6.542   5.053  0.2194  1.5602  0.1455
  179DOPC  C21621946   5.938   6.664   5.168 -0.3044  0.2606 -0.4272
  179DOPC  H16R21947   5.978   6.731   5.089  0.3601  2.1629  1.3927
  179DOPC  H16S21948   6.023   6.649   5.239 -0.4726 -2.3177 -0.6783
  179DOPC  C21721949   5.821   6.736   5.250 -0.3144 -0.4001  0.0316
  179DOPC  H17R21950   5.724   6.749   5.197 -0.8784 -2.6895  0.3804
  179DOPC  H17S21951   5.856   6.840   5.268  0.7650 -0.9018  0.9502
  179DOPC  C21821952   5.803   6.675   5.389 -0.4310  0.3636 -1.0184
  179DOPC  H18R21953   5.776   6.568   5.381  2.0325 -0.6171  1.8865
  179DOPC  H18S21954   5.727   6.730   5.449 -1.9786 -0.5912 -2.0374
  179DOPC  H18T21955   5.900   6.674   5.443 -1.1700 -0.4506  0.3586
  179DOPC   C3321956   5.625   6.470   3.894 -0.1294 -0.6154 -0.5829
  179DOPC   H3X21957   5.558   6.397   3.946  0.0458 -0.5220 -0.2189
  179DOPC   H3Y21958   5.565   6.498   3.805 -1.4839 -2.3292 -0.2828
  179DOPC   C3421959   5.641   6.600   3.976 -0.0792  0.4106  1.3929
  179DOPC   H4X21960   5.545   6.655   3.977 -1.3220 -1.5999  3.1808
  179DOPC   H4Y21961   5.724   6.656   3.929  0.9082 -2.5070 -0.6743
  179DOPC   C3521962   5.661   6.569   4.128 -0.0450  0.1425 -0.2683
  179DOPC   H5X21963   5.677   6.667   4.178  0.2630  0.2847 -0.6421
  179DOPC   H5Y21964   5.753   6.507   4.135 -0.0763 -0.0840 -1.6545
  179DOPC   C3621965   5.548   6.487   4.182 -0.5990 -0.1475 -0.3255
  179DOPC   H6X21966   5.451   6.541   4.178 -0.6329 -0.1781  0.0067
  179DOPC   H6Y21967   5.524   6.390   4.134 -0.6107 -0.3577  0.0971
  179DOPC   C3721968   5.589   6.448   4.327  0.3552 -0.1214  0.3602
  179DOPC   H7X21969   5.531   6.353   4.333  2.2450 -1.2736  1.0537
  179DOPC   H7Y21970   5.698   6.427   4.327  0.7114  1.5297 -0.3932
  179DOPC   C3821971   5.557   6.548   4.435  0.2536 -0.0770 -0.0448
  179DOPC   H8X21972   5.447   6.564   4.432  0.3263  0.3390 -0.7481
  179DOPC   H8Y21973   5.598   6.649   4.415  1.1134 -0.3413  0.3443
  179DOPC   C3921974   5.586   6.491   4.571  0.9897  0.2438 -0.3840
  179DOPC   H9X21975   5.507   6.425   4.609 -0.0309 -0.5884 -3.6312
  179DOPC  C31021976   5.690   6.531   4.649  0.2063  0.4351  0.6586
  179DOPC  H10X21977   5.704   6.479   4.745  2.7479 -0.8579 -0.3168
  179DOPC  C31121978   5.794   6.629   4.605  0.3585  0.5077 -0.0416
  179DOPC  H11X21979   5.802   6.630   4.494 -1.8734  0.3749 -0.2460
  179DOPC  H11Y21980   5.894   6.608   4.648  0.4994 -0.7475 -0.9313
  179DOPC  C31221981   5.760   6.769   4.651  0.4732 -0.6827 -0.2559
  179DOPC  H12X21982   5.660   6.808   4.625 -0.0694 -2.3401 -0.7547
  179DOPC  H12Y21983   5.830   6.835   4.595 -0.6717  1.0364  0.2801
  179DOPC  C31321984   5.788   6.799   4.797  0.3958 -0.3263  0.0308
  179DOPC  H13X21985   5.691   6.773   4.843 -0.3522  1.9527 -0.0920
  179DOPC  H13Y21986   5.881   6.745   4.825 -0.0527  0.3315  3.1560
  179DOPC  C31421987   5.803   6.951   4.821  0.3927  0.2175  0.1357
  179DOPC  H14X21988   5.857   7.003   4.739  1.7034  0.3552  1.0553
  179DOPC  H14Y21989   5.703   7.000   4.822  1.3015  2.1393  0.4856
  179DOPC  C31521990   5.860   6.981   4.956 -0.2406 -0.3410  0.1755
  179DOPC  H15X21991   5.949   6.914   4.966 -0.3364 -0.3607  0.9311
  179DOPC  H15Y21992   5.789   6.969   5.041 -2.7061  0.7358 -1.6290
  179DOPC  C31621993   5.907   7.128   4.967 -0.0124 -0.1042  0.5860
  179DOPC  H16X21994   5.977   7.135   5.053 -0.4764 -1.7323  1.1158
  179DOPC  H16Y21995   5.967   7.152   4.876 -1.2326 -0.1582 -0.2439
  179DOPC  C31721996   5.794   7.229   4.960 -0.0594  0.1991 -0.5348
  179DOPC  H17X21997   5.768   7.239   4.852  0.1545 -0.4002 -0.6416
  179DOPC  H17Y21998   5.701   7.200   5.013  0.7935 -0.1312  0.8436
  179DOPC  C31821999   5.840   7.368   5.007  0.2756  0.0570  0.5644
  179DOPC  H18X22000   5.934   7.396   4.956 -0.9241  1.6910 -0.8447
  179DOPC  H18Y22001   5.763   7.446   4.990  1.8654  1.4260 -0.7034
  179DOPC  H18Z22002   5.855   7.355   5.117  0.5780 -1.9035  0.3211
  180DOPC     N22003   7.554   3.573   2.895  0.3673  0.0006  0.2140
  180DOPC   C1222004   7.502   3.633   3.023  0.0221 -0.5241  0.0870
  180DOPC  H12A22005   7.394   3.640   3.020 -0.0213 -0.6847  1.0324
  180DOPC  H12B22006   7.549   3.728   3.043 -0.5769 -0.2752  0.3421
  180DOPC   C1322007   7.701   3.570   2.887 -0.1331  0.1346 -0.2491
  180DOPC  H13A22008   7.736   3.515   2.801 -0.3468  0.0224 -0.2642
  180DOPC  H13B22009   7.755   3.664   2.888  0.5809 -0.2431 -1.5776
  180DOPC  H13C22010   7.745   3.515   2.970  0.6642 -0.5623 -1.1095
  180DOPC   C1422011   7.509   3.652   2.772 -0.7439  0.0682  0.0808
  180DOPC  H14A22012   7.537   3.597   2.684  1.2226 -0.4077  0.9513
  180DOPC  H14B22013   7.402   3.665   2.763 -0.4069  1.2223 -4.0054
  180DOPC  H14C22014   7.552   3.751   2.771 -1.5724  0.4339 -0.4198
  180DOPC   C1522015   7.495   3.434   2.887 -0.6218 -0.1798  1.1707
  180DOPC  H15A22016   7.533   3.378   2.802  0.8549  1.2904  0.8133
  180DOPC  H15B22017   7.387   3.440   2.884 -0.5489  2.2086  1.5601
  180DOPC  H15C22018   7.513   3.375   2.976 -1.2316 -0.9013  0.8337
  180DOPC   C1122019   7.539   3.562   3.155  0.2700 -0.5946 -0.4246
  180DOPC  H11A22020   7.647   3.538   3.163 -0.0762 -1.6874  1.5846
  180DOPC  H11B22021   7.527   3.630   3.241  2.6183 -0.1041 -0.4262
  180DOPC     P22022   7.318   3.448   3.202  0.5305 -0.0213 -0.5483
  180DOPC   O1322023   7.255   3.313   3.232  0.0846 -0.7726  0.2181
  180DOPC   O1422024   7.250   3.535   3.102  0.5059  0.0314  0.4365
  180DOPC   O1222025   7.471   3.434   3.168 -0.1594  0.7272 -0.0665
  180DOPC   O1122026   7.329   3.533   3.338  0.5470  0.2191 -0.1815
  180DOPC    C122027   7.383   3.472   3.457 -0.6700  0.0895  0.3879
  180DOPC    HA22028   7.439   3.557   3.502  0.3314 -0.1382 -0.3737
  180DOPC    HB22029   7.453   3.392   3.423 -1.0968  0.4392 -1.4683
  180DOPC    C222030   7.266   3.432   3.564 -0.2225 -0.1700  0.0971
  180DOPC    HS22031   7.219   3.346   3.512  0.3414 -0.8254  0.6647
  180DOPC   O2122032   7.183   3.551   3.570  0.0314 -0.0459 -0.1187
  180DOPC   C2122033   7.057   3.525   3.550  0.4513 -0.0487 -0.1285
  180DOPC   O2222034   7.013   3.410   3.534  0.1686 -0.5909  0.1050
  180DOPC   C2222035   6.974   3.649   3.564 -0.3463  0.5552 -0.2338
  180DOPC   H2R22036   6.874   3.627   3.520 -1.2586 -0.9499  2.3070
  180DOPC   H2S22037   7.015   3.730   3.501 -1.2410  0.7858 -0.5421
  180DOPC    C322038   7.309   3.385   3.705  0.2228 -0.7085  0.7294
  180DOPC    HX22039   7.337   3.479   3.758  1.0301 -0.7078  0.3226
  180DOPC    HY22040   7.396   3.315   3.698  1.0907  0.3577  0.6186
  180DOPC   O3122041   7.202   3.329   3.776  0.1621 -0.7935  0.1726
  180DOPC   C3122042   7.175   3.200   3.760  0.0655  0.8662  0.1574
  180DOPC   O3222043   7.241   3.123   3.693 -0.3494  0.1989 -0.6299
  180DOPC   C3222044   7.051   3.159   3.839 -0.0375  0.2543 -0.0920
  180DOPC   H2X22045   6.990   3.249   3.861 -1.2986  0.2201 -3.0498
  180DOPC   H2Y22046   6.994   3.092   3.773  3.3888 -1.9177 -1.1293
  180DOPC   C2322047   6.961   3.701   3.706 -0.7278  0.2285  0.2350
  180DOPC   H3R22048   6.940   3.616   3.774 -2.4366  1.3494  1.1749
  180DOPC   H3S22049   6.870   3.764   3.702  0.3957  2.0990  1.8876
  180DOPC   C2422050   7.085   3.771   3.755 -0.8354  0.1491 -0.0635
  180DOPC   H4R22051   7.131   3.848   3.689 -0.1746  0.1572  0.3886
  180DOPC   H4S22052   7.151   3.684   3.775 -0.1369  1.1453  2.3083
  180DOPC   C2522053   7.063   3.843   3.887 -0.0469 -0.1647 -0.4438
  180DOPC   H5R22054   6.980   3.915   3.873 -2.1443 -1.9560  1.8872
  180DOPC   H5S22055   7.157   3.893   3.917  0.2063 -0.8759 -0.0243
  180DOPC   C2622056   7.027   3.747   3.995 -0.2037  0.3254 -0.6295
  180DOPC   H6R22057   7.078   3.649   3.985 -0.6411 -0.1767  1.5864
  180DOPC   H6S22058   6.917   3.732   3.999 -0.1107 -0.3101 -0.4203
  180DOPC   C2722059   7.071   3.804   4.126  1.0508  0.2860 -0.2156
  180DOPC   H7R22060   7.016   3.900   4.134  0.7393  0.0433  0.7061
  180DOPC   H7S22061   7.177   3.836   4.123  1.5816 -1.4110 -0.7753
  180DOPC   C2822062   7.042   3.719   4.254 -0.6058 -0.1934 -0.2433
  180DOPC   H8R22063   7.072   3.773   4.346  2.3404 -0.9298 -0.6714
  180DOPC   H8S22064   7.109   3.633   4.234  2.2016  2.0196 -0.9717
  180DOPC   C2922065   6.904   3.657   4.251  0.3496 -0.7739 -0.0128
  180DOPC   H9R22066   6.889   3.563   4.196 -1.5338 -0.3547 -0.3029
  180DOPC  C21022067   6.799   3.685   4.334 -0.6008  0.1565  0.7016
  180DOPC  H10R22068   6.708   3.623   4.333  0.1462 -0.9848  0.9045
  180DOPC  C21122069   6.805   3.787   4.440  0.1276  0.2339  0.6131
  180DOPC  H11R22070   6.725   3.861   4.420 -1.7805 -1.3919  1.7710
  180DOPC  H11S22071   6.905   3.833   4.441  0.7389 -1.0355  0.1723
  180DOPC  C21222072   6.771   3.737   4.577  0.7548  0.4882  0.1909
  180DOPC  H12R22073   6.855   3.668   4.601  1.3099  1.1887  0.3214
  180DOPC  H12S22074   6.672   3.690   4.594  0.4836  0.8692 -0.3084
  180DOPC  C21322075   6.775   3.856   4.676  0.2822  0.3755  0.3539
  180DOPC  H13R22076   6.694   3.930   4.658  0.1027  0.3873  1.1596
  180DOPC  H13S22077   6.867   3.914   4.657  1.3125 -1.1610  0.4645
  180DOPC  C21422078   6.782   3.807   4.822 -0.0171  0.3342 -0.6487
  180DOPC  H14R22079   6.883   3.764   4.840  0.6029  1.5233 -1.1697
  180DOPC  H14S22080   6.705   3.732   4.850  0.0703  1.5058  3.4313
  180DOPC  C21522081   6.781   3.924   4.928 -0.4515  0.4522 -0.8122
  180DOPC  H15R22082   6.866   3.994   4.915 -0.8028  1.6252  2.4339
  180DOPC  H15S22083   6.787   3.883   5.031  0.4057 -0.4239 -1.2022
  180DOPC  C21622084   6.654   4.003   4.920  0.1398 -0.0505 -0.2976
  180DOPC  H16R22085   6.565   3.937   4.912 -0.8985  1.2259  0.2431
  180DOPC  H16S22086   6.664   4.064   4.828  1.8852  1.1003  0.5961
  180DOPC  C21722087   6.623   4.093   5.046 -0.6210  0.0815  0.7318
  180DOPC  H17R22088   6.717   4.148   5.067 -0.1938 -0.6562  0.7767
  180DOPC  H17S22089   6.611   4.026   5.134  1.2797  0.5034  1.3426
  180DOPC  C21822090   6.512   4.198   5.035 -0.3854  0.0156 -0.1654
  180DOPC  H18R22091   6.526   4.273   5.115  0.3777 -0.3436  0.0519
  180DOPC  H18S22092   6.418   4.139   5.043  1.0580 -2.4246 -0.0360
  180DOPC  H18T22093   6.514   4.246   4.935 -0.7988 -4.3486 -2.5466
  180DOPC   C3322094   7.083   3.089   3.973  0.2228  0.7159 -0.2956
  180DOPC   H3X22095   7.146   2.999   3.958  0.5914  0.6026  1.6157
  180DOPC   H3Y22096   6.991   3.056   4.025 -0.4007  1.2553 -1.0333
  180DOPC   C3422097   7.158   3.184   4.074  0.1003 -0.9038  0.0815
  180DOPC   H4X22098   7.231   3.243   4.015  0.2417 -1.0108  0.1487
  180DOPC   H4Y22099   7.209   3.119   4.148  1.5353  0.0656 -0.0261
  180DOPC   C3522100   7.067   3.289   4.150 -0.2021  0.2521 -0.0291
  180DOPC   H5X22101   6.961   3.255   4.143  0.4474 -2.2642  1.0439
  180DOPC   H5Y22102   7.081   3.385   4.097  2.4064 -1.2362 -2.2983
  180DOPC   C3622103   7.101   3.308   4.293  0.1168 -0.0314 -0.6777
  180DOPC   H6X22104   7.212   3.321   4.290  0.2260 -0.6590  0.1937
  180DOPC   H6Y22105   7.068   3.410   4.320  1.9689  0.8437 -1.5329
  180DOPC   C3722106   7.069   3.190   4.390 -0.3563  0.1553 -0.0783
  180DOPC   H7X22107   6.958   3.191   4.397 -0.4343  1.5045 -1.0868
  180DOPC   H7Y22108   7.108   3.097   4.344 -0.6612  0.3014 -0.6534
  180DOPC   C3822109   7.110   3.231   4.532 -0.1908  0.2421 -0.3705
  180DOPC   H8X22110   7.060   3.329   4.549  2.6406  1.7983 -0.3692
  180DOPC   H8Y22111   7.219   3.253   4.536 -0.1863  0.5425 -1.6884
  180DOPC   C3922112   7.070   3.129   4.635  0.1854 -0.3853  0.1477
  180DOPC   H9X22113   7.092   3.029   4.593  0.4379  0.6630 -2.3376
  180DOPC  C31022114   7.008   3.157   4.750  0.9161  0.0901  0.0679
  180DOPC  H10X22115   6.974   3.074   4.814 -1.2055 -1.1516 -2.4629
  180DOPC  C31122116   6.989   3.292   4.815 -0.2107  0.0018  0.5569
  180DOPC  H11X22117   6.892   3.331   4.780  0.1861 -0.3399 -1.0383
  180DOPC  H11Y22118   7.064   3.367   4.780  0.1542 -0.1102  1.0815
  180DOPC  C31222119   7.006   3.297   4.973 -0.0866 -0.1948  0.6398
  180DOPC  H12X22120   7.095   3.243   5.012  0.7846 -1.1463 -2.3657
  180DOPC  H12Y22121   6.918   3.238   5.006 -0.0566 -0.5058  0.1735
  180DOPC  C31322122   7.001   3.446   5.028  0.1953 -0.1812  0.5868
  180DOPC  H13X22123   6.909   3.497   4.991  1.5655  2.6507  0.7942
  180DOPC  H13Y22124   6.993   3.461   5.138 -0.6338  2.2217  0.2682
  180DOPC  C31422125   7.123   3.524   4.985 -0.3739 -0.1761  0.0670
  180DOPC  H14X22126   7.135   3.520   4.874 -0.0281  0.0003  0.0952
  180DOPC  H14Y22127   7.112   3.630   5.014 -0.8745 -0.7160  2.0025
  180DOPC  C31522128   7.258   3.478   5.051  0.2941 -0.4713 -0.6265
  180DOPC  H15X22129   7.273   3.375   5.012 -2.0492 -0.4519 -1.7067
  180DOPC  H15Y22130   7.243   3.475   5.161 -0.2860  1.9069 -0.5750
  180DOPC  C31622131   7.382   3.569   5.042 -0.3361 -0.4115 -0.3318
  180DOPC  H16X22132   7.405   3.587   4.935  0.3631  1.6874  0.1181
  180DOPC  H16Y22133   7.362   3.668   5.090  2.5212  0.4007 -0.6570
  180DOPC  C31722134   7.517   3.526   5.111  0.2746  0.7318 -0.5562
  180DOPC  H17X22135   7.501   3.522   5.220 -1.1936  1.0214 -0.7378
  180DOPC  H17Y22136   7.549   3.421   5.099 -0.3196 -0.1941  4.1682
  180DOPC  C31822137   7.632   3.628   5.092  0.1741 -0.1457 -0.2117
  180DOPC  H18X22138   7.592   3.731   5.095  1.5063  0.4290 -1.4721
  180DOPC  H18Y22139   7.692   3.617   5.185  1.0908  0.1538 -0.7687
  180DOPC  H18Z22140   7.684   3.606   4.997 -0.3446  0.3454 -0.6204
  181DOPC     N22141   1.888   2.443   2.934 -0.3857 -0.2219 -0.0911
  181DOPC   C1222142   1.766   2.380   2.995 -0.2393  0.2241 -0.1676
  181DOPC  H12A22143   1.768   2.273   2.979  0.3877  0.3168 -0.7543
  181DOPC  H12B22144   1.672   2.412   2.951 -0.5845  0.4378  0.7050
  181DOPC   C1322145   1.862   2.586   2.932 -1.0056  0.2995  0.1908
  181DOPC  H13A22146   1.939   2.641   2.880  0.2261 -1.6239 -0.1131
  181DOPC  H13B22147   1.773   2.626   2.886 -2.5314 -1.4670  1.4639
  181DOPC  H13C22148   1.856   2.620   3.035 -1.2763 -1.0213  0.6278
  181DOPC   C1422149   1.906   2.388   2.802 -0.4668  0.0897  0.9846
  181DOPC  H14A22150   1.945   2.288   2.797 -0.4817  0.1408 -1.8729
  181DOPC  H14B22151   1.818   2.390   2.741 -0.1603 -2.9753  0.3011
  181DOPC  H14C22152   1.976   2.450   2.747 -1.4071 -0.1993 -0.5720
  181DOPC   C1522153   2.005   2.410   3.019  0.4538  0.0511 -0.1038
  181DOPC  H15A22154   1.976   2.430   3.121 -0.1856 -0.5225 -0.1685
  181DOPC  H15B22155   2.093   2.463   2.986 -0.3059  2.6839  1.6843
  181DOPC  H15C22156   2.023   2.304   3.008 -0.9108 -0.1420 -0.7279
  181DOPC   C1122157   1.752   2.391   3.145 -0.0149 -0.3975  0.5977
  181DOPC  H11A22158   1.667   2.328   3.178 -2.3107  0.3738 -3.2400
  181DOPC  H11B22159   1.840   2.352   3.201 -1.4402 -1.5454  2.1417
  181DOPC     P22160   1.582   2.579   3.176 -0.4327  0.4382  0.1626
  181DOPC   O1322161   1.502   2.487   3.089 -0.1673  0.1186 -0.5787
  181DOPC   O1422162   1.575   2.726   3.160  0.8653  0.9005 -0.7468
  181DOPC   O1222163   1.731   2.526   3.180 -0.1304  0.5050  0.0320
  181DOPC   O1122164   1.535   2.542   3.324  0.1771 -0.1334  0.1413
  181DOPC    C122165   1.600   2.625   3.428 -0.1722  0.1837  0.2725
  181DOPC    HA22166   1.634   2.725   3.394 -1.9783 -0.0180 -2.4174
  181DOPC    HB22167   1.685   2.567   3.471 -1.1807 -3.2952 -2.0215
  181DOPC    C222168   1.498   2.649   3.542  0.4476 -0.7789 -0.1554
  181DOPC    HS22169   1.551   2.717   3.612  1.2247 -0.3572 -1.1262
  181DOPC   O2122170   1.450   2.530   3.604 -0.1859 -0.1702 -0.1439
  181DOPC   C2122171   1.412   2.530   3.727  0.4303 -0.1695 -0.1534
  181DOPC   O2222172   1.415   2.629   3.800  0.1555  0.0491 -0.1081
  181DOPC   C2222173   1.369   2.385   3.769 -0.1347  0.1635 -0.8018
  181DOPC   H2R22174   1.445   2.321   3.719 -0.9786 -0.3830 -1.4161
  181DOPC   H2S22175   1.268   2.355   3.734 -0.9968 -0.6497  2.0789
  181DOPC    C322176   1.382   2.726   3.482 -0.1109  0.2408  0.1688
  181DOPC    HX22177   1.325   2.660   3.413 -0.4879  1.5699 -0.8463
  181DOPC    HY22178   1.422   2.806   3.416  1.5255 -1.3684 -0.8651
  181DOPC   O3122179   1.297   2.783   3.587  0.2468  0.0813 -0.3821
  181DOPC   C3122180   1.333   2.902   3.645  0.0174 -0.7104 -0.5905
  181DOPC   O3222181   1.423   2.972   3.602 -0.5085 -0.0024  0.5163
  181DOPC   C3222182   1.241   2.947   3.759  0.4070 -0.2184  0.1229
  181DOPC   H2X22183   1.142   2.971   3.715  0.8851  2.6958  0.4653
  181DOPC   H2Y22184   1.223   2.877   3.844 -1.0330  0.6466  0.5630
  181DOPC   C2322185   1.376   2.350   3.927 -0.5818  0.0409  0.0716
  181DOPC   H3R22186   1.466   2.394   3.975  0.9272 -2.0808 -0.6699
  181DOPC   H3S22187   1.394   2.242   3.944  1.4004  0.3394  0.1725
  181DOPC   C2422188   1.242   2.385   3.998 -0.0400  0.3649 -1.8350
  181DOPC   H4R22189   1.165   2.324   3.947 -2.0630  1.0044  0.3000
  181DOPC   H4S22190   1.216   2.489   3.970  0.2533  0.6178 -1.1758
  181DOPC   C2522191   1.240   2.355   4.149 -0.4483 -0.3545  0.6036
  181DOPC   H5R22192   1.290   2.444   4.193  1.5639 -0.9446 -0.3232
  181DOPC   H5S22193   1.296   2.263   4.178 -1.4961 -0.2154  3.4172
  181DOPC   C2622194   1.097   2.348   4.212  0.3731 -0.3060 -0.2779
  181DOPC   H6R22195   1.043   2.254   4.187 -0.4696 -0.2782  1.3125
  181DOPC   H6S22196   1.034   2.430   4.171  3.0357  1.6913 -0.6382
  181DOPC   C2722197   1.103   2.356   4.364  0.6247 -0.3835  0.1305
  181DOPC   H7R22198   1.125   2.455   4.408  0.7033 -1.2059  2.0487
  181DOPC   H7S22199   1.172   2.279   4.405 -3.6874 -3.5108  2.3387
  181DOPC   C2822200   0.966   2.307   4.425  1.2480  0.3439 -0.1156
  181DOPC   H8R22201   0.959   2.203   4.388  0.7271  0.0866  0.6845
  181DOPC   H8S22202   0.888   2.373   4.382  1.1718  0.1188 -0.3240
  181DOPC   C2922203   0.953   2.309   4.578 -0.3577 -0.0360  0.1976
  181DOPC   H9R22204   0.955   2.408   4.627  1.9020 -0.0143  0.1595
  181DOPC  C21022205   0.954   2.199   4.658 -0.4940  0.0268  0.2169
  181DOPC  H10R22206   0.960   2.208   4.767  0.2991 -1.8016  0.3652
  181DOPC  C21122207   0.970   2.057   4.613 -0.4198  0.1681 -0.6571
  181DOPC  H11R22208   0.987   2.051   4.504 -0.2602  0.6518 -0.6614
  181DOPC  H11S22209   0.874   2.007   4.640 -0.4576  0.4859 -0.1788
  181DOPC  C21222210   1.087   1.983   4.687  0.5004  0.2487 -0.3447
  181DOPC  H12R22211   1.086   1.877   4.652  0.9204  0.1821 -0.1515
  181DOPC  H12S22212   1.065   1.990   4.796 -0.0427  0.8322 -0.4876
  181DOPC  C21322213   1.228   2.043   4.688 -0.1973 -0.1067 -0.2610
  181DOPC  H13R22214   1.225   2.143   4.735 -1.3622 -0.8005  1.2258
  181DOPC  H13S22215   1.268   2.062   4.586  0.9768 -0.4760  0.1115
  181DOPC  C21422216   1.338   1.965   4.775 -0.8971 -0.4195 -0.1962
  181DOPC  H14R22217   1.443   1.997   4.755 -0.8013 -2.0668 -2.7937
  181DOPC  H14S22218   1.344   1.856   4.754  2.8636 -0.4318  0.3051
  181DOPC  C21522219   1.309   1.991   4.924  0.4298  0.0639  0.3230
  181DOPC  H15R22220   1.228   1.917   4.942 -2.0006  2.1228 -1.5420
  181DOPC  H15S22221   1.269   2.094   4.935  0.1122 -0.0016 -0.2216
  181DOPC  C21622222   1.435   1.964   5.013  0.0229 -0.4975  0.6554
  181DOPC  H16R22223   1.504   2.047   4.988  0.0400 -0.2539  1.4596
  181DOPC  H16S22224   1.473   1.867   4.976 -0.1424  0.6548 -2.9170
  181DOPC  C21722225   1.399   1.952   5.165  0.2966  0.2063  0.7810
  181DOPC  H17R22226   1.307   1.891   5.172  0.5493 -0.2251  0.3549
  181DOPC  H17S22227   1.362   2.054   5.192 -1.6551 -0.0686 -0.6899
  181DOPC  C21822228   1.509   1.906   5.256  0.2616 -0.4194  0.0822
  181DOPC  H18R22229   1.455   1.877   5.349 -2.0900 -2.2946 -1.7465
  181DOPC  H18S22230   1.571   1.994   5.282  1.1274 -1.1189  0.4294
  181DOPC  H18T22231   1.564   1.817   5.218  0.2007 -1.1701  1.6418
  181DOPC   C3322232   1.297   3.071   3.829  0.0876  0.3205  0.5777
  181DOPC   H3X22233   1.221   3.132   3.884  0.3914  1.4215 -0.1896
  181DOPC   H3Y22234   1.347   3.146   3.764  0.8425 -0.6186  0.0661
  181DOPC   C3422235   1.405   3.037   3.939  0.0809 -0.5533 -0.9004
  181DOPC   H4X22236   1.444   3.134   3.975 -0.2476 -0.9017  0.4567
  181DOPC   H4Y22237   1.488   2.992   3.881  0.8443 -1.1326  0.5746
  181DOPC   C3522238   1.375   2.948   4.057 -0.0579 -0.0556 -0.4707
  181DOPC   H5X22239   1.451   2.965   4.137 -0.1072 -2.6233  0.2062
  181DOPC   H5Y22240   1.394   2.845   4.020  0.9456 -1.3990  3.3155
  181DOPC   C3622241   1.235   2.960   4.119 -0.3900 -0.2052  0.0496
  181DOPC   H6X22242   1.214   3.067   4.137  0.5342  0.4199 -2.2028
  181DOPC   H6Y22243   1.170   2.919   4.038  0.5277 -0.5438 -0.5391
  181DOPC   C3722244   1.230   2.870   4.241 -0.7820 -0.0067 -0.1076
  181DOPC   H7X22245   1.121   2.852   4.248 -1.0374  1.7251  0.7728
  181DOPC   H7Y22246   1.289   2.777   4.225 -0.7607 -0.5036  2.4301
  181DOPC   C3822247   1.282   2.943   4.372  0.3980 -0.3658 -0.5601
  181DOPC   H8X22248   1.228   3.040   4.373 -1.6118 -1.3875 -2.0702
  181DOPC   H8Y22249   1.392   2.956   4.374  0.3657 -0.1624 -0.0925
  181DOPC   C3922250   1.227   2.871   4.495  0.4450  0.1045  0.5066
  181DOPC   H9X22251   1.179   2.772   4.483  1.9879 -0.9964  2.7120
  181DOPC  C31022252   1.274   2.897   4.621 -0.0702  0.5727  0.6638
  181DOPC  H10X22253   1.247   2.822   4.697 -1.9154 -0.3472 -0.8257
  181DOPC  C31122254   1.361   3.009   4.660 -0.3660 -0.3253 -1.5390
  181DOPC  H11X22255   1.319   3.110   4.636  1.2207  1.5407  2.5632
  181DOPC  H11Y22256   1.460   2.997   4.612  1.5858 -0.5706  2.1748
  181DOPC  C31222257   1.379   3.017   4.820  0.1627  0.3439 -1.2254
  181DOPC  H12X22258   1.273   3.014   4.854  0.5261  0.2237 -0.0601
  181DOPC  H12Y22259   1.434   3.107   4.852 -0.3533 -0.0253  0.8453
  181DOPC  C31322260   1.440   2.891   4.888 -0.1373  0.4275 -0.0854
  181DOPC  H13X22261   1.408   2.802   4.829  0.3333  0.8869 -1.0513
  181DOPC  H13Y22262   1.551   2.897   4.882  0.0280 -1.6596  0.1328
  181DOPC  C31422263   1.402   2.897   5.042  0.3583 -0.2749  0.0729
  181DOPC  H14X22264   1.303   2.947   5.045  0.8234  0.7532 -0.8496
  181DOPC  H14Y22265   1.377   2.797   5.083 -1.9962 -0.4316 -1.5526
  181DOPC  C31522266   1.503   2.969   5.135 -0.3178 -0.0681 -0.2396
  181DOPC  H15X22267   1.537   3.070   5.102  1.8564 -0.8286 -0.5136
  181DOPC  H15Y22268   1.593   2.903   5.136  0.5337  1.0135  2.1604
  181DOPC  C31622269   1.453   2.965   5.282  0.2892 -0.1310 -0.0304
  181DOPC  H16X22270   1.402   2.869   5.303 -1.2942  0.4797 -0.8890
  181DOPC  H16Y22271   1.546   2.974   5.342  1.1712 -0.1982 -1.3429
  181DOPC  C31722272   1.348   3.074   5.312  0.4223  0.0178 -0.2543
  181DOPC  H17X22273   1.386   3.170   5.270 -0.7998  0.8513  0.5130
  181DOPC  H17Y22274   1.255   3.045   5.258  0.0381 -1.1410  0.9690
  181DOPC  C31822275   1.331   3.091   5.461  0.1669 -0.2737 -0.3695
  181DOPC  H18X22276   1.254   3.169   5.480  0.3775 -0.0073 -0.6158
  181DOPC  H18Y22277   1.307   2.988   5.497  2.3716 -0.5019  0.6321
  181DOPC  H18Z22278   1.421   3.130   5.513 -0.7313 -0.7062  1.6363
  182DOPC     N22279   3.099   1.375   3.008  0.2120  0.7315 -0.7540
  182DOPC   C1222280   3.001   1.409   3.123  0.2822 -0.8127 -0.1897
  182DOPC  H12A22281   2.898   1.387   3.100  0.6831 -2.4725 -0.5799
  182DOPC  H12B22282   3.021   1.514   3.134 -1.1000 -0.4864 -0.5873
  182DOPC   C1322283   3.230   1.427   3.023 -0.3600 -0.0891  0.1030
  182DOPC  H13A22284   3.278   1.374   3.104 -2.9213 -1.0926  1.0686
  182DOPC  H13B22285   3.287   1.401   2.935 -0.0417 -2.3137  0.8873
  182DOPC  H13C22286   3.232   1.533   3.039 -4.3561  0.2994 -1.0517
  182DOPC   C1422287   3.042   1.423   2.879 -0.1422 -0.3380  0.5151
  182DOPC  H14A22288   2.945   1.379   2.862  0.1186 -0.2071 -1.5754
  182DOPC  H14B22289   3.022   1.529   2.876 -1.7699 -0.6306 -0.5595
  182DOPC  H14C22290   3.106   1.393   2.797 -0.2050  1.8101 -0.4092
  182DOPC   C1522291   3.099   1.224   2.978 -0.5900 -0.0928  0.2122
  182DOPC  H15A22292   3.002   1.186   2.950 -0.1122  0.0538 -1.7562
  182DOPC  H15B22293   3.136   1.179   3.069  0.6092 -1.0266 -0.6915
  182DOPC  H15C22294   3.163   1.215   2.892 -2.3733  2.1372 -1.4573
  182DOPC   C1122295   3.024   1.337   3.259 -1.0021 -0.0515 -0.3768
  182DOPC  H11A22296   3.133   1.339   3.280 -1.3538 -1.5732  1.9114
  182DOPC  H11B22297   2.968   1.386   3.342  0.5315  2.8045 -0.9148
  182DOPC     P22298   2.833   1.165   3.251  0.0560  0.5426  0.4017
  182DOPC   O1322299   2.804   1.083   3.126 -0.1151 -0.3271  0.2572
  182DOPC   O1422300   2.750   1.280   3.295 -0.1253  0.3803  0.0226
  182DOPC   O1222301   2.982   1.204   3.241 -0.0381 -0.4207 -0.1946
  182DOPC   O1122302   2.834   1.058   3.369 -0.4485 -0.5441 -0.7571
  182DOPC    C122303   2.934   1.061   3.477 -0.5948 -0.6706 -0.3466
  182DOPC    HA22304   2.987   1.157   3.496  0.6823 -1.7111  1.7286
  182DOPC    HB22305   3.019   0.990   3.468  2.0290  2.0479  0.9074
  182DOPC    C222306   2.871   1.035   3.613 -0.7330  1.6354  0.2228
  182DOPC    HS22307   2.819   0.937   3.615  0.5986  0.9244  1.4025
  182DOPC   O2122308   2.787   1.146   3.647 -0.3569  0.2265 -0.4239
  182DOPC   C2122309   2.661   1.134   3.625  0.4576  0.0180 -0.3146
  182DOPC   O2222310   2.609   1.037   3.578 -0.0701  0.6982  0.1241
  182DOPC   C2222311   2.586   1.266   3.636  0.4268 -0.2989 -0.1278
  182DOPC   H2R22312   2.490   1.248   3.581  1.8317 -0.7194 -2.6006
  182DOPC   H2S22313   2.633   1.342   3.570 -0.4138  0.8739  0.5966
  182DOPC    C322314   2.981   1.009   3.724  0.2069 -0.0234 -0.1043
  182DOPC    HX22315   3.040   1.104   3.728 -0.8367  0.7287 -1.4731
  182DOPC    HY22316   3.044   0.924   3.691 -0.5015 -0.7197  0.3291
  182DOPC   O3122317   2.920   0.980   3.855 -0.2532 -0.2886  0.1420
  182DOPC   C3122318   2.970   1.051   3.955  0.7449  0.0342 -0.1315
  182DOPC   O3222319   3.087   1.078   3.972  0.2601  0.1308 -0.4006
  182DOPC   C3222320   2.852   1.109   4.037  0.1720  0.3964 -0.0994
  182DOPC   H2X22321   2.779   1.152   3.965  0.7368 -0.8602 -1.4738
  182DOPC   H2Y22322   2.813   1.016   4.083  1.5742 -1.0092 -1.6370
  182DOPC   C2322323   2.579   1.335   3.775 -0.1506 -0.4480  0.8802
  182DOPC   H3R22324   2.589   1.445   3.767  0.6746 -0.6543 -2.0169
  182DOPC   H3S22325   2.678   1.301   3.814  1.1647  1.9093 -0.1458
  182DOPC   C2422326   2.443   1.292   3.841  0.2286  0.5864  0.4143
  182DOPC   H4R22327   2.424   1.186   3.813  1.9072  1.0112 -2.9316
  182DOPC   H4S22328   2.368   1.356   3.789  0.7824  1.9066  1.1966
  182DOPC   C2522329   2.449   1.307   3.990  0.7709  0.2906 -0.3631
  182DOPC   H5R22330   2.518   1.228   4.027  0.7319  0.8934  1.0378
  182DOPC   H5S22331   2.347   1.280   4.025  1.0611 -2.4946 -1.3881
  182DOPC   C2622332   2.488   1.445   4.044  0.0278 -0.6006  0.0883
  182DOPC   H6R22333   2.593   1.478   4.029 -0.7521  2.3487  0.3979
  182DOPC   H6S22334   2.474   1.451   4.154  0.0970  3.2606  0.0327
  182DOPC   C2722335   2.398   1.555   3.989 -0.1792  0.7735 -0.2422
  182DOPC   H7R22336   2.317   1.506   3.932 -0.0510  0.6405 -0.3095
  182DOPC   H7S22337   2.455   1.613   3.913  2.1104 -0.7939  0.1706
  182DOPC   C2822338   2.336   1.649   4.093  0.6516  0.3162 -0.1912
  182DOPC   H8R22339   2.290   1.577   4.164 -0.8733 -1.0042 -2.3822
  182DOPC   H8S22340   2.259   1.712   4.044 -0.0705  0.4018  1.0106
  182DOPC   C2922341   2.447   1.740   4.140 -0.1139  0.2788 -0.6042
  182DOPC   H9R22342   2.487   1.797   4.055 -0.8386 -2.5644 -3.0015
  182DOPC  C21022343   2.494   1.749   4.266  1.0358 -0.9958 -0.1588
  182DOPC  H10R22344   2.584   1.810   4.286  0.9009 -1.0760  0.7582
  182DOPC  C21122345   2.439   1.674   4.381 -0.4465 -0.4549 -0.3113
  182DOPC  H11R22346   2.478   1.573   4.360  1.0248  0.2825 -1.2698
  182DOPC  H11S22347   2.328   1.670   4.383 -0.4788  0.3457  0.6264
  182DOPC  C21222348   2.497   1.719   4.527  0.1610  0.1284  0.7174
  182DOPC  H12R22349   2.607   1.730   4.519 -0.1320  2.2050 -1.7219
  182DOPC  H12S22350   2.481   1.635   4.598 -1.4386 -1.6837 -1.6147
  182DOPC  C21322351   2.459   1.862   4.568 -0.1149  0.4262  0.6294
  182DOPC  H13R22352   2.352   1.885   4.548  0.3534  2.3766  0.1639
  182DOPC  H13S22353   2.506   1.939   4.502 -3.6797 -0.2473 -3.0926
  182DOPC  C21422354   2.477   1.906   4.707  0.4688  0.6751  0.0851
  182DOPC  H14R22355   2.541   1.997   4.710  1.4036  0.0076  0.9666
  182DOPC  H14S22356   2.530   1.829   4.767 -2.3259 -1.1348  0.4337
  182DOPC  C21522357   2.346   1.944   4.782  0.4480  0.0413  0.5894
  182DOPC  H15R22358   2.276   1.865   4.748  1.3470 -1.5806  2.3616
  182DOPC  H15S22359   2.324   2.041   4.733  0.7402 -0.5788 -0.8155
  182DOPC  C21622360   2.357   1.936   4.929  0.4760  0.2590 -0.8763
  182DOPC  H16R22361   2.395   1.836   4.958 -2.2228 -0.7051 -0.3056
  182DOPC  H16S22362   2.253   1.937   4.970 -0.1111 -1.1848 -2.2179
  182DOPC  C21722363   2.429   2.043   5.001 -0.1987 -0.8202 -0.3128
  182DOPC  H17R22364   2.379   2.141   4.988  0.0549 -0.1360  2.9163
  182DOPC  H17S22365   2.531   2.038   4.957 -0.2846  0.1411 -0.6401
  182DOPC  C21822366   2.451   2.006   5.145 -0.0500  0.2643 -0.0125
  182DOPC  H18R22367   2.345   1.995   5.178 -0.5818 -1.3983 -2.0588
  182DOPC  H18S22368   2.487   2.098   5.196 -0.5228  0.9546 -0.8967
  182DOPC  H18T22369   2.502   1.909   5.165  0.9967  0.4668 -1.5512
  182DOPC   C3322370   2.900   1.205   4.141  0.7168 -0.1068 -0.1680
  182DOPC   H3X22371   2.957   1.282   4.086 -0.5710  0.0499 -1.3668
  182DOPC   H3Y22372   2.971   1.153   4.208  0.6237 -0.8535 -0.6348
  182DOPC   C3422373   2.785   1.259   4.232 -0.4203  0.1452 -0.6470
  182DOPC   H4X22374   2.736   1.338   4.172  0.0621  1.6865  0.9099
  182DOPC   H4Y22375   2.829   1.307   4.322  0.5349  0.1483 -1.1051
  182DOPC   C3522376   2.681   1.163   4.280 -0.2297  0.7711  0.4580
  182DOPC   H5X22377   2.728   1.078   4.333 -2.0594 -1.1453 -0.8323
  182DOPC   H5Y22378   2.630   1.131   4.186  0.6343 -2.1618  0.8984
  182DOPC   C3622379   2.571   1.226   4.359 -0.3882 -1.2108 -0.7754
  182DOPC   H6X22380   2.614   1.275   4.449  1.2896 -2.0599 -1.0570
  182DOPC   H6Y22381   2.533   1.311   4.299  3.4656  0.9139 -0.5497
  182DOPC   C3722382   2.456   1.135   4.406 -0.0527 -0.3427  0.0336
  182DOPC   H7X22383   2.438   1.059   4.327  1.0338  1.7534 -2.4078
  182DOPC   H7Y22384   2.491   1.079   4.496 -1.7604 -2.2649 -0.4229
  182DOPC   C3822385   2.318   1.210   4.448 -0.4171  1.0545 -0.0326
  182DOPC   H8X22386   2.248   1.131   4.482 -0.5319  1.4702  0.7021
  182DOPC   H8Y22387   2.270   1.259   4.360  0.7899  1.2509 -0.6063
  182DOPC   C3922388   2.355   1.312   4.552  0.0431 -0.1737 -0.0312
  182DOPC   H9X22389   2.414   1.398   4.520  0.7134  0.0523  1.6960
  182DOPC  C31022390   2.324   1.297   4.681  0.0464 -0.0531 -0.1399
  182DOPC  H10X22391   2.381   1.365   4.747  0.5288  0.3177 -0.9174
  182DOPC  C31122392   2.259   1.173   4.748 -0.8748  0.2977 -0.5401
  182DOPC  H11X22393   2.190   1.123   4.677 -0.6816  1.0284 -1.2562
  182DOPC  H11Y22394   2.196   1.196   4.837 -1.7527 -3.1789 -0.1104
  182DOPC  C31222395   2.366   1.058   4.773  0.6523  0.1429 -0.5450
  182DOPC  H12X22396   2.444   1.087   4.848 -0.3575  0.7101  0.3162
  182DOPC  H12Y22397   2.418   1.032   4.678 -0.9812 -0.6262 -1.2648
  182DOPC  C31322398   2.302   0.931   4.840  0.7291 -0.0166  0.3432
  182DOPC  H13X22399   2.193   0.947   4.835  0.4656 -1.9443 -1.0621
  182DOPC  H13Y22400   2.337   0.848   4.774 -0.3591  0.9147 -1.4857
  182DOPC  C31422401   2.337   0.927   4.987 -0.2941 -0.0450 -0.1507
  182DOPC  H14X22402   2.446   0.910   4.998 -0.1919  0.6566 -0.0115
  182DOPC  H14Y22403   2.313   1.025   5.034  0.4892  0.0421  0.0677
  182DOPC  C31522404   2.266   0.820   5.063  0.7689 -0.4828 -0.0005
  182DOPC  H15X22405   2.313   0.725   5.031  0.2679 -0.0969 -2.0361
  182DOPC  H15Y22406   2.160   0.801   5.035  0.8753  0.7729 -1.4363
  182DOPC  C31622407   2.275   0.849   5.215  0.4478 -0.1518 -0.4087
  182DOPC  H16X22408   2.379   0.870   5.247 -0.3131  2.3015  0.6507
  182DOPC  H16Y22409   2.214   0.938   5.238 -0.8675 -1.1911  0.2889
  182DOPC  C31722410   2.202   0.744   5.299 -0.4136 -0.0143  0.0060
  182DOPC  H17X22411   2.105   0.711   5.256  0.2349 -0.8295 -0.8657
  182DOPC  H17Y22412   2.257   0.648   5.285  0.8491  0.9471 -2.3428
  182DOPC  C31822413   2.201   0.773   5.447  0.4805  0.3411 -0.0041
  182DOPC  H18X22414   2.306   0.784   5.482  0.6016 -1.3824  0.2906
  182DOPC  H18Y22415   2.147   0.867   5.469  0.5026  0.0499  1.3336
  182DOPC  H18Z22416   2.150   0.695   5.508  0.8260  1.1535  1.3533
  183DOPC     N22417   7.489   5.856   3.031  0.1712  0.3212  0.0583
  183DOPC   C1222418   7.428   5.713   3.024  0.5338 -0.6893 -0.1068
  183DOPC  H12A22419   7.430   5.690   2.919  0.4580  0.5999 -0.3979
  183DOPC  H12B22420   7.326   5.721   3.056  0.8103 -1.2997  0.9979
  183DOPC   C1322421   7.512   5.892   3.178 -0.3591 -0.0653  0.0387
  183DOPC  H13A22422   7.429   5.871   3.245 -1.1772  2.2152 -0.1700
  183DOPC  H13B22423   7.588   5.827   3.218 -0.1742 -0.1894 -0.5010
  183DOPC  H13C22424   7.544   5.995   3.182  0.7388 -0.4051  0.3744
  183DOPC   C1422425   7.384   5.957   2.971  0.1225 -0.2153 -0.0259
  183DOPC  H14A22426   7.428   6.054   2.956  3.1822 -1.4641  0.1570
  183DOPC  H14B22427   7.347   5.922   2.876 -1.3723  2.9407 -0.7247
  183DOPC  H14C22428   7.299   5.966   3.037 -0.6970 -1.2915 -0.8778
  183DOPC   C1522429   7.621   5.872   2.949  0.0640  0.1415 -0.1436
  183DOPC  H15A22430   7.613   5.855   2.843 -0.8181  0.4953 -0.1388
  183DOPC  H15B22431   7.701   5.808   2.984 -0.7126 -2.0035 -2.0966
  183DOPC  H15C22432   7.668   5.969   2.957  1.3541 -0.4508 -0.2860
  183DOPC   C1122433   7.503   5.606   3.112  0.6305 -0.1393  0.3195
  183DOPC  H11A22434   7.478   5.628   3.218 -1.1294 -1.7547  0.2938
  183DOPC  H11B22435   7.450   5.512   3.083 -0.1478  0.3508  0.1046
  183DOPC     P22436   7.720   5.481   3.035 -0.3566 -0.3137 -0.1594
  183DOPC   O1322437   7.862   5.518   3.019 -0.6532 -0.0376 -0.1697
  183DOPC   O1422438   7.649   5.440   2.913 -0.2066  0.1661  0.1217
  183DOPC   O1222439   7.644   5.599   3.096 -0.6041 -0.5515 -0.0467
  183DOPC   O1122440   7.715   5.360   3.137 -0.1812  0.0209 -0.0982
  183DOPC    C122441   7.702   5.386   3.279  0.0306  0.2931  0.4751
  183DOPC    HA22442   7.625   5.464   3.298  0.3299  1.2840 -2.0159
  183DOPC    HB22443   7.802   5.417   3.318  1.5062 -2.3034 -0.9578
  183DOPC    C222444   7.653   5.261   3.357 -0.2240 -0.2634 -0.1443
  183DOPC    HS22445   7.602   5.300   3.447  1.5847  1.7159  0.0879
  183DOPC   O2122446   7.761   5.168   3.383  0.3505  0.8411 -0.1288
  183DOPC   C2122447   7.844   5.205   3.482  0.1149  1.0538 -0.3881
  183DOPC   O2222448   7.832   5.298   3.557  0.4050 -0.9349  0.0109
  183DOPC   C2222449   7.957   5.098   3.492  0.1507 -0.2563  0.3652
  183DOPC   H2R22450   8.024   5.123   3.407  0.8398  1.2933  1.3102
  183DOPC   H2S22451   7.909   4.999   3.475  0.9734 -0.2548 -2.3767
  183DOPC    C322452   7.539   5.181   3.292 -0.3346  0.3539 -0.9118
  183DOPC    HX22453   7.568   5.120   3.205 -0.2166 -0.5670 -0.2348
  183DOPC    HY22454   7.471   5.263   3.259 -1.8619 -1.2016 -1.7619
  183DOPC   O3122455   7.469   5.102   3.392 -0.2466 -0.3966 -0.3900
  183DOPC   C3122456   7.505   4.970   3.398  0.2968 -0.7542  0.5895
  183DOPC   O3222457   7.597   4.921   3.340 -0.0430 -0.3134 -0.5240
  183DOPC   C3222458   7.428   4.915   3.521  0.9448  0.2765 -0.6898
  183DOPC   H2X22459   7.365   4.986   3.578  3.3061  0.6383  1.6345
  183DOPC   H2Y22460   7.355   4.842   3.481  0.4356  1.0495 -1.1934
  183DOPC   C2322461   8.034   5.111   3.630  0.2170  0.1485  0.2941
  183DOPC   H3R22462   8.060   5.218   3.643  0.3848  0.2149 -0.5364
  183DOPC   H3S22463   8.120   5.042   3.626 -0.9836 -1.3603 -0.3484
  183DOPC   C2422464   7.942   5.059   3.737 -0.0430  0.3048  0.1783
  183DOPC   H4R22465   7.899   4.963   3.703  0.7499  0.5142 -1.5109
  183DOPC   H4S22466   7.860   5.134   3.744 -0.0103  0.7939 -3.0414
  183DOPC   C2522467   8.022   5.043   3.865 -0.3294  0.3616 -0.3336
  183DOPC   H5R22468   8.081   5.133   3.891 -1.1918  0.5101  1.2019
  183DOPC   H5S22469   8.090   4.956   3.859 -0.3105  0.3842 -0.4514
  183DOPC   C2622470   7.927   5.019   3.981 -0.1017  0.2718 -0.0802
  183DOPC   H6R22471   7.857   4.936   3.956 -0.8630  1.0483 -0.5655
  183DOPC   H6S22472   7.861   5.106   3.997  0.2776  0.0233  3.6256
  183DOPC   C2722473   8.006   4.996   4.106 -0.0817  0.2735 -0.3699
  183DOPC   H7R22474   8.072   5.085   4.113 -1.4395  1.1875  1.6440
  183DOPC   H7S22475   8.061   4.900   4.096 -1.4241 -0.4254 -1.4047
  183DOPC   C2822476   7.928   4.999   4.242  0.2827 -0.2583 -0.3399
  183DOPC   H8R22477   7.862   5.088   4.234  0.7018 -0.0176 -1.2074
  183DOPC   H8S22478   7.997   5.019   4.326 -2.0947 -1.9054  2.1981
  183DOPC   C2922479   7.858   4.869   4.282 -0.1978 -0.4020  0.0126
  183DOPC   H9R22480   7.848   4.805   4.193  0.5906  0.5944 -0.8263
  183DOPC  C21022481   7.837   4.815   4.406  0.3434 -0.2448 -0.2542
  183DOPC  H10R22482   7.781   4.721   4.423 -1.0264  0.7032  0.7888
  183DOPC  C21122483   7.839   4.891   4.534 -0.4012 -0.2570 -0.1045
  183DOPC  H11R22484   7.905   4.980   4.527  0.4663 -0.9133 -0.4583
  183DOPC  H11S22485   7.880   4.828   4.616 -1.8800 -0.7576  0.2930
  183DOPC  C21222486   7.687   4.922   4.568 -0.0731 -0.3387 -0.0003
  183DOPC  H12R22487   7.623   4.831   4.570 -0.8954  0.2394  1.6374
  183DOPC  H12S22488   7.646   4.984   4.485  0.4030  0.3706  0.2838
  183DOPC  C21322489   7.679   4.996   4.707  0.1687  0.4404 -0.1136
  183DOPC  H13R22490   7.573   5.002   4.738 -1.0253 -0.0793 -3.6473
  183DOPC  H13S22491   7.727   5.096   4.711  0.7555  0.1369  1.1005
  183DOPC  C21422492   7.750   4.925   4.828  0.5325  0.5014  0.5618
  183DOPC  H14R22493   7.858   4.942   4.808  0.6317 -1.4196 -0.7418
  183DOPC  H14S22494   7.725   4.817   4.819  1.1736  0.3390  0.7162
  183DOPC  C21522495   7.712   4.994   4.956  0.2717  0.4432  0.5872
  183DOPC  H15R22496   7.608   4.996   4.994  0.1908  1.7056  0.3348
  183DOPC  H15S22497   7.737   5.100   4.933  1.1189 -0.1599 -1.5582
  183DOPC  C21622498   7.791   4.939   5.079  0.4346  0.1298  0.0923
  183DOPC  H16R22499   7.749   4.990   5.167 -3.4446 -0.2021 -1.3841
  183DOPC  H16S22500   7.899   4.957   5.059 -0.2800  1.4189 -3.3574
  183DOPC  C21722501   7.773   4.787   5.099 -0.0066  0.1744  0.2030
  183DOPC  H17R22502   7.830   4.732   5.021 -0.3294 -1.6126  1.1686
  183DOPC  H17S22503   7.669   4.757   5.074  0.8760 -3.3765  0.3202
  183DOPC  C21822504   7.825   4.740   5.240  0.4772  0.4402 -0.0792
  183DOPC  H18R22505   7.929   4.780   5.246 -0.2367  2.4875 -0.6121
  183DOPC  H18S22506   7.827   4.630   5.254  1.2420  0.6502  1.7276
  183DOPC  H18T22507   7.764   4.774   5.327  1.9184 -0.6409  1.4221
  183DOPC   C3322508   7.526   4.857   3.629  0.4532 -0.3499  0.0968
  183DOPC   H3X22509   7.624   4.909   3.634  1.0362 -1.3493 -0.5847
  183DOPC   H3Y22510   7.541   4.751   3.601 -1.9405 -1.2910  1.9635
  183DOPC   C3422511   7.462   4.860   3.766  0.0658 -0.5758 -1.1369
  183DOPC   H4X22512   7.374   4.792   3.775  0.1784 -0.5099  0.8610
  183DOPC   H4Y22513   7.437   4.966   3.786  0.3710 -0.7436  0.1986
  183DOPC   C3522514   7.562   4.817   3.876 -0.1823 -0.1887  0.0183
  183DOPC   H5X22515   7.650   4.885   3.872 -0.3636  0.0204 -3.5522
  183DOPC   H5Y22516   7.586   4.710   3.856 -2.2886 -0.8253  0.6288
  183DOPC   C3622517   7.495   4.832   4.018 -0.8437  0.4767  0.9259
  183DOPC   H6X22518   7.385   4.816   4.012 -0.4385 -2.3423 -0.4514
  183DOPC   H6Y22519   7.529   4.750   4.085 -1.1436 -0.6885 -0.3109
  183DOPC   C3722520   7.517   4.974   4.076 -0.2050 -0.7156  0.1375
  183DOPC   H7X22521   7.626   4.994   4.067 -0.5574  0.4856 -1.9596
  183DOPC   H7Y22522   7.477   5.053   4.009  0.2813 -0.3999  0.2149
  183DOPC   C3822523   7.469   4.983   4.225 -0.4610 -0.2885 -0.0735
  183DOPC   H8X22524   7.529   4.901   4.271  2.7578  1.3813 -1.0265
  183DOPC   H8Y22525   7.363   4.950   4.214 -0.7775  0.0012  1.8370
  183DOPC   C3922526   7.493   5.120   4.288  0.4661  0.1481  0.0785
  183DOPC   H9X22527   7.594   5.131   4.331 -0.0567  3.8817  0.7142
  183DOPC  C31022528   7.395   5.217   4.287  0.3170  0.2014  0.3712
  183DOPC  H10X22529   7.420   5.311   4.339 -0.7088  0.2178  0.8627
  183DOPC  C31122530   7.247   5.214   4.249 -0.0417 -0.0215 -0.7486
  183DOPC  H11X22531   7.225   5.139   4.170 -0.3078 -0.6920 -0.0547
  183DOPC  H11Y22532   7.214   5.316   4.222 -0.1190  0.4429  0.9938
  183DOPC  C31222533   7.150   5.163   4.363 -0.9273  0.0797 -0.3692
  183DOPC  H12X22534   7.182   5.230   4.446 -1.7801 -0.6844  0.6090
  183DOPC  H12Y22535   7.170   5.056   4.382  0.6841 -0.1762 -3.0298
  183DOPC  C31322536   6.997   5.175   4.339  0.1374 -0.3743  0.5885
  183DOPC  H13X22537   6.962   5.280   4.351 -0.1157 -0.4494  0.4963
  183DOPC  H13Y22538   6.982   5.138   4.236 -2.4502  0.6780  0.5083
  183DOPC  C31422539   6.906   5.094   4.427  0.2621 -0.8261  0.0246
  183DOPC  H14X22540   6.926   4.984   4.426  2.5067 -0.4813  0.0759
  183DOPC  H14Y22541   6.929   5.136   4.527  3.0697 -1.5920 -0.1994
  183DOPC  C31522542   6.763   5.116   4.377  0.3772 -0.1290 -0.4487
  183DOPC  H15X22543   6.763   5.062   4.280 -0.4860  0.0162 -0.5386
  183DOPC  H15Y22544   6.738   5.222   4.358  0.8048  0.2151  0.7710
  183DOPC  C31622545   6.657   5.055   4.466  0.2790 -0.9276 -0.3422
  183DOPC  H16X22546   6.555   5.061   4.422 -0.4135  2.4060  1.4063
  183DOPC  H16Y22547   6.686   4.948   4.472  1.7283 -0.5056  0.5766
  183DOPC  C31722548   6.645   5.119   4.605  0.5076 -0.2316 -0.0908
  183DOPC  H17X22549   6.742   5.096   4.653  0.8629  0.0244 -0.6752
  183DOPC  H17Y22550   6.625   5.228   4.598 -0.5106 -0.4948 -2.0246
  183DOPC  C31822551   6.532   5.060   4.693 -0.0432 -0.0612  0.4476
  183DOPC  H18X22552   6.509   5.135   4.771 -0.5324  1.1396 -0.8039
  183DOPC  H18Y22553   6.435   5.048   4.640 -0.4638  1.0053  0.9560
  183DOPC  H18Z22554   6.553   4.963   4.742 -2.6657 -0.9976 -0.0968
  184DOPC     N22555   4.386   1.148   2.601  0.4303  0.7013  0.5182
  184DOPC   C1222556   4.429   1.105   2.737 -0.0925  0.2703 -0.3974
  184DOPC  H12A22557   4.513   1.038   2.731  0.5661  0.9622  0.8364
  184DOPC  H12B22558   4.345   1.053   2.782  0.0893  1.6095  1.6527
  184DOPC   C1322559   4.289   1.260   2.618  0.5934  0.4757  0.1197
  184DOPC  H13A22560   4.235   1.289   2.530  0.3050 -0.0109  0.1324
  184DOPC  H13B22561   4.214   1.231   2.690  2.1846 -3.5695  0.4054
  184DOPC  H13C22562   4.328   1.346   2.671  0.8845  0.8571 -0.6984
  184DOPC   C1422563   4.318   1.036   2.526  0.2645 -0.3611 -0.2348
  184DOPC  H14A22564   4.249   0.988   2.593  2.0356  1.3471  3.1128
  184DOPC  H14B22565   4.268   1.062   2.435  3.0444  1.5489 -1.3730
  184DOPC  H14C22566   4.393   0.959   2.513  0.3994 -0.0584 -1.3132
  184DOPC   C1522567   4.500   1.203   2.518 -0.8099  0.0509 -0.3797
  184DOPC  H15A22568   4.548   1.286   2.567  0.2342 -0.1989 -0.9609
  184DOPC  H15B22569   4.473   1.232   2.418 -0.8651 -0.8442 -0.6256
  184DOPC  H15C22570   4.575   1.126   2.514 -1.0819 -0.4604  2.2181
  184DOPC   C1122571   4.487   1.220   2.827 -0.1319 -0.0732  0.4096
  184DOPC  H11A22572   4.542   1.179   2.914 -0.2258  0.7547  0.8687
  184DOPC  H11B22573   4.566   1.274   2.769  0.4889  0.5530  1.8040
  184DOPC     P22574   4.294   1.292   2.993 -0.5510  0.2822 -0.0157
  184DOPC   O1322575   4.206   1.181   2.956 -0.0428 -1.0005  0.3203
  184DOPC   O1422576   4.238   1.428   3.010  0.6308 -0.5364  0.0950
  184DOPC   O1222577   4.394   1.315   2.871 -0.2578  0.0972  0.1411
  184DOPC   O1122578   4.394   1.249   3.107 -0.1462 -0.6814  0.0053
  184DOPC    C122579   4.449   1.333   3.205 -0.3684 -0.8146  0.2005
  184DOPC    HA22580   4.386   1.340   3.296  0.6224 -1.8567  0.9965
  184DOPC    HB22581   4.471   1.437   3.171  1.8245 -1.4938 -0.6651
  184DOPC    C222582   4.602   1.296   3.233  0.5346  0.0302  0.1716
  184DOPC    HS22583   4.652   1.295   3.134  3.2700  2.5381  1.3490
  184DOPC   O2122584   4.599   1.167   3.300 -0.1470 -0.4975 -0.1616
  184DOPC   C2122585   4.705   1.091   3.287 -0.2682  0.1200 -1.2016
  184DOPC   O2222586   4.797   1.105   3.209  0.0736 -0.2050  0.6863
  184DOPC   C2222587   4.689   0.975   3.389 -0.1753  0.3181  0.2139
  184DOPC   H2R22588   4.712   0.881   3.335  0.9655  0.7616 -0.1088
  184DOPC   H2S22589   4.581   0.974   3.414  0.0245  1.8847  1.3018
  184DOPC    C322590   4.677   1.400   3.335 -0.4874  0.3843 -0.3744
  184DOPC    HX22591   4.671   1.497   3.281 -0.5613  0.8808  0.5082
  184DOPC    HY22592   4.783   1.377   3.355 -0.8069  0.0179  0.9615
  184DOPC   O3122593   4.601   1.421   3.456  0.6162 -0.0869 -0.0983
  184DOPC   C3122594   4.653   1.510   3.534 -0.4111  0.4265  0.5650
  184DOPC   O3222595   4.723   1.604   3.502  0.6503 -0.0786  0.0457
  184DOPC   C3222596   4.613   1.471   3.677 -0.7089 -0.4267 -0.4926
  184DOPC   H2X22597   4.508   1.506   3.690 -0.9425 -1.4915  0.6694
  184DOPC   H2Y22598   4.620   1.360   3.688  1.6188 -0.3271 -0.3655
  184DOPC   C2322599   4.768   0.984   3.515  0.0917  0.6519  0.1470
  184DOPC   H3R22600   4.879   0.988   3.519  0.1116 -0.0312  0.4963
  184DOPC   H3S22601   4.740   0.888   3.565  1.1604 -1.1248 -2.4410
  184DOPC   C2422602   4.713   1.101   3.595  0.2179  0.1451 -0.1671
  184DOPC   H4R22603   4.603   1.088   3.607  0.0814 -3.3708 -3.4342
  184DOPC   H4S22604   4.726   1.199   3.545 -1.0066  0.1480 -0.5205
  184DOPC   C2522605   4.775   1.103   3.731 -0.2542  0.1791  0.7317
  184DOPC   H5R22606   4.746   1.015   3.792 -2.5188  0.1215 -0.3449
  184DOPC   H5S22607   4.732   1.190   3.786 -1.3738 -0.2715  0.5946
  184DOPC   C2622608   4.930   1.105   3.738  0.0404  0.4902 -0.5134
  184DOPC   H6R22609   4.965   1.181   3.665 -0.2700  0.7339 -0.4092
  184DOPC   H6S22610   4.954   0.998   3.723  0.1453  0.3879  0.3377
  184DOPC   C2722611   4.984   1.145   3.871 -0.4951 -0.5316  0.0008
  184DOPC   H7R22612   4.939   1.083   3.952 -1.3001  3.3322  2.8428
  184DOPC   H7S22613   4.949   1.247   3.898  1.3338 -0.5315  2.8891
  184DOPC   C2822614   5.137   1.138   3.878 -0.0495 -0.3703 -0.6963
  184DOPC   H8R22615   5.153   1.029   3.868 -2.4420 -1.3988  3.7950
  184DOPC   H8S22616   5.162   1.178   3.979 -0.1121 -0.8611 -0.4812
  184DOPC   C2922617   5.205   1.213   3.769 -0.6397  0.0114  0.0431
  184DOPC   H9R22618   5.197   1.153   3.677 -2.7576 -1.0260  0.8291
  184DOPC  C21022619   5.275   1.328   3.777 -0.3558 -0.7510 -0.4573
  184DOPC  H10R22620   5.332   1.356   3.687  0.2980 -0.2984  0.0898
  184DOPC  C21122621   5.296   1.420   3.892 -0.1022  0.0147 -0.3493
  184DOPC  H11R22622   5.397   1.419   3.938 -0.8578  2.8265  1.6732
  184DOPC  H11S22623   5.218   1.389   3.966 -1.1835  0.6652 -1.1896
  184DOPC  C21222624   5.278   1.562   3.851  0.3145 -0.5813  0.7258
  184DOPC  H12R22625   5.177   1.560   3.805  1.5774 -2.2721 -2.2915
  184DOPC  H12S22626   5.354   1.592   3.775  1.3090  1.4372  2.4018
  184DOPC  C21322627   5.288   1.655   3.969 -0.1853 -0.0503 -0.4941
  184DOPC  H13R22628   5.386   1.638   4.019  0.0931 -2.9884 -1.8065
  184DOPC  H13S22629   5.200   1.630   4.031  0.4098 -1.0036 -0.0184
  184DOPC  C21422630   5.276   1.804   3.928  0.1827  0.1030  0.5847
  184DOPC  H14R22631   5.351   1.828   3.849 -0.1500 -2.2526 -0.5259
  184DOPC  H14S22632   5.284   1.872   4.015 -3.1758  1.6129 -0.1412
  184DOPC  C21522633   5.137   1.826   3.872  0.1266 -0.6188  0.2537
  184DOPC  H15R22634   5.054   1.787   3.934 -0.2921 -0.0506  0.0631
  184DOPC  H15S22635   5.136   1.783   3.770  0.1206  0.3140 -0.1493
  184DOPC  C21622636   5.111   1.976   3.848 -0.0928  0.1594 -0.4107
  184DOPC  H16R22637   5.206   2.017   3.809 -0.3697  0.0717 -1.1852
  184DOPC  H16S22638   5.092   2.028   3.945  0.5831 -2.4270  1.2037
  184DOPC  C21722639   4.999   1.996   3.742  0.1490 -0.0328 -0.0289
  184DOPC  H17R22640   4.979   2.104   3.721 -1.2444 -0.2764 -0.0119
  184DOPC  H17S22641   4.911   1.954   3.793  0.6319 -0.4908  0.4267
  184DOPC  C21822642   5.002   1.920   3.603  0.4197  0.4575 -0.2922
  184DOPC  H18R22643   4.975   1.812   3.604 -3.0431  1.2130 -0.2875
  184DOPC  H18S22644   5.096   1.940   3.547  1.5716 -2.8696  0.2050
  184DOPC  H18T22645   4.920   1.971   3.548  0.2533  0.3845 -0.1115
  184DOPC   C3322646   4.708   1.541   3.781  0.1975  0.8879  0.3833
  184DOPC   H3X22647   4.692   1.650   3.766 -1.6766  0.6737  0.5568
  184DOPC   H3Y22648   4.814   1.520   3.755  0.3457  3.5730 -1.5900
  184DOPC   C3422649   4.676   1.512   3.930  0.4135  0.0005  0.4110
  184DOPC   H4X22650   4.678   1.401   3.942  0.8751  0.1132  1.5116
  184DOPC   H4Y22651   4.573   1.548   3.952 -0.0583 -1.7344  1.2514
  184DOPC   C3522652   4.770   1.577   4.032 -0.2873  0.5443 -0.6205
  184DOPC   H5X22653   4.875   1.588   3.998  0.9300  0.4558  2.6995
  184DOPC   H5Y22654   4.780   1.511   4.121 -0.2320 -0.2832 -1.2297
  184DOPC   C3622655   4.723   1.715   4.077 -0.3805 -0.5278 -0.9332
  184DOPC   H6X22656   4.705   1.777   3.987 -1.5522  0.2579 -0.1854
  184DOPC   H6Y22657   4.626   1.704   4.130  1.4911 -1.1541  2.6968
  184DOPC   C3722658   4.814   1.787   4.174 -0.6818  0.2702 -0.2188
  184DOPC   H7X22659   4.862   1.719   4.247 -0.9481 -0.0967 -0.3832
  184DOPC   H7Y22660   4.893   1.836   4.113  1.3129 -0.4607  1.6620
  184DOPC   C3822661   4.733   1.890   4.264 -0.7007  0.1563 -0.8019
  184DOPC   H8X22662   4.684   1.958   4.192 -0.8823  0.0973 -0.7366
  184DOPC   H8Y22663   4.794   1.947   4.338 -1.7047 -0.9408  0.9542
  184DOPC   C3922664   4.630   1.823   4.357  0.4856  0.2721  0.6684
  184DOPC   H9X22665   4.537   1.803   4.301 -0.1012 -1.1649  2.1010
  184DOPC  C31022666   4.625   1.807   4.491  0.8412 -0.1328  0.2913
  184DOPC  H10X22667   4.532   1.772   4.538 -0.1323  1.4400 -0.3501
  184DOPC  C31122668   4.732   1.847   4.591 -0.0102  0.3805 -0.6316
  184DOPC  H11X22669   4.688   1.910   4.672  1.4832 -1.1702  1.5078
  184DOPC  H11Y22670   4.811   1.910   4.543 -0.1021  0.3208 -0.8579
  184DOPC  C31222671   4.808   1.725   4.644  0.3206  0.5444 -0.3194
  184DOPC  H12X22672   4.887   1.766   4.710 -0.1786  1.5637 -0.3320
  184DOPC  H12Y22673   4.861   1.670   4.564 -0.5529 -1.5685  0.4963
  184DOPC  C31322674   4.727   1.625   4.731  0.2758 -0.6601 -0.6392
  184DOPC  H13X22675   4.682   1.685   4.813 -1.9917 -0.8232 -1.6766
  184DOPC  H13Y22676   4.645   1.584   4.667  0.0674 -1.8053  0.3412
  184DOPC  C31422677   4.815   1.509   4.780 -0.6316 -0.4599  0.1119
  184DOPC  H14X22678   4.844   1.445   4.694 -0.1628 -2.4049  1.6473
  184DOPC  H14Y22679   4.913   1.546   4.817  0.7910 -2.6656 -1.2216
  184DOPC  C31522680   4.755   1.431   4.898  0.1016 -0.7516  0.2628
  184DOPC  H15X22681   4.658   1.388   4.866  1.0085 -2.6490 -0.0366
  184DOPC  H15Y22682   4.725   1.514   4.967 -2.0448 -2.7773  1.9608
  184DOPC  C31622683   4.842   1.322   4.967  0.5357 -0.0820 -0.0162
  184DOPC  H16X22684   4.889   1.259   4.887  0.8485 -0.4860  0.4776
  184DOPC  H16Y22685   4.921   1.368   5.030 -2.5102  1.5888  2.9180
  184DOPC  C31722686   4.753   1.243   5.058 -0.6970  0.1278 -0.0659
  184DOPC  H17X22687   4.718   1.316   5.134 -0.7664 -0.0692  0.0918
  184DOPC  H17Y22688   4.661   1.214   5.002 -1.8970  2.4106  0.6240
  184DOPC  C31822689   4.826   1.119   5.133 -0.1841  0.3300 -0.1626
  184DOPC  H18X22690   4.903   1.168   5.196 -0.7973  0.5806  0.3887
  184DOPC  H18Y22691   4.754   1.057   5.190 -0.7563 -0.0385 -1.2585
  184DOPC  H18Z22692   4.883   1.050   5.066  1.3840  3.0209 -1.8260
  185DOPC     N22693   6.388   5.864   2.878  0.2081 -0.6517  0.1150
  185DOPC   C1222694   6.532   5.813   2.848 -0.1593 -0.5336 -0.4902
  185DOPC  H12A22695   6.580   5.781   2.939  1.2229  2.3171 -0.1095
  185DOPC  H12B22696   6.592   5.895   2.810 -0.1168 -0.1321  0.4175
  185DOPC   C1322697   6.309   5.884   2.749 -0.5435  0.4050  0.4494
  185DOPC  H13A22698   6.372   5.938   2.680 -1.8529 -0.1588 -1.2720
  185DOPC  H13B22699   6.279   5.792   2.700 -1.3903  0.4331  0.9015
  185DOPC  H13C22700   6.219   5.938   2.772 -0.1955  0.7362  1.0476
  185DOPC   C1422701   6.403   5.998   2.940 -0.1974 -0.1206 -0.1434
  185DOPC  H14A22702   6.437   6.066   2.864  0.8147 -0.4302  0.0093
  185DOPC  H14B22703   6.307   6.035   2.973 -0.5274  0.3962 -1.5993
  185DOPC  H14C22704   6.470   5.985   3.024 -0.1414 -1.5364 -0.3759
  185DOPC   C1522705   6.317   5.779   2.971  0.5654 -0.8206 -0.5503
  185DOPC  H15A22706   6.214   5.803   2.993  1.2925  0.7952  1.3475
  185DOPC  H15B22707   6.361   5.772   3.069 -0.3855  1.1940  0.0731
  185DOPC  H15C22708   6.319   5.675   2.940 -0.3683 -0.3145 -2.4566
  185DOPC   C1122709   6.545   5.691   2.753  0.2835 -0.0015 -0.3603
  185DOPC  H11A22710   6.501   5.714   2.653 -3.0436 -0.2168  0.9289
  185DOPC  H11B22711   6.655   5.672   2.745 -0.0770 -1.9766 -1.3053
  185DOPC     P22712   6.544   5.483   2.907  0.1084 -0.3356 -0.1267
  185DOPC   O1322713   6.689   5.480   2.879 -0.4221 -0.6667  0.2167
  185DOPC   O1422714   6.476   5.354   2.907  0.3487 -0.0596  0.1986
  185DOPC   O1222715   6.476   5.575   2.798 -0.1947  0.1243 -0.4373
  185DOPC   O1122716   6.522   5.562   3.044 -0.2591  0.0146 -0.0705
  185DOPC    C122717   6.621   5.564   3.144 -1.0620 -0.1346  0.5968
  185DOPC    HA22718   6.599   5.636   3.226 -0.3105 -0.8823  1.4761
  185DOPC    HB22719   6.719   5.591   3.099  0.7982 -3.1318  2.5276
  185DOPC    C222720   6.633   5.430   3.218  0.2059  0.2151 -0.0773
  185DOPC    HS22721   6.589   5.354   3.150 -1.4499  1.8116 -0.8727
  185DOPC   O2122722   6.557   5.440   3.341 -0.4466 -0.4778 -0.0069
  185DOPC   C2122723   6.556   5.331   3.412  0.0347 -0.3056 -0.2759
  185DOPC   O2222724   6.609   5.225   3.397  0.2088 -0.2113 -0.7110
  185DOPC   C2222725   6.497   5.366   3.550  0.2744  0.3433 -0.3389
  185DOPC   H2R22726   6.573   5.436   3.591  1.9582 -1.0309 -0.9883
  185DOPC   H2S22727   6.503   5.269   3.603 -1.1733 -0.1790 -1.0510
  185DOPC    C322728   6.790   5.405   3.235  0.4684  0.7860  0.3705
  185DOPC    HX22729   6.819   5.389   3.129 -1.3554  0.0747 -0.0566
  185DOPC    HY22730   6.814   5.304   3.276 -0.7643 -0.2189 -1.2869
  185DOPC   O3122731   6.865   5.508   3.297  0.0530 -0.0343 -0.2410
  185DOPC   C3122732   6.856   5.518   3.427 -0.3113 -0.4807 -0.8662
  185DOPC   O3222733   6.815   5.427   3.502 -0.2009 -0.6950  0.5216
  185DOPC   C3222734   6.929   5.645   3.464 -0.1542 -0.0543 -0.3317
  185DOPC   H2X22735   7.038   5.625   3.471  0.0918  1.7723  2.6683
  185DOPC   H2Y22736   6.918   5.705   3.371 -2.0782 -2.9702 -2.1876
  185DOPC   C2322737   6.355   5.419   3.555  0.1082 -0.1486 -0.1234
  185DOPC   H3R22738   6.298   5.368   3.635  1.1005 -1.5951 -0.2970
  185DOPC   H3S22739   6.298   5.407   3.460 -1.0142  0.1152  0.5027
  185DOPC   C2422740   6.348   5.573   3.590 -0.2891  0.0005  0.0309
  185DOPC   H4R22741   6.403   5.638   3.519 -1.5002  0.0532 -0.8955
  185DOPC   H4S22742   6.389   5.593   3.691 -3.1385  1.1677  1.0654
  185DOPC   C2522743   6.194   5.610   3.599 -0.3507  0.0639  0.2103
  185DOPC   H5R22744   6.135   5.525   3.637 -0.0045 -0.5577 -0.6030
  185DOPC   H5S22745   6.161   5.616   3.493  0.8914  1.1899 -0.1435
  185DOPC   C2622746   6.170   5.737   3.675  0.6102 -0.3055 -0.2007
  185DOPC   H6R22747   6.065   5.771   3.662  0.6679  0.0712  0.3207
  185DOPC   H6S22748   6.230   5.820   3.631  0.1499  0.2689  0.2420
  185DOPC   C2722749   6.180   5.721   3.829 -0.6503 -0.0603  0.3117
  185DOPC   H7R22750   6.288   5.705   3.853 -0.3626  0.7789 -0.3926
  185DOPC   H7S22751   6.134   5.624   3.857  1.3834 -0.4625  2.6669
  185DOPC   C2822752   6.137   5.843   3.908 -0.1671 -0.0630  0.1847
  185DOPC   H8R22753   6.180   5.938   3.869 -0.6060  0.5298  1.1264
  185DOPC   H8S22754   6.170   5.836   4.014  1.6044 -0.0464 -0.3266
  185DOPC   C2922755   5.993   5.854   3.905 -0.0834 -0.0076  0.5333
  185DOPC   H9R22756   5.954   5.915   3.822 -1.0672 -0.6244  0.5327
  185DOPC  C21022757   5.902   5.786   3.971 -0.6259  0.9575  0.1860
  185DOPC  H10R22758   5.793   5.801   3.963 -1.2329 -2.4176  0.2768
  185DOPC  C21122759   5.941   5.682   4.076  1.0002  0.9430  0.0045
  185DOPC  H11R22760   6.051   5.690   4.091  1.3090  2.2926 -2.4681
  185DOPC  H11S22761   5.917   5.582   4.032 -0.2518  0.7240  1.1432
  185DOPC  C21222762   5.840   5.702   4.189  0.2547  0.5022 -0.2590
  185DOPC  H12R22763   5.742   5.665   4.152  0.7136 -0.2617 -0.7394
  185DOPC  H12S22764   5.835   5.810   4.212  4.5234  0.5190  1.3755
  185DOPC  C21322765   5.886   5.628   4.315 -0.1523  0.3586  0.5417
  185DOPC  H13R22766   5.903   5.525   4.276  2.8867  2.1183 -3.5018
  185DOPC  H13S22767   5.796   5.641   4.379 -0.7868 -2.4048  0.3440
  185DOPC  C21422768   6.012   5.680   4.376 -0.1978  0.7817 -0.2050
  185DOPC  H14R22769   6.023   5.790   4.387 -1.1624  0.6911  2.2682
  185DOPC  H14S22770   6.094   5.643   4.312  0.9300 -2.4557  2.8111
  185DOPC  C21522771   6.030   5.625   4.518 -0.2422  0.5105 -0.4685
  185DOPC  H15R22772   5.958   5.668   4.591 -0.4844 -0.6359 -0.0231
  185DOPC  H15S22773   6.128   5.673   4.541  0.2462 -0.2154 -1.0246
  185DOPC  C21622774   6.045   5.470   4.527 -0.2147 -0.3481  0.4052
  185DOPC  H16R22775   5.947   5.423   4.506  1.2848 -3.2098 -0.6017
  185DOPC  H16S22776   6.080   5.440   4.628  0.6954 -1.1212 -0.1249
  185DOPC  C21722777   6.145   5.415   4.421  0.2012 -1.1468 -0.2067
  185DOPC  H17R22778   6.233   5.481   4.406  0.3594 -1.8136 -2.6920
  185DOPC  H17S22779   6.106   5.407   4.318 -1.0429  0.5064  0.1018
  185DOPC  C21822780   6.200   5.279   4.467 -0.2907 -0.3110 -0.0541
  185DOPC  H18R22781   6.260   5.289   4.559 -1.7628  0.9299  0.8223
  185DOPC  H18S22782   6.270   5.236   4.392  1.1297  0.5764  0.7107
  185DOPC  H18T22783   6.113   5.213   4.489 -0.8160  0.5895  0.6003
  185DOPC   C3322784   6.885   5.713   3.592 -0.3224 -0.1242  0.3350
  185DOPC   H3X22785   6.776   5.733   3.603 -0.1865  2.4805 -2.0335
  185DOPC   H3Y22786   6.925   5.816   3.605  2.2075 -0.9681 -0.2672
  185DOPC   C3422787   6.948   5.625   3.710 -0.1088  0.1102 -0.3272
  185DOPC   H4X22788   7.055   5.619   3.682 -0.3324  0.5970 -1.3346
  185DOPC   H4Y22789   6.894   5.528   3.711 -1.7395  0.9057 -2.6798
  185DOPC   C3522790   6.942   5.684   3.847 -0.3417 -0.0038 -0.3180
  185DOPC   H5X22791   6.838   5.702   3.882  0.1177  0.7392  0.6969
  185DOPC   H5Y22792   6.986   5.785   3.849 -2.5807  1.0154  0.3673
  185DOPC   C3622793   7.000   5.592   3.955  0.1593  0.1491 -0.0940
  185DOPC   H6X22794   6.942   5.498   3.963 -0.5767  0.6812  1.0847
  185DOPC   H6Y22795   7.106   5.568   3.931 -0.0216 -1.5320  0.6554
  185DOPC   C3722796   6.998   5.650   4.100 -0.1829  0.4128  0.0573
  185DOPC   H7X22797   7.054   5.746   4.110 -0.3001  0.6487 -1.3841
  185DOPC   H7Y22798   6.892   5.671   4.126 -0.3388  1.0364 -1.0265
  185DOPC   C3822799   7.058   5.540   4.196 -0.2294  0.4991  0.1065
  185DOPC   H8X22800   7.165   5.539   4.169 -0.2599  1.6874 -0.1486
  185DOPC   H8Y22801   7.008   5.442   4.181  0.9202  0.0349 -0.8477
  185DOPC   C3922802   7.050   5.572   4.341 -0.5535  0.5804  0.7361
  185DOPC   H9X22803   7.145   5.619   4.372  0.4583 -0.3449 -0.7920
  185DOPC  C31022804   6.962   5.540   4.439 -0.1757 -0.9086  0.1673
  185DOPC  H10X22805   6.973   5.568   4.545 -1.7216  3.3434 -0.6145
  185DOPC  C31122806   6.833   5.476   4.404  0.3411 -0.0992  0.1537
  185DOPC  H11X22807   6.827   5.389   4.473  0.6083 -0.0275  0.2673
  185DOPC  H11Y22808   6.826   5.436   4.301  0.3445  0.7107 -0.1664
  185DOPC  C31222809   6.706   5.555   4.429 -0.2053  0.3440  0.4428
  185DOPC  H12X22810   6.730   5.663   4.425 -0.8616  0.4776 -0.3400
  185DOPC  H12Y22811   6.660   5.528   4.526  0.1072  0.8612  0.7364
  185DOPC  C31322812   6.598   5.529   4.320  0.7970  0.6305 -0.1504
  185DOPC  H13X22813   6.640   5.552   4.220  1.7004  1.4051  0.3884
  185DOPC  H13Y22814   6.576   5.420   4.328 -0.2083  0.6319 -2.3027
  185DOPC  C31422815   6.480   5.619   4.347  0.0626 -0.4529 -0.1355
  185DOPC  H14X22816   6.406   5.584   4.272  0.1546  0.2884 -0.5796
  185DOPC  H14Y22817   6.447   5.603   4.452  0.5202  1.7902  0.3955
  185DOPC  C31522818   6.500   5.766   4.320 -0.3170  0.2224  0.0871
  185DOPC  H15X22819   6.531   5.784   4.214  0.0654 -1.3589 -0.1048
  185DOPC  H15Y22820   6.577   5.804   4.390 -0.3829 -0.1872  0.3868
  185DOPC  C31622821   6.380   5.845   4.360  0.2692 -0.6371 -0.0932
  185DOPC  H16X22822   6.297   5.814   4.294  0.6189  0.4757 -1.0925
  185DOPC  H16Y22823   6.360   5.824   4.467  2.3323  1.5021  0.8008
  185DOPC  C31722824   6.402   5.998   4.339  0.1592 -0.1457  0.4426
  185DOPC  H17X22825   6.326   6.049   4.403  1.8705  1.3374  1.3913
  185DOPC  H17Y22826   6.500   6.021   4.385 -0.2854 -0.5734  1.6699
  185DOPC  C31822827   6.405   6.047   4.196 -0.0676 -0.4572 -0.0189
  185DOPC  H18X22828   6.436   6.154   4.196 -0.1324 -0.3982  2.1473
  185DOPC  H18Y22829   6.470   5.985   4.130 -1.3045  0.1882 -1.9277
  185DOPC  H18Z22830   6.307   6.034   4.147 -0.3831  1.7058 -0.0526
  186DOPC     N22831   0.837   1.988   3.192  0.7442  0.6907 -0.3996
  186DOPC   C1222832   0.875   2.075   3.302  0.5325 -0.4372 -0.6418
  186DOPC  H12A22833   0.975   2.114   3.297  0.6578 -0.1956  2.3144
  186DOPC  H12B22834   0.879   2.021   3.395  2.7362  1.0230  0.1788
  186DOPC   C1322835   0.936   1.879   3.167  0.9845  0.1901  0.2510
  186DOPC  H13A22836   0.944   1.826   3.261 -0.9102  2.1307  1.6128
  186DOPC  H13B22837   0.916   1.807   3.090  2.0501 -0.0154  0.1511
  186DOPC  H13C22838   1.037   1.914   3.146  0.8396 -0.7331 -2.3834
  186DOPC   C1422839   0.816   2.064   3.062 -0.2429  0.0487 -0.3002
  186DOPC  H14A22840   0.732   2.131   3.061  1.2654  2.0017 -1.6952
  186DOPC  H14B22841   0.905   2.119   3.038 -1.3711  1.3795 -1.5564
  186DOPC  H14C22842   0.804   1.990   2.985 -0.1679 -2.0961  1.6224
  186DOPC   C1522843   0.702   1.923   3.212  0.1578 -0.0534 -0.5427
  186DOPC  H15A22844   0.719   1.842   3.282  0.1990 -0.0367 -0.5335
  186DOPC  H15B22845   0.663   1.882   3.121 -1.5722 -0.4864  0.3532
  186DOPC  H15C22846   0.629   1.993   3.249  0.2537 -1.8180  3.4668
  186DOPC   C1122847   0.786   2.203   3.324 -0.0642  0.3691 -0.0100
  186DOPC  H11A22848   0.682   2.174   3.350 -0.0130  0.5923  0.4624
  186DOPC  H11B22849   0.829   2.258   3.411  1.1265 -1.4831  0.6467
  186DOPC     P22850   0.867   2.420   3.200  0.0579  0.2858 -0.3762
  186DOPC   O1322851   0.828   2.503   3.083 -0.0098  0.1839 -0.4524
  186DOPC   O1422852   1.011   2.381   3.204  0.2242 -0.0393 -0.0589
  186DOPC   O1222853   0.775   2.297   3.212  0.2152  1.1256 -0.5412
  186DOPC   O1122854   0.832   2.510   3.326  0.2342 -0.3313  0.1245
  186DOPC    C122855   0.693   2.538   3.359 -0.0463  0.9162 -0.0153
  186DOPC    HA22856   0.654   2.437   3.388  1.4611  0.1579 -0.5392
  186DOPC    HB22857   0.633   2.574   3.273 -0.5609 -1.1496 -0.5764
  186DOPC    C222858   0.672   2.638   3.474 -0.0687  0.3223 -0.3180
  186DOPC    HS22859   0.714   2.733   3.436 -1.5605  1.3071  0.3869
  186DOPC   O2122860   0.743   2.587   3.584 -0.2386 -0.0449 -0.5236
  186DOPC   C2122861   0.833   2.675   3.645  0.6071 -0.0367 -1.2858
  186DOPC   O2222862   0.855   2.790   3.605  0.1081  0.9204 -0.4784
  186DOPC   C2222863   0.880   2.618   3.780  0.6312 -0.3001  0.6520
  186DOPC   H2R22864   0.941   2.528   3.761  1.2585  0.2326  0.0592
  186DOPC   H2S22865   0.784   2.592   3.829 -0.2459  3.4478  1.2866
  186DOPC    C322866   0.524   2.665   3.503 -0.3393  1.0568 -0.1272
  186DOPC    HX22867   0.468   2.572   3.528  0.4117  0.5334 -0.3743
  186DOPC    HY22868   0.477   2.708   3.412  1.3324  2.7703 -0.2284
  186DOPC   O3122869   0.520   2.759   3.617 -0.1366  0.4609  0.1243
  186DOPC   C3122870   0.402   2.775   3.675  0.0665 -0.3376  0.4736
  186DOPC   O3222871   0.297   2.734   3.631 -0.2320  0.1478  0.3563
  186DOPC   C3222872   0.409   2.860   3.801 -0.7572 -0.3435 -0.7830
  186DOPC   H2X22873   0.432   2.965   3.775 -2.0104 -0.3894 -2.2291
  186DOPC   H2Y22874   0.307   2.863   3.844  0.2453  3.5750  1.8312
  186DOPC   C2322875   0.961   2.715   3.875 -0.0172  0.1609 -0.8716
  186DOPC   H3R22876   0.915   2.816   3.882 -0.1442 -0.0294  1.6979
  186DOPC   H3S22877   1.057   2.741   3.826 -0.1872  2.8263  0.0566
  186DOPC   C2422878   0.965   2.662   4.013 -0.4102 -0.3058 -0.8519
  186DOPC   H4R22879   1.064   2.685   4.058  0.2806 -0.0638 -2.4329
  186DOPC   H4S22880   0.968   2.551   4.009  0.2807 -0.2987 -0.6778
  186DOPC   C2522881   0.849   2.694   4.108 -0.0571  0.4249  0.3183
  186DOPC   H5R22882   0.755   2.651   4.067 -0.1972 -0.2058  1.2624
  186DOPC   H5S22883   0.831   2.803   4.102  0.0532  0.3938 -0.6862
  186DOPC   C2622884   0.870   2.666   4.260  0.4915 -0.2598 -0.2193
  186DOPC   H6R22885   0.959   2.720   4.299  2.9491 -1.9817 -3.0375
  186DOPC   H6S22886   0.896   2.561   4.286 -0.1879  0.2480  2.9029
  186DOPC   C2722887   0.752   2.714   4.340  0.6257 -0.4189 -0.2979
  186DOPC   H7R22888   0.660   2.675   4.291  1.0471 -0.7106 -0.8609
  186DOPC   H7S22889   0.746   2.824   4.334 -0.3433 -0.4566 -0.2656
  186DOPC   C2822890   0.743   2.665   4.490 -0.3508  0.1957  0.5204
  186DOPC   H8R22891   0.765   2.557   4.485  0.7720  0.4614 -0.8110
  186DOPC   H8S22892   0.636   2.675   4.519 -1.3389 -3.4204 -1.3122
  186DOPC   C2922893   0.841   2.720   4.590  0.0903  0.3220 -0.8740
  186DOPC   H9R22894   0.947   2.726   4.562  0.7844 -0.1957  1.4796
  186DOPC  C21022895   0.803   2.748   4.719  0.2868 -0.2437  0.3938
  186DOPC  H10R22896   0.887   2.755   4.791  0.9113  0.7105 -0.4032
  186DOPC  C21122897   0.660   2.730   4.774 -0.0490  0.3007  0.3167
  186DOPC  H11R22898   0.606   2.636   4.749  2.7442 -1.4575  0.4082
  186DOPC  H11S22899   0.601   2.821   4.750  0.4484  0.7657  0.8180
  186DOPC  C21222900   0.684   2.745   4.925 -0.3723  1.4972 -0.2196
  186DOPC  H12R22901   0.751   2.832   4.940 -0.1793  1.7437 -2.3087
  186DOPC  H12S22902   0.725   2.652   4.971 -1.1214  0.5991 -1.2883
  186DOPC  C21322903   0.555   2.783   5.001  0.2653 -0.9007 -0.1837
  186DOPC  H13R22904   0.495   2.689   5.002 -0.9914 -0.1327  1.7749
  186DOPC  H13S22905   0.506   2.864   4.944 -1.2881 -1.7735 -0.1525
  186DOPC  C21422906   0.576   2.838   5.140  0.5246  0.3396 -0.1315
  186DOPC  H14R22907   0.593   2.947   5.146 -2.2041  0.7599  2.0646
  186DOPC  H14S22908   0.668   2.789   5.178  1.6967  1.3477 -1.5755
  186DOPC  C21522909   0.459   2.794   5.231 -0.3123 -0.5171 -0.9872
  186DOPC  H15R22910   0.492   2.817   5.335  1.8173  2.6185 -2.1918
  186DOPC  H15S22911   0.438   2.686   5.216 -1.3271 -0.5294  0.3799
  186DOPC  C21622912   0.339   2.889   5.197  0.0798  0.2871 -0.4801
  186DOPC  H16R22913   0.314   2.890   5.089  0.5113  3.2650 -0.6518
  186DOPC  H16S22914   0.366   2.996   5.209 -0.3867  0.3291  0.3115
  186DOPC  C21722915   0.217   2.848   5.278  0.3767  0.4692  0.1080
  186DOPC  H17R22916   0.239   2.854   5.386 -1.8184  1.1630  0.5735
  186DOPC  H17S22917   0.193   2.742   5.253  0.0861  0.8271 -1.2099
  186DOPC  C21822918   0.086   2.926   5.251  0.1527  0.3161  0.3188
  186DOPC  H18R22919   0.088   3.034   5.274 -2.0562  0.0805  1.8795
  186DOPC  H18S22920   0.001   2.883   5.309 -1.1508  0.8861 -1.1147
  186DOPC  H18T22921   0.072   2.898   5.144 -0.2340 -0.9877  0.6832
  186DOPC   C3322922   0.521   2.805   3.904  0.6291  0.5203 -0.1164
  186DOPC   H3X22923   0.618   2.807   3.850 -0.3687 -0.1647 -2.0484
  186DOPC   H3Y22924   0.505   2.697   3.925  1.7367 -0.3765 -3.2626
  186DOPC   C3422925   0.529   2.882   4.034  0.2922 -0.1426 -0.9142
  186DOPC   H4X22926   0.519   2.988   4.002  1.0842  0.6799  1.3993
  186DOPC   H4Y22927   0.632   2.878   4.074 -0.0137  2.3303  0.3057
  186DOPC   C3522928   0.421   2.849   4.138 -0.3621 -0.2699  0.0309
  186DOPC   H5X22929   0.413   2.937   4.206 -0.9618  0.0566 -0.4567
  186DOPC   H5Y22930   0.472   2.767   4.194  0.6166 -0.0675 -0.5432
  186DOPC   C3622931   0.283   2.807   4.097  0.2284 -1.1011  0.0337
  186DOPC   H6X22932   0.227   2.894   4.056 -0.4141 -0.1232  2.7565
  186DOPC   H6Y22933   0.270   2.732   4.016 -0.0466  0.4860 -1.4443
  186DOPC   C3722934   0.197   2.756   4.213  0.1936  0.4869 -0.8704
  186DOPC   H7X22935   0.176   2.832   4.292 -1.8503 -0.9611  0.0555
  186DOPC   H7Y22936   0.103   2.728   4.161 -0.5834  0.5817  0.4446
  186DOPC   C3822937   0.249   2.630   4.279  0.3182  0.1845 -0.2149
  186DOPC   H8X22938   0.354   2.641   4.312 -0.3408  1.7701  1.6151
  186DOPC   H8Y22939   0.249   2.551   4.202  2.9870  0.4632 -0.5934
  186DOPC   C3922940   0.152   2.602   4.392  0.3660  0.7911  0.6252
  186DOPC   H9X22941   0.068   2.538   4.363  0.7154  1.5135 -2.2369
  186DOPC  C31022942   0.163   2.638   4.520 -0.4621 -0.2305 -0.1162
  186DOPC  H10X22943   0.092   2.597   4.594  0.4151 -2.6365 -0.5341
  186DOPC  C31122944   0.285   2.712   4.580  0.7702 -0.1851  0.0023
  186DOPC  H11X22945   0.257   2.818   4.559 -2.0677 -1.2752 -2.6386
  186DOPC  H11Y22946   0.374   2.673   4.527  2.1009  0.1382  1.9112
  186DOPC  C31222947   0.307   2.701   4.738  0.0617  0.0538 -0.1949
  186DOPC  H12X22948   0.393   2.756   4.782 -1.6083 -0.1854  3.8407
  186DOPC  H12Y22949   0.333   2.595   4.759  1.0278  1.0338  4.8182
  186DOPC  C31322950   0.179   2.734   4.814 -0.1806  0.6534 -0.3946
  186DOPC  H13X22951   0.209   2.799   4.899 -0.3105 -0.8254  0.8222
  186DOPC  H13Y22952   0.109   2.785   4.744 -0.4686 -2.2191 -2.3852
  186DOPC  C31422953   0.103   2.611   4.870  0.2777 -0.0820  0.5943
  186DOPC  H14X22954   0.070   2.556   4.780 -1.2959 -0.6440  1.4647
  186DOPC  H14Y22955   0.169   2.545   4.932  0.4507 -0.4796 -0.0088
  186DOPC  C31522956  -0.022   2.652   4.952 -0.5732  0.2351  0.3226
  186DOPC  H15X22957  -0.078   2.728   4.893 -0.2360  1.0525  1.0227
  186DOPC  H15Y22958  -0.000   2.698   5.051 -2.0849 -2.3089  1.9676
  186DOPC  C31622959  -0.112   2.532   4.981 -0.8540  0.0179 -0.5101
  186DOPC  H16X22960  -0.220   2.544   4.962 -0.9711 -0.6636 -0.3166
  186DOPC  H16Y22961  -0.077   2.449   4.915 -1.1528 -0.0344 -0.6040
  186DOPC  C31722962  -0.108   2.494   5.136  0.1349  0.5998  0.1541
  186DOPC  H17X22963  -0.158   2.396   5.156  1.6348 -0.3895 -0.7317
  186DOPC  H17Y22964  -0.001   2.476   5.160 -0.0705  1.6714  2.0760
  186DOPC  C31822965  -0.173   2.603   5.214  0.1227  0.1198  0.6262
  186DOPC  H18X22966  -0.184   2.564   5.318 -1.5461  0.4363  0.5925
  186DOPC  H18Y22967  -0.115   2.697   5.218 -0.7077  0.8236 -1.9912
  186DOPC  H18Z22968  -0.275   2.624   5.175 -0.3367 -3.1728 -0.2340
  187DOPC     N22969   6.551   2.382   2.866  0.6276 -0.1398 -0.0007
  187DOPC   C1222970   6.404   2.341   2.878  0.0894  0.4049  0.1463
  187DOPC  H12A22971   6.338   2.410   2.828  0.7962  0.8110 -0.2507
  187DOPC  H12B22972   6.385   2.346   2.984  0.8952  1.3902  0.2586
  187DOPC   C1322973   6.638   2.313   2.972 -0.0115  1.0038 -0.1917
  187DOPC  H13A22974   6.607   2.337   3.072 -0.3681  0.6219 -0.2082
  187DOPC  H13B22975   6.632   2.207   2.953 -0.7398  1.0999 -0.5413
  187DOPC  H13C22976   6.745   2.327   2.961  0.3996 -0.8390  0.9798
  187DOPC   C1422977   6.564   2.528   2.896  0.6142  0.2868  0.0178
  187DOPC  H14A22978   6.524   2.553   2.993  2.3406  0.4150  0.7139
  187DOPC  H14B22979   6.663   2.571   2.894  0.9792 -0.5663 -0.8541
  187DOPC  H14C22980   6.508   2.581   2.820  0.8465  0.8339  0.2233
  187DOPC   C1522981   6.615   2.347   2.733 -0.3926 -0.0802  0.6017
  187DOPC  H15A22982   6.721   2.369   2.735 -0.2338 -0.6623 -0.4497
  187DOPC  H15B22983   6.575   2.402   2.649  1.0313  0.8191  0.4781
  187DOPC  H15C22984   6.600   2.242   2.715  1.5089 -0.3393  0.3059
  187DOPC   C1122985   6.355   2.197   2.845 -0.1218  0.5103 -0.2179
  187DOPC  H11A22986   6.250   2.189   2.879  0.3136 -0.4127  1.0013
  187DOPC  H11B22987   6.337   2.187   2.736  1.7819  2.4008 -0.7921
  187DOPC     P22988   6.523   2.000   2.824  0.4866  0.1543  0.1227
  187DOPC   O1322989   6.662   2.032   2.858 -0.1591 -0.3650  0.6190
  187DOPC   O1422990   6.479   2.015   2.684 -0.2660  0.3048 -0.1218
  187DOPC   O1222991   6.424   2.092   2.907 -0.2239  0.6409 -0.3758
  187DOPC   O1122992   6.495   1.851   2.877  0.2177 -0.5361 -0.3923
  187DOPC    C122993   6.403   1.827   2.985 -0.6628  0.6251  0.9573
  187DOPC    HA22994   6.356   1.726   2.976  0.5225  0.2175 -2.3802
  187DOPC    HB22995   6.305   1.879   2.988 -1.2541 -0.3972  4.9342
  187DOPC    C222996   6.473   1.800   3.117 -0.2682 -0.6746  0.4680
  187DOPC    HS22997   6.405   1.746   3.185  0.4461 -0.4795  1.3592
  187DOPC   O2122998   6.524   1.915   3.177  0.3337 -0.1650  0.0306
  187DOPC   C2122999   6.426   1.996   3.219 -0.5030  0.3969 -1.0088
  187DOPC   O2223000   6.307   1.978   3.220  0.1214  0.6474  0.0959
  187DOPC   C2223001   6.492   2.125   3.275  0.1697  0.3613 -0.0093
  187DOPC   H2R23002   6.417   2.206   3.261 -0.1135  0.0952 -0.0415
  187DOPC   H2S23003   6.579   2.147   3.211  0.1125  0.7122  0.0329
  187DOPC    C323004   6.604   1.715   3.099  0.0066  0.6531  0.1506
  187DOPC    HX23005   6.683   1.769   3.043 -2.1946  2.2237 -1.6696
  187DOPC    HY23006   6.585   1.629   3.032  1.5211  0.7491 -0.4213
  187DOPC   O3123007   6.641   1.665   3.225 -0.4466  0.3579  0.1889
  187DOPC   C3123008   6.750   1.706   3.275 -0.3653  0.0093 -0.1826
  187DOPC   O3223009   6.835   1.776   3.223 -0.3982  0.1479  0.0448
  187DOPC   C3223010   6.754   1.648   3.421 -0.1461 -0.4575  0.2192
  187DOPC   H2X23011   6.682   1.719   3.467 -2.7609  0.1459 -4.2573
  187DOPC   H2Y23012   6.704   1.549   3.429  2.1417 -1.8044 -1.0982
  187DOPC   C2323013   6.527   2.120   3.424 -0.4589  0.0981  0.0786
  187DOPC   H3R23014   6.438   2.093   3.485  0.0378  0.2147  0.8552
  187DOPC   H3S23015   6.563   2.219   3.457 -2.4993  0.3386  1.7851
  187DOPC   C2423016   6.641   2.018   3.443  0.0665 -0.9300  0.6591
  187DOPC   H4R23017   6.727   2.039   3.376  0.0094 -3.5461 -0.3522
  187DOPC   H4S23018   6.605   1.922   3.401  2.2052 -0.2820 -3.1623
  187DOPC   C2523019   6.685   1.995   3.586  0.5255 -0.0702  0.0902
  187DOPC   H5R23020   6.727   2.085   3.635 -0.0493  0.1846  0.1224
  187DOPC   H5S23021   6.771   1.924   3.587 -1.4835 -2.6295  1.0779
  187DOPC   C2623022   6.575   1.943   3.677  0.0827 -0.3193 -0.4978
  187DOPC   H6R23023   6.528   1.851   3.635 -0.4104 -0.7915  1.0223
  187DOPC   H6S23024   6.496   2.020   3.680  1.8117  1.5746 -1.0025
  187DOPC   C2723025   6.625   1.911   3.827  0.3154  0.0787 -0.3981
  187DOPC   H7R23026   6.685   1.988   3.881 -1.4305  1.7034 -0.6562
  187DOPC   H7S23027   6.697   1.827   3.824  0.3519 -0.1311  2.9848
  187DOPC   C2823028   6.509   1.867   3.916 -0.5633  0.8844  0.4719
  187DOPC   H8R23029   6.493   1.763   3.882 -0.1513  0.8498  0.3785
  187DOPC   H8S23030   6.420   1.925   3.883  1.1764  1.6325 -3.5259
  187DOPC   C2923031   6.540   1.869   4.059  0.5073  0.5466 -0.5270
  187DOPC   H9R23032   6.602   1.955   4.090  0.1034 -0.1977  2.6782
  187DOPC  C21023033   6.499   1.785   4.155  0.2148 -0.1049  0.2968
  187DOPC  H10R23034   6.540   1.803   4.255  2.4484  0.2708 -0.6388
  187DOPC  C21123035   6.406   1.670   4.129  0.3859 -0.1599 -0.0685
  187DOPC  H11R23036   6.446   1.570   4.157  1.4673  0.4681  0.6950
  187DOPC  H11S23037   6.370   1.668   4.023 -1.7113 -1.3394  0.6037
  187DOPC  C21223038   6.276   1.693   4.198  0.0703  0.0242  0.0553
  187DOPC  H12R23039   6.211   1.610   4.162  0.4149  0.6928 -2.2644
  187DOPC  H12S23040   6.236   1.787   4.154 -0.8128  0.7264  2.2331
  187DOPC  C21323041   6.290   1.692   4.348  0.6743  0.1638  0.2279
  187DOPC  H13R23042   6.356   1.773   4.384  1.1563 -0.7540  1.4893
  187DOPC  H13S23043   6.334   1.592   4.369 -2.5919 -1.3047  0.8482
  187DOPC  C21423044   6.158   1.714   4.429 -0.5579 -0.2825  0.0185
  187DOPC  H14R23045   6.089   1.638   4.388 -0.7373  0.2116 -0.6170
  187DOPC  H14S23046   6.120   1.806   4.381  1.3859 -0.2913 -1.6895
  187DOPC  C21523047   6.172   1.729   4.577  0.1559 -0.4008  0.5179
  187DOPC  H15R23048   6.078   1.781   4.605 -0.9784 -0.9623 -1.9824
  187DOPC  H15S23049   6.259   1.797   4.589  1.7458 -2.1258 -0.4839
  187DOPC  C21623050   6.193   1.593   4.649 -1.1812 -0.4576 -0.2486
  187DOPC  H16R23051   6.294   1.596   4.696 -1.5637  0.5844  0.5217
  187DOPC  H16S23052   6.184   1.518   4.568 -1.3610 -0.3949 -0.2857
  187DOPC  C21723053   6.074   1.562   4.739 -0.2596 -0.6528  0.4793
  187DOPC  H17R23054   5.984   1.572   4.675  0.0875  3.1904  0.3589
  187DOPC  H17S23055   6.042   1.630   4.821 -0.5569 -1.3190  0.9234
  187DOPC  C21823056   6.089   1.424   4.810 -0.3484 -0.6469 -0.2117
  187DOPC  H18R23057   5.988   1.385   4.837  0.5232 -1.5368  1.9340
  187DOPC  H18S23058   6.146   1.440   4.904 -2.1653  1.6975  0.5694
  187DOPC  H18T23059   6.137   1.355   4.737  0.7867 -0.5759  0.4478
  187DOPC   C3323060   6.898   1.628   3.469 -0.0399  0.2950 -0.2033
  187DOPC   H3X23061   6.955   1.722   3.488  0.2627  0.2268 -0.7476
  187DOPC   H3Y23062   6.945   1.556   3.399 -4.1498 -2.0045 -0.9695
  187DOPC   C3423063   6.889   1.550   3.603  0.1330  0.7367  0.3901
  187DOPC   H4X23064   6.988   1.524   3.647  1.1730  2.4234 -0.8664
  187DOPC   H4Y23065   6.833   1.455   3.585 -0.1851  0.4625  2.4765
  187DOPC   C3523066   6.811   1.616   3.720  0.2094 -0.4773 -0.2669
  187DOPC   H5X23067   6.709   1.631   3.679  1.1229  0.7486 -2.2093
  187DOPC   H5Y23068   6.859   1.709   3.757 -0.7506  0.6041 -1.6592
  187DOPC   C3623069   6.814   1.527   3.845 -0.0572  0.2478  0.0372
  187DOPC   H6X23070   6.783   1.424   3.815  0.7808 -0.0807  0.2589
  187DOPC   H6Y23071   6.919   1.510   3.879 -0.3821 -0.7442  0.5873
  187DOPC   C3723072   6.739   1.581   3.972  0.5130  0.3994 -0.1803
  187DOPC   H7X23073   6.776   1.681   4.004  2.7979 -0.5245  0.2021
  187DOPC   H7Y23074   6.634   1.600   3.940  0.1811  0.5004  0.9043
  187DOPC   C3823075   6.728   1.492   4.097 -0.3272 -0.1847 -0.4367
  187DOPC   H8X23076   6.692   1.555   4.180  0.1836  0.8121 -0.9484
  187DOPC   H8Y23077   6.829   1.460   4.130 -0.2395  1.1010  0.5931
  187DOPC   C3923078   6.638   1.377   4.074  0.7507  0.2855 -0.0624
  187DOPC   H9X23079   6.543   1.392   4.020  0.2776 -0.3478  0.5778
  187DOPC  C31023080   6.659   1.249   4.108  0.3495 -0.7324  0.3914
  187DOPC  H10X23081   6.589   1.167   4.087 -1.9067  1.2866 -0.4021
  187DOPC  C31123082   6.783   1.200   4.167 -0.5303  0.0643  0.1961
  187DOPC  H11X23083   6.827   1.271   4.242 -0.3209 -0.2137  0.3371
  187DOPC  H11Y23084   6.858   1.174   4.089  1.6357  1.7850  1.5668
  187DOPC  C31223085   6.768   1.068   4.250 -0.5644  0.0269  0.4569
  187DOPC  H12X23086   6.869   1.023   4.263  0.3175  1.3985 -1.2151
  187DOPC  H12Y23087   6.722   0.995   4.180  0.1184 -0.3521  0.3999
  187DOPC  C31323088   6.693   1.078   4.383 -0.0035 -1.3823 -0.4032
  187DOPC  H13X23089   6.771   1.128   4.444 -1.6009  1.6980 -0.7025
  187DOPC  H13Y23090   6.607   1.146   4.365  1.2013  0.5197  0.6902
  187DOPC  C31423091   6.670   0.938   4.439  0.0686 -0.4126 -0.2766
  187DOPC  H14X23092   6.618   0.883   4.357 -1.2082 -2.4489  1.7701
  187DOPC  H14Y23093   6.770   0.892   4.456 -0.6152 -1.6534  0.5880
  187DOPC  C31523094   6.582   0.932   4.567 -0.3774 -0.6886  0.4539
  187DOPC  H15X23095   6.493   0.996   4.547 -0.4313 -0.0110  2.5925
  187DOPC  H15Y23096   6.625   0.979   4.658 -0.0065  1.0405 -0.5631
  187DOPC  C31623097   6.539   0.797   4.609 -0.3871  0.0205 -0.3808
  187DOPC  H16X23098   6.633   0.744   4.636 -0.6007 -0.4574 -0.5696
  187DOPC  H16Y23099   6.482   0.808   4.704 -0.6224  1.1522 -0.6374
  187DOPC  C31723100   6.446   0.729   4.512 -0.4738 -0.5509 -0.1082
  187DOPC  H17X23101   6.351   0.785   4.523 -1.1425 -2.0401  2.4211
  187DOPC  H17Y23102   6.478   0.738   4.406  1.0351  0.1613  0.3861
  187DOPC  C31823103   6.397   0.591   4.555 -0.3361 -0.9210  0.1052
  187DOPC  H18X23104   6.303   0.567   4.502 -1.5480  0.9737  1.2597
  187DOPC  H18Y23105   6.481   0.523   4.529 -0.0211 -0.5333  0.1066
  187DOPC  H18Z23106   6.385   0.574   4.664  0.2991  0.1898  0.3664
  188DOPC     N23107   2.438   1.030   3.190  0.1649 -0.2109 -0.2479
  188DOPC   C1223108   2.297   0.973   3.199 -0.3392  0.5516  0.5586
  188DOPC  H12A23109   2.287   0.916   3.290 -0.8153  1.2070  0.9259
  188DOPC  H12B23110   2.286   0.910   3.112  1.8289  1.4820 -0.4757
  188DOPC   C1323111   2.478   1.096   3.320 -0.3176  0.3500 -1.1263
  188DOPC  H13A23112   2.515   1.017   3.383 -2.7128 -0.8906 -1.1623
  188DOPC  H13B23113   2.561   1.165   3.311 -0.5871  0.6425 -1.4027
  188DOPC  H13C23114   2.392   1.144   3.364 -0.6447 -1.8165  0.7626
  188DOPC   C1423115   2.448   1.118   3.079  0.0340 -0.0431  0.4216
  188DOPC  H14A23116   2.379   1.200   3.081  0.3916  0.2725  0.0045
  188DOPC  H14B23117   2.549   1.150   3.057  1.0186 -3.2003 -0.2924
  188DOPC  H14C23118   2.430   1.064   2.987 -1.3725  0.6180  0.2990
  188DOPC   C1523119   2.533   0.915   3.164 -0.1604  0.9431  0.6364
  188DOPC  H15A23120   2.528   0.895   3.059  3.0188  3.0570 -0.0818
  188DOPC  H15B23121   2.531   0.830   3.230 -1.9740  1.5847  1.4767
  188DOPC  H15C23122   2.637   0.942   3.179  0.4775 -1.2436  0.5062
  188DOPC   C1123123   2.177   1.066   3.217 -0.0580 -0.4900  0.4186
  188DOPC  H11A23124   2.184   1.128   3.125  1.0270 -5.0825 -2.9712
  188DOPC  H11B23125   2.071   1.034   3.212 -0.3549  0.6132 -0.8153
  188DOPC     P23126   2.148   1.275   3.367  0.1810 -0.0350 -0.2662
  188DOPC   O1323127   2.029   1.309   3.282 -0.5916 -0.4446  0.3239
  188DOPC   O1423128   2.263   1.365   3.350 -0.0149  0.3208 -0.0691
  188DOPC   O1223129   2.189   1.129   3.348 -0.3007  0.1190 -0.1108
  188DOPC   O1123130   2.107   1.270   3.522 -0.1036 -0.9746  0.2763
  188DOPC    C123131   1.991   1.198   3.553 -0.6581 -0.0608  0.0861
  188DOPC    HA23132   1.999   1.155   3.655  1.6089 -1.2163 -0.5057
  188DOPC    HB23133   1.968   1.112   3.486 -1.6490  0.5422 -0.3677
  188DOPC    C223134   1.865   1.283   3.547  0.0246  0.3066 -0.2953
  188DOPC    HS23135   1.857   1.326   3.445 -0.5161 -0.8851 -0.7702
  188DOPC   O2123136   1.868   1.383   3.655 -0.2389 -0.6591  0.2841
  188DOPC   C2123137   1.841   1.508   3.624 -0.8360 -0.3647  0.2175
  188DOPC   O2223138   1.809   1.545   3.511  0.0296  0.1321  0.3058
  188DOPC   C2223139   1.878   1.588   3.750 -0.1335  0.2789  0.2612
  188DOPC   H2R23140   1.988   1.593   3.769 -0.1842 -0.6115  0.8341
  188DOPC   H2S23141   1.823   1.542   3.834 -0.1099  1.8568  1.1906
  188DOPC    C323142   1.736   1.193   3.565 -0.5040 -0.1030 -0.5138
  188DOPC    HX23143   1.728   1.133   3.472  2.8217 -1.6158  0.0115
  188DOPC    HY23144   1.642   1.252   3.568  0.0226  0.7885 -0.8500
  188DOPC   O3123145   1.752   1.109   3.677 -0.1284 -0.0663  0.2316
  188DOPC   C3123146   1.684   1.146   3.789 -0.4712 -0.7725 -0.4176
  188DOPC   O3223147   1.581   1.213   3.787 -0.4964  0.3513 -0.0513
  188DOPC   C3223148   1.747   1.083   3.909 -0.0233  0.3299  0.1522
  188DOPC   H2X23149   1.672   1.088   3.991 -0.1032 -0.0663  0.1076
  188DOPC   H2Y23150   1.760   0.975   3.886  0.9673  0.6201 -0.7628
  188DOPC   C2323151   1.819   1.733   3.747  0.3041  0.1570 -0.5396
  188DOPC   H3R23152   1.713   1.732   3.713 -0.4928 -1.1084  1.7206
  188DOPC   H3S23153   1.870   1.809   3.686 -1.0342  1.9944  0.5354
  188DOPC   C2423154   1.819   1.795   3.887  0.0600 -0.2505  0.1217
  188DOPC   H4R23155   1.919   1.779   3.934 -0.3741 -0.9175  0.8353
  188DOPC   H4S23156   1.741   1.738   3.942  1.1165 -0.7635  1.1437
  188DOPC   C2523157   1.782   1.940   3.892 -0.3524 -0.0183 -0.0941
  188DOPC   H5R23158   1.686   1.951   3.837 -0.2609 -0.5776 -0.3681
  188DOPC   H5S23159   1.862   2.004   3.848 -1.2744  1.4070  0.2469
  188DOPC   C2623160   1.763   1.985   4.038 -0.9604 -0.6166 -0.0269
  188DOPC   H6R23161   1.859   2.030   4.073 -0.6045 -1.4312  0.0597
  188DOPC   H6S23162   1.757   1.891   4.096 -1.1869 -0.4761  0.1786
  188DOPC   C2723163   1.652   2.082   4.064  0.4877 -0.2365  0.3245
  188DOPC   H7R23164   1.561   2.018   4.060  0.1577  0.1779  1.0497
  188DOPC   H7S23165   1.649   2.164   3.989 -2.0247  0.7451  1.3760
  188DOPC   C2823166   1.675   2.162   4.195  0.3303 -0.3197  0.7470
  188DOPC   H8R23167   1.599   2.244   4.201 -1.5987 -1.7218 -2.0459
  188DOPC   H8S23168   1.769   2.220   4.186 -1.1486  2.2079  0.4863
  188DOPC   C2923169   1.675   2.075   4.319 -0.1730  0.4873  0.1073
  188DOPC   H9R23170   1.764   2.011   4.329 -0.0946  0.4306 -0.8777
  188DOPC  C21023171   1.591   2.084   4.424  0.5850 -0.6291 -0.0484
  188DOPC  H10R23172   1.599   2.012   4.507 -0.0503 -1.2560 -0.5310
  188DOPC  C21123173   1.472   2.178   4.427  1.1047  0.2730  0.8684
  188DOPC  H11R23174   1.372   2.131   4.422  1.0295  0.5336 -1.3990
  188DOPC  H11S23175   1.457   2.245   4.339  0.8524  0.2909  0.9234
  188DOPC  C21223176   1.482   2.269   4.553  0.1764  0.6431 -0.2935
  188DOPC  H12R23177   1.579   2.322   4.558  0.7575 -0.5133  3.0080
  188DOPC  H12S23178   1.490   2.206   4.644  3.0416  1.2768 -0.0190
  188DOPC  C21323179   1.359   2.361   4.586 -0.1688 -0.2000  0.2523
  188DOPC  H13R23180   1.264   2.305   4.589 -2.4268  3.2736  0.0959
  188DOPC  H13S23181   1.340   2.434   4.504  0.5484  0.6606  0.8298
  188DOPC  C21423182   1.373   2.438   4.718  1.0425  0.0854  0.5934
  188DOPC  H14R23183   1.458   2.510   4.713 -0.0610  1.4577  0.7914
  188DOPC  H14S23184   1.402   2.363   4.795 -2.0553  0.0250  1.8318
  188DOPC  C21523185   1.239   2.499   4.774  0.8478  0.2821 -0.1382
  188DOPC  H15R23186   1.156   2.427   4.756 -0.4427  1.7930 -0.5073
  188DOPC  H15S23187   1.218   2.587   4.710  1.4816 -0.3978 -1.3168
  188DOPC  C21623188   1.242   2.538   4.919  0.0566 -0.3275  1.1584
  188DOPC  H16R23189   1.341   2.581   4.946  0.3676  0.5080 -1.0839
  188DOPC  H16S23190   1.232   2.448   4.983 -1.9774  0.0272  1.3996
  188DOPC  C21723191   1.148   2.651   4.961  0.1154  0.0617 -0.1799
  188DOPC  H17R23192   1.059   2.657   4.896  0.0623  1.1472 -0.0215
  188DOPC  H17S23193   1.198   2.751   4.963  0.9771 -0.3385  2.0149
  188DOPC  C21823194   1.085   2.616   5.095  0.0269 -0.5162  0.3688
  188DOPC  H18R23195   1.042   2.515   5.083  2.4904 -1.4387 -1.3079
  188DOPC  H18S23196   0.994   2.677   5.112  0.0316 -0.1584 -0.8310
  188DOPC  H18T23197   1.162   2.628   5.175 -0.1400  1.5147  0.2909
  188DOPC   C3323198   1.874   1.155   3.950  0.1948  0.8193  0.5661
  188DOPC   H3X23199   1.939   1.157   3.860  0.1984 -2.2714  0.3632
  188DOPC   H3Y23200   1.932   1.092   4.022 -1.1284  1.3280  2.1399
  188DOPC   C3423201   1.853   1.294   4.011  0.3332  0.6077  0.2293
  188DOPC   H4X23202   1.800   1.266   4.104 -0.2688  1.2254  0.0726
  188DOPC   H4Y23203   1.794   1.359   3.943 -1.1587 -1.1839 -0.2743
  188DOPC   C3523204   1.983   1.358   4.061 -0.5429  0.6447 -0.1518
  188DOPC   H5X23205   2.056   1.362   3.977 -1.5879  1.3189 -1.0417
  188DOPC   H5Y23206   2.024   1.286   4.135  0.4374  2.0483  0.7241
  188DOPC   C3623207   1.977   1.496   4.124  0.9611 -0.5288 -0.6589
  188DOPC   H6X23208   2.082   1.523   4.146  0.8427  1.3492 -2.1959
  188DOPC   H6Y23209   1.948   1.569   4.046 -2.3232 -0.8085  0.1505
  188DOPC   C3723210   1.881   1.497   4.249 -0.1265 -0.2609 -0.4089
  188DOPC   H7X23211   1.784   1.455   4.217 -0.8788  1.6685 -0.7617
  188DOPC   H7Y23212   1.926   1.431   4.327  1.7719  0.6375 -0.6653
  188DOPC   C3823213   1.869   1.636   4.307 -0.0084  0.4609 -0.7317
  188DOPC   H8X23214   1.803   1.638   4.396  0.3396  2.0878 -0.4632
  188DOPC   H8Y23215   1.816   1.699   4.232 -1.0466  0.1630 -0.2649
  188DOPC   C3923216   2.003   1.703   4.345  0.5692  0.2567  0.2898
  188DOPC   H9X23217   2.062   1.733   4.257  2.4530  1.4872  1.8956
  188DOPC  C31023218   2.055   1.718   4.466  0.6885 -0.8966  0.1011
  188DOPC  H10X23219   2.156   1.760   4.475  0.4174 -0.2240  0.0843
  188DOPC  C31123220   1.988   1.679   4.595  0.1112 -0.3207 -0.4451
  188DOPC  H11X23221   1.888   1.636   4.573 -0.3577  1.8348 -3.0397
  188DOPC  H11Y23222   1.971   1.775   4.648  0.5101 -0.1822 -0.5648
  188DOPC  C31223223   2.073   1.597   4.685 -0.4722 -0.7149  0.5340
  188DOPC  H12X23224   2.167   1.651   4.707  0.2577 -1.5784 -0.3608
  188DOPC  H12Y23225   2.108   1.502   4.640  0.5194  0.8753 -2.2946
  188DOPC  C31323226   2.010   1.572   4.824  0.6714  0.9513  0.2337
  188DOPC  H13X23227   1.952   1.658   4.863 -0.3810 -0.1573  1.1941
  188DOPC  H13Y23228   1.935   1.490   4.822  0.8551  0.7748  0.4572
  188DOPC  C31423229   2.114   1.545   4.925 -0.1865  0.7220  0.1477
  188DOPC  H14X23230   2.189   1.477   4.880 -0.8126  0.5928 -0.7183
  188DOPC  H14Y23231   2.166   1.643   4.933  2.1159 -0.4150 -0.1289
  188DOPC  C31523232   2.072   1.494   5.057 -0.2306  0.7449  0.0523
  188DOPC  H15X23233   2.016   1.399   5.043  0.5059 -0.0107  1.8920
  188DOPC  H15Y23234   2.002   1.566   5.102  0.5058  0.5883  1.5067
  188DOPC  C31623235   2.196   1.457   5.155  0.7263  0.0790 -0.2695
  188DOPC  H16X23236   2.152   1.445   5.257 -0.6717  1.0595 -0.7255
  188DOPC  H16Y23237   2.244   1.369   5.109  1.8645  1.3937 -1.6994
  188DOPC  C31723238   2.303   1.570   5.168  0.5715 -0.4437  0.5058
  188DOPC  H17X23239   2.354   1.588   5.071 -1.4022  0.5184 -0.4069
  188DOPC  H17Y23240   2.248   1.663   5.195  0.1507 -0.5725  0.1088
  188DOPC  C31823241   2.414   1.534   5.263  0.0701  0.2554 -0.1999
  188DOPC  H18X23242   2.499   1.606   5.262 -0.6743  1.1870  0.5335
  188DOPC  H18Y23243   2.376   1.512   5.365 -1.1594  0.1011 -0.6701
  188DOPC  H18Z23244   2.443   1.437   5.218  0.7587 -0.9198  2.5609
  189DOPC     N23245   3.122   7.345   3.260 -0.1356  0.2714 -0.0647
  189DOPC   C1223246   3.183   7.359   3.118  0.4040 -0.2011 -0.0665
  189DOPC  H12A23247   3.215   7.462   3.107 -0.6418  0.1397  0.0207
  189DOPC  H12B23248   3.097   7.346   3.054 -1.4052  1.3741  1.8897
  189DOPC   C1323249   3.067   7.203   3.280 -0.2038 -0.0936 -0.0940
  189DOPC  H13A23250   2.985   7.181   3.213 -1.3152  0.0654  1.1730
  189DOPC  H13B23251   3.147   7.131   3.276  0.0043 -0.0116  1.6201
  189DOPC  H13C23252   3.012   7.200   3.373 -1.4284  0.6710 -0.7561
  189DOPC   C1423253   3.008   7.434   3.268 -0.0962  0.5378 -0.3053
  189DOPC  H14A23254   3.032   7.539   3.265  0.3463  0.5035  1.1541
  189DOPC  H14B23255   2.933   7.411   3.194  0.7232  1.3685 -1.4256
  189DOPC  H14C23256   2.955   7.415   3.360  1.0293 -0.3976  0.1766
  189DOPC   C1523257   3.227   7.372   3.359  0.6650  0.3183 -0.2280
  189DOPC  H15A23258   3.247   7.478   3.365  0.6439  0.3878 -1.2401
  189DOPC  H15B23259   3.324   7.334   3.327  0.4770 -0.0651 -0.3510
  189DOPC  H15C23260   3.197   7.341   3.458 -0.0810  0.3146 -0.4498
  189DOPC   C1123261   3.304   7.267   3.071  0.1522  1.0791 -0.2548
  189DOPC  H11A23262   3.276   7.162   3.093 -0.9451  1.8732  2.6132
  189DOPC  H11B23263   3.316   7.287   2.962 -0.1417  0.0582 -0.4850
  189DOPC     P23264   3.494   7.436   3.107  0.1793  0.1836  0.1554
  189DOPC   O1323265   3.389   7.540   3.095 -0.3837 -0.1130  0.4535
  189DOPC   O1423266   3.574   7.404   2.985  0.6230  0.3943 -0.1226
  189DOPC   O1223267   3.424   7.298   3.143  0.5697 -0.6422  0.4204
  189DOPC   O1123268   3.579   7.461   3.231 -0.1788 -0.0824  0.2948
  189DOPC    C123269   3.706   7.400   3.249  0.4438  0.9850  0.5744
  189DOPC    HA23270   3.784   7.479   3.243 -0.2322  1.5392 -1.9460
  189DOPC    HB23271   3.733   7.327   3.170 -1.5613  1.8008 -0.9545
  189DOPC    C223272   3.707   7.317   3.377  0.8878 -0.1979  0.2357
  189DOPC    HS23273   3.621   7.248   3.370 -0.8579  1.9266 -0.0656
  189DOPC   O2123274   3.700   7.417   3.481 -0.0139 -0.0259  0.0403
  189DOPC   C2123275   3.617   7.388   3.579 -0.0299 -0.2138 -0.4127
  189DOPC   O2223276   3.538   7.294   3.581  0.1621 -0.1777 -0.4020
  189DOPC   C2223277   3.631   7.497   3.686  0.2469  0.3626  0.0124
  189DOPC   H2R23278   3.579   7.590   3.654  0.5307  0.1223 -1.1819
  189DOPC   H2S23279   3.739   7.519   3.700  0.4028  1.4064 -2.3655
  189DOPC    C323280   3.840   7.232   3.403 -0.2359  0.8110  0.3107
  189DOPC    HX23281   3.935   7.282   3.375  0.5173 -1.0957 -0.7638
  189DOPC    HY23282   3.846   7.155   3.323 -2.7632  1.5525 -0.6632
  189DOPC   O3123283   3.839   7.169   3.533 -0.1879 -0.2434  0.1268
  189DOPC   C3123284   3.912   7.215   3.631 -0.0628 -0.6160 -0.1553
  189DOPC   O3223285   3.972   7.322   3.631 -0.1460 -0.9563  0.6287
  189DOPC   C3223286   3.900   7.125   3.747 -0.1996 -0.1797 -0.1114
  189DOPC   H2X23287   3.797   7.103   3.782 -0.3845  0.6755 -0.0952
  189DOPC   H2Y23288   3.940   7.027   3.712 -0.1829 -0.5107  0.7913
  189DOPC   C2323289   3.570   7.448   3.817 -0.2714 -0.7142 -0.1047
  189DOPC   H3R23290   3.647   7.385   3.866 -0.4765 -3.0960 -2.6076
  189DOPC   H3S23291   3.476   7.390   3.806  0.1312 -1.3361 -0.3428
  189DOPC   C2423292   3.535   7.566   3.914  0.5365  0.1629 -0.1438
  189DOPC   H4R23293   3.443   7.617   3.878  0.1172 -0.8312 -0.5280
  189DOPC   H4S23294   3.628   7.626   3.904  1.5589 -1.1550  1.0210
  189DOPC   C2523295   3.505   7.523   4.056  0.7348  0.0637 -0.3195
  189DOPC   H5R23296   3.606   7.502   4.097  0.2662 -1.3601  0.1313
  189DOPC   H5S23297   3.431   7.441   4.060 -0.5950  1.2692  0.9382
  189DOPC   C2623298   3.458   7.643   4.139  0.3097 -0.5136 -0.2605
  189DOPC   H6R23299   3.353   7.671   4.117  0.8185  1.5730 -0.1712
  189DOPC   H6S23300   3.508   7.734   4.099 -0.1634  0.4789  1.3320
  189DOPC   C2723301   3.510   7.623   4.283 -0.4605 -0.1524  0.2278
  189DOPC   H7R23302   3.493   7.718   4.339 -3.8869  0.6776 -1.8943
  189DOPC   H7S23303   3.620   7.613   4.279 -0.6937 -3.3362 -1.0467
  189DOPC   C2823304   3.446   7.505   4.357 -0.0081  0.0944 -0.2459
  189DOPC   H8R23305   3.462   7.411   4.300  0.5067 -0.6847  1.1351
  189DOPC   H8S23306   3.335   7.519   4.363  0.2777  2.9345 -0.2762
  189DOPC   C2923307   3.501   7.482   4.497  0.2020 -0.2203 -0.3492
  189DOPC   H9R23308   3.498   7.573   4.560  1.7119  1.4167 -2.4656
  189DOPC  C21023309   3.545   7.365   4.548 -0.3083  0.6656 -0.6482
  189DOPC  H10R23310   3.590   7.362   4.649  1.4341  2.7527 -1.2848
  189DOPC  C21123311   3.540   7.230   4.471 -0.0144 -0.3850 -0.3395
  189DOPC  H11R23312   3.479   7.227   4.378 -1.1053 -1.9800  0.3789
  189DOPC  H11S23313   3.485   7.155   4.533 -0.3444 -1.3451 -1.7322
  189DOPC  C21223314   3.684   7.188   4.429  0.3200  0.8870 -0.0110
  189DOPC  H12R23315   3.733   7.136   4.513 -1.4201 -0.4338  0.2367
  189DOPC  H12S23316   3.749   7.273   4.398  2.4363 -1.0129 -1.1364
  189DOPC  C21323317   3.677   7.091   4.314 -0.2500  0.5154  0.3658
  189DOPC  H13R23318   3.598   7.017   4.341  0.9237 -0.8138  0.3167
  189DOPC  H13S23319   3.772   7.034   4.305 -1.5231 -1.5910 -0.7288
  189DOPC  C21423320   3.642   7.149   4.171 -0.1117  0.5458  0.0463
  189DOPC  H14R23321   3.732   7.168   4.109 -0.8773  3.2634 -0.3839
  189DOPC  H14S23322   3.599   7.251   4.182  1.9059  1.3799  0.6246
  189DOPC  C21523323   3.561   7.047   4.089  0.5103  0.3605  0.4418
  189DOPC  H15R23324   3.470   7.008   4.140  1.7592 -3.1297  0.2426
  189DOPC  H15S23325   3.623   6.956   4.074 -0.6922 -0.2995 -0.7307
  189DOPC  C21623326   3.527   7.099   3.946  0.2389 -0.2991 -0.3816
  189DOPC  H16R23327   3.621   7.119   3.891  1.5894 -2.2336  1.0607
  189DOPC  H16S23328   3.470   7.194   3.954  0.3528 -0.3888  3.3656
  189DOPC  C21723329   3.438   6.999   3.874 -0.2202 -0.3439  0.1669
  189DOPC  H17R23330   3.346   6.966   3.927  0.4439 -0.4950  1.2677
  189DOPC  H17S23331   3.501   6.908   3.865  0.6080  0.1604  0.7314
  189DOPC  C21823332   3.400   7.050   3.727 -0.3624  0.7236  0.2347
  189DOPC  H18R23333   3.499   7.057   3.677 -1.0929  3.0234 -1.0689
  189DOPC  H18S23334   3.359   7.154   3.731 -1.1126  0.4668 -0.5215
  189DOPC  H18T23335   3.333   6.983   3.670 -0.3515  1.8639 -1.1664
  189DOPC   C3323336   4.005   7.171   3.856 -0.4852 -0.8736 -0.5496
  189DOPC   H3X23337   4.111   7.183   3.824 -0.6780  3.9908 -0.0887
  189DOPC   H3Y23338   4.025   7.093   3.933  4.0548  0.7797  0.2892
  189DOPC   C3423339   3.964   7.293   3.946 -0.2807 -0.2793 -0.6108
  189DOPC   H4X23340   3.853   7.302   3.954 -0.3564 -1.9533  0.9882
  189DOPC   H4Y23341   4.005   7.381   3.893 -0.6632 -0.5347 -1.3522
  189DOPC   C3523342   4.006   7.304   4.097 -0.5437  0.0170  0.1873
  189DOPC   H5X23343   4.114   7.281   4.095 -0.4979  0.2344 -0.9412
  189DOPC   H5Y23344   3.964   7.221   4.157  0.9887 -0.4921  0.5976
  189DOPC   C3623345   3.976   7.441   4.164 -0.1223 -0.2180 -0.3739
  189DOPC   H6X23346   4.039   7.525   4.129  1.8792 -0.7101  1.7913
  189DOPC   H6Y23347   3.866   7.459   4.165 -0.0774  0.4439  2.3902
  189DOPC   C3723348   4.018   7.416   4.311 -0.3756  0.5535  0.1338
  189DOPC   H7X23349   3.974   7.322   4.349  0.9252 -0.5100 -0.9250
  189DOPC   H7Y23350   4.126   7.391   4.298 -0.8937 -1.2639 -1.0018
  189DOPC   C3823351   4.015   7.533   4.412 -0.4522 -0.1556 -0.5023
  189DOPC   H8X23352   4.072   7.618   4.369 -0.6657 -0.2842 -1.0539
  189DOPC   H8Y23353   4.075   7.504   4.501 -0.7105  1.3042  0.1883
  189DOPC   C3923354   3.871   7.578   4.451 -0.2229  0.6009 -0.6034
  189DOPC   H9X23355   3.799   7.561   4.370 -0.1534 -3.4824 -0.0392
  189DOPC  C31023356   3.825   7.597   4.574 -0.3938  0.1121  0.1393
  189DOPC  H10X23357   3.723   7.638   4.582 -0.3319  0.1899  0.5957
  189DOPC  C31123358   3.912   7.595   4.700  0.8112  0.9190  0.3267
  189DOPC  H11X23359   3.890   7.690   4.753 -4.0961  0.0348  0.2665
  189DOPC  H11Y23360   4.020   7.585   4.673  0.4890 -0.7171 -0.4623
  189DOPC  C31223361   3.901   7.473   4.788 -0.4357 -0.0610 -0.0922
  189DOPC  H12X23362   3.903   7.387   4.717 -2.1426  0.6578 -1.0674
  189DOPC  H12Y23363   3.805   7.475   4.844  0.6184 -0.6447  1.8297
  189DOPC  C31323364   4.022   7.456   4.894  0.1019 -0.5869 -0.3114
  189DOPC  H13X23365   3.982   7.381   4.966  1.8889 -1.2741  0.0041
  189DOPC  H13Y23366   4.107   7.417   4.835 -1.3107 -0.9878 -2.1963
  189DOPC  C31423367   4.057   7.592   4.967 -0.3360  0.5819 -0.2684
  189DOPC  H14X23368   4.131   7.649   4.906 -0.3176  2.4361  1.4112
  189DOPC  H14Y23369   3.964   7.645   4.995  0.6698  0.1807  4.7424
  189DOPC  C31523370   4.135   7.561   5.100  0.1771  0.2085  0.0371
  189DOPC  H15X23371   4.232   7.509   5.086 -0.3141 -0.2983 -1.8781
  189DOPC  H15Y23372   4.064   7.498   5.158 -0.8115 -2.0368 -3.2951
  189DOPC  C31623373   4.171   7.697   5.168  0.2827  0.0262  0.4094
  189DOPC  H16X23374   4.264   7.737   5.122  0.4126  0.1336  0.7639
  189DOPC  H16Y23375   4.081   7.762   5.168 -2.6969 -3.7453  0.7982
  189DOPC  C31723376   4.218   7.671   5.308 -0.2531 -0.3801 -0.0926
  189DOPC  H17X23377   4.232   7.772   5.352  1.3007 -0.2575 -0.8106
  189DOPC  H17Y23378   4.137   7.626   5.369 -0.8806  0.3064 -0.4022
  189DOPC  C31823379   4.355   7.588   5.322  0.7773  0.4451 -0.1682
  189DOPC  H18X23380   4.438   7.639   5.268 -0.5415 -0.0294 -2.8409
  189DOPC  H18Y23381   4.380   7.579   5.429  0.1324 -3.2181 -0.1942
  189DOPC  H18Z23382   4.345   7.486   5.278  1.3257 -0.0435  0.8297
  190DOPC     N23383   3.263   0.584   2.566 -0.1883 -0.9446  0.2908
  190DOPC   C1223384   3.143   0.563   2.659  0.6392  0.1496  0.3788
  190DOPC  H12A23385   3.072   0.494   2.616  0.5533 -0.1006  0.9130
  190DOPC  H12B23386   3.088   0.656   2.656 -0.0290 -0.2635 -0.8565
  190DOPC   C1323387   3.343   0.707   2.607  0.7412  0.0197 -0.8581
  190DOPC  H13A23388   3.379   0.687   2.707  0.5350 -1.2783 -1.0317
  190DOPC  H13B23389   3.429   0.729   2.545 -0.2650 -0.6909 -2.5875
  190DOPC  H13C23390   3.280   0.793   2.624  1.3218  0.0555  1.4076
  190DOPC   C1423391   3.210   0.599   2.420  0.0299 -0.1595 -0.6261
  190DOPC  H14A23392   3.295   0.585   2.355 -0.1311 -1.0251 -0.6610
  190DOPC  H14B23393   3.143   0.521   2.388 -0.4385 -0.0137 -0.0256
  190DOPC  H14C23394   3.157   0.690   2.394 -0.0786  0.2735  0.9734
  190DOPC   C1523395   3.353   0.463   2.559  0.1806 -0.3525  0.0368
  190DOPC  H15A23396   3.397   0.453   2.658  1.0797 -1.7396 -0.4793
  190DOPC  H15B23397   3.429   0.471   2.483 -1.4925 -1.4845 -1.8326
  190DOPC  H15C23398   3.289   0.379   2.539 -2.6932  1.4127  1.1077
  190DOPC   C1123399   3.157   0.522   2.815 -0.4022 -0.3169 -0.2063
  190DOPC  H11A23400   3.053   0.519   2.853 -0.3324  1.6757  0.2612
  190DOPC  H11B23401   3.195   0.418   2.821 -0.8868 -0.4891 -0.0868
  190DOPC     P23402   3.304   0.576   3.019  0.1346  0.1319  0.4405
  190DOPC   O1323403   3.359   0.691   3.100 -0.5389 -0.5620  0.1614
  190DOPC   O1423404   3.392   0.463   2.985 -0.5145  0.3983  0.3145
  190DOPC   O1223405   3.233   0.618   2.889  0.2927 -0.4187  0.3057
  190DOPC   O1123406   3.178   0.510   3.096  0.1636  0.1939  0.2088
  190DOPC    C123407   3.092   0.581   3.188  0.5631  0.6759 -0.1133
  190DOPC    HA23408   2.998   0.525   3.199 -0.1169  1.7525 -0.2811
  190DOPC    HB23409   3.057   0.678   3.146 -0.1277  0.0558 -1.0183
  190DOPC    C223410   3.157   0.593   3.330  0.2485  0.2737  0.2748
  190DOPC    HS23411   3.247   0.655   3.314 -1.2184  2.8216  1.2539
  190DOPC   O2123412   3.195   0.464   3.382  0.5235  0.1628  0.3921
  190DOPC   C2123413   3.289   0.471   3.479  0.1622 -0.2488  0.3802
  190DOPC   O2223414   3.352   0.572   3.506 -0.4589 -0.3758  0.9017
  190DOPC   C2223415   3.296   0.342   3.536 -0.0676  0.4098  0.2932
  190DOPC   H2R23416   3.309   0.270   3.452  0.2122 -1.0445  1.5316
  190DOPC   H2S23417   3.199   0.319   3.586 -0.2098 -1.3853 -0.7153
  190DOPC    C323418   3.074   0.679   3.425  0.3774 -0.3073  0.2019
  190DOPC    HX23419   3.058   0.780   3.382  1.2250  0.4316  1.5730
  190DOPC    HY23420   3.143   0.695   3.510  0.5739 -2.0826  0.4245
  190DOPC   O3123421   2.953   0.613   3.477  0.2475 -0.0952  0.1959
  190DOPC   C3123422   2.935   0.618   3.610 -0.0601  0.0402 -0.1552
  190DOPC   O3223423   2.998   0.686   3.689  0.7894  0.4446  0.0279
  190DOPC   C3223424   2.834   0.517   3.648  0.2264 -0.4127 -0.0159
  190DOPC   H2X23425   2.761   0.516   3.563  1.7198 -0.8496 -1.3326
  190DOPC   H2Y23426   2.873   0.413   3.649  0.1062 -0.4847 -1.1800
  190DOPC   C2323427   3.406   0.326   3.644  0.3416 -0.5331  0.2050
  190DOPC   H3R23428   3.432   0.417   3.702  0.3988 -0.9113  0.7834
  190DOPC   H3S23429   3.500   0.301   3.590  0.6641  0.3859  0.3232
  190DOPC   C2423430   3.378   0.218   3.750  0.4467  0.4197 -0.4992
  190DOPC   H4R23431   3.477   0.187   3.789  0.3166  1.1632  0.4664
  190DOPC   H4S23432   3.313   0.139   3.705 -1.0193  1.0844  0.3678
  190DOPC   C2523433   3.302   0.266   3.873  0.8583  0.1065 -0.5963
  190DOPC   H5R23434   3.345   0.358   3.918 -0.0750  1.1428 -1.7392
  190DOPC   H5S23435   3.311   0.183   3.947  0.0900 -0.6514 -1.3202
  190DOPC   C2623436   3.156   0.296   3.837  0.7279 -0.2013 -0.0172
  190DOPC   H6R23437   3.123   0.213   3.772 -2.5340  0.9410 -0.0354
  190DOPC   H6S23438   3.157   0.391   3.780 -1.7895  0.2799  0.5763
  190DOPC   C2723439   3.046   0.298   3.958  0.1582  0.6497 -0.2222
  190DOPC   H7R23440   3.043   0.194   3.997 -2.3054  0.9282  0.4824
  190DOPC   H7S23441   2.943   0.297   3.917 -0.8724 -4.1921  1.7740
  190DOPC   C2823442   3.077   0.404   4.070 -0.6836  0.3054 -0.1898
  190DOPC   H8R23443   3.171   0.375   4.122  0.8419  3.2400 -1.1513
  190DOPC   H8S23444   3.013   0.391   4.161  3.0486  0.3220  2.6896
  190DOPC   C2923445   3.090   0.547   4.027 -0.3596  0.3577  0.9165
  190DOPC   H9R23446   3.141   0.558   3.930 -2.0469  1.0730  0.0834
  190DOPC  C21023447   3.052   0.656   4.093  0.1270  0.2438 -0.0662
  190DOPC  H10R23448   3.060   0.757   4.050 -0.6032 -0.1173 -1.0794
  190DOPC  C21123449   2.990   0.659   4.235  0.1337  0.0865 -1.1275
  190DOPC  H11R23450   2.934   0.564   4.244  1.8750 -0.9035 -0.1571
  190DOPC  H11S23451   2.919   0.743   4.249 -0.7706 -0.7846 -0.3198
  190DOPC  C21223452   3.100   0.660   4.347 -0.2081 -0.1234 -0.3829
  190DOPC  H12R23453   3.163   0.750   4.330  2.1096 -1.0265  2.6026
  190DOPC  H12S23454   3.167   0.572   4.340 -1.2457 -1.0104  0.5398
  190DOPC  C21323455   3.053   0.682   4.492  0.1845 -0.2364  0.5056
  190DOPC  H13R23456   2.969   0.755   4.496  0.0245 -0.4535  2.3354
  190DOPC  H13S23457   3.140   0.720   4.550  2.7091 -2.6438 -1.4413
  190DOPC  C21423458   2.993   0.558   4.559  0.0694  0.6357 -0.7522
  190DOPC  H14R23459   3.060   0.469   4.559 -0.1474  0.4165  1.4966
  190DOPC  H14S23460   2.903   0.513   4.510 -2.7333  0.7536  3.7380
  190DOPC  C21523461   2.943   0.586   4.700  0.3279  0.1672 -0.1558
  190DOPC  H15R23462   2.895   0.494   4.740 -0.1739  0.1349 -0.8337
  190DOPC  H15S23463   2.871   0.670   4.710  0.6470  0.5075 -0.6966
  190DOPC  C21623464   3.054   0.635   4.801 -0.2965 -0.4122  0.1107
  190DOPC  H16R23465   3.067   0.741   4.771 -1.0616  0.0244  1.2377
  190DOPC  H16S23466   3.149   0.579   4.786 -0.4979 -1.0050  0.9721
  190DOPC  C21723467   3.014   0.626   4.949  0.1620  0.0620 -0.6765
  190DOPC  H17R23468   2.912   0.662   4.972 -1.1034 -1.8378 -2.9971
  190DOPC  H17S23469   3.084   0.697   5.000  1.1110 -0.9515 -0.5206
  190DOPC  C21823470   3.040   0.483   4.998 -0.7278 -0.0188 -0.2980
  190DOPC  H18R23471   2.982   0.419   4.928 -0.0999 -0.6790 -0.2125
  190DOPC  H18S23472   2.999   0.465   5.100 -1.9721 -1.0570 -0.9504
  190DOPC  H18T23473   3.145   0.458   4.976 -0.4206  2.2982 -1.9098
  190DOPC   C3323474   2.761   0.547   3.785  0.1713 -0.1802 -0.5854
  190DOPC   H3X23475   2.844   0.562   3.858  0.7429  2.3080 -1.6249
  190DOPC   H3Y23476   2.701   0.464   3.826  0.0422  0.7589  1.2357
  190DOPC   C3423477   2.668   0.669   3.786  0.4167 -0.7362  0.4428
  190DOPC   H4X23478   2.568   0.631   3.759  0.8358 -1.5933  0.0692
  190DOPC   H4Y23479   2.699   0.736   3.703  0.2569 -0.6160  0.4799
  190DOPC   C3523480   2.660   0.754   3.916  0.2555 -1.2671  0.2074
  190DOPC   H5X23481   2.594   0.843   3.908  0.4047 -1.0786  0.9418
  190DOPC   H5Y23482   2.764   0.791   3.933  0.0110 -1.8988  3.9983
  190DOPC   C3623483   2.619   0.677   4.035 -0.3499 -0.2457 -1.2813
  190DOPC   H6X23484   2.514   0.645   4.024 -1.1630  1.7518 -0.0083
  190DOPC   H6Y23485   2.679   0.585   4.053 -0.4139  0.0104  0.4310
  190DOPC   C3723486   2.626   0.764   4.164  0.5044 -0.2258  0.1535
  190DOPC   H7X23487   2.726   0.810   4.182  0.1398  1.0347 -0.9025
  190DOPC   H7Y23488   2.553   0.845   4.146 -0.1329 -0.9783 -0.7101
  190DOPC   C3823489   2.571   0.685   4.286 -0.8065 -0.0355 -0.2681
  190DOPC   H8X23490   2.655   0.623   4.322 -2.3604 -1.6295  0.7968
  190DOPC   H8Y23491   2.496   0.610   4.253  1.5284 -2.6710  0.0503
  190DOPC   C3923492   2.501   0.761   4.397  0.0062 -0.3289  0.3649
  190DOPC   H9X23493   2.429   0.838   4.364  1.7960  1.2379 -0.0514
  190DOPC  C31023494   2.505   0.740   4.523  0.8318 -0.0501 -0.8272
  190DOPC  H10X23495   2.457   0.819   4.582  0.8085  1.2811 -2.5460
  190DOPC  C31123496   2.575   0.637   4.603  0.4888 -0.1349  0.3959
  190DOPC  H11X23497   2.683   0.625   4.581 -0.1797 -1.6958 -2.5387
  190DOPC  H11Y23498   2.519   0.543   4.585 -1.0685  0.1252  3.3417
  190DOPC  C31223499   2.563   0.658   4.759 -0.1693  0.5722 -0.1727
  190DOPC  H12X23500   2.459   0.690   4.780 -0.3632  0.0348 -0.2908
  190DOPC  H12Y23501   2.627   0.740   4.797 -1.9257  1.6837  0.5122
  190DOPC  C31323502   2.589   0.523   4.837  0.1765 -0.7786 -0.5074
  190DOPC  H13X23503   2.528   0.449   4.782 -0.5043 -0.3868 -0.2900
  190DOPC  H13Y23504   2.698   0.507   4.820  0.7102  0.3156  1.4882
  190DOPC  C31423505   2.546   0.524   4.985  0.1407  0.0467 -0.2185
  190DOPC  H14X23506   2.436   0.542   4.989  0.2209  0.4035  2.7941
  190DOPC  H14Y23507   2.571   0.422   5.020  1.6091  0.3800 -0.2261
  190DOPC  C31523508   2.611   0.623   5.079  0.9169  0.6864  0.1654
  190DOPC  H15X23509   2.568   0.721   5.051  0.8638  0.6004 -0.0587
  190DOPC  H15Y23510   2.721   0.620   5.060  0.5788 -1.3869 -1.9400
  190DOPC  C31623511   2.588   0.601   5.231  0.1569 -0.0912  0.0153
  190DOPC  H16X23512   2.626   0.691   5.283  1.0430 -0.4400 -0.0198
  190DOPC  H16Y23513   2.477   0.604   5.238  0.0728  0.6979 -1.2828
  190DOPC  C31723514   2.666   0.475   5.283  0.5963  0.7394  0.2723
  190DOPC  H17X23515   2.619   0.395   5.222  0.3107 -0.7644  2.3469
  190DOPC  H17Y23516   2.774   0.475   5.256  1.0226 -1.9931  1.6449
  190DOPC  C31823517   2.649   0.442   5.429  0.1759  0.5909 -0.2174
  190DOPC  H18X23518   2.659   0.533   5.493  2.3942  1.1158 -1.1997
  190DOPC  H18Y23519   2.550   0.396   5.444 -0.6575  1.8287 -1.6061
  190DOPC  H18Z23520   2.738   0.382   5.459 -0.1407  0.4353  0.4152
  191DOPC     N23521   5.337   0.455   2.890  0.2285  0.0230  0.5056
  191DOPC   C1223522   5.482   0.505   2.863  0.5709  0.1258 -0.3838
  191DOPC  H12A23523   5.554   0.424   2.859  0.6720 -0.0525  2.5776
  191DOPC  H12B23524   5.512   0.557   2.953 -0.6389  0.2974 -0.0585
  191DOPC   C1323525   5.348   0.343   2.985  0.0778 -0.2626  0.5622
  191DOPC  H13A23526   5.412   0.364   3.070  1.6199 -0.9921 -0.3762
  191DOPC  H13B23527   5.253   0.306   3.021 -0.0330 -0.7362 -0.2065
  191DOPC  H13C23528   5.401   0.259   2.943 -1.8069 -1.0279 -0.3824
  191DOPC   C1423529   5.272   0.408   2.769  0.5940  0.1620  0.4832
  191DOPC  H14A23530   5.253   0.502   2.719  1.0541  0.3369  0.6305
  191DOPC  H14B23531   5.335   0.337   2.718  0.8367 -0.6106  1.8129
  191DOPC  H14C23532   5.173   0.369   2.786 -0.2684  1.7534 -0.5953
  191DOPC   C1523533   5.247   0.557   2.956 -0.5512  1.0761  0.6404
  191DOPC  H15A23534   5.211   0.631   2.885  0.5740  0.6431 -0.3974
  191DOPC  H15B23535   5.294   0.603   3.041  1.6962 -2.0582  1.2607
  191DOPC  H15C23536   5.164   0.503   3.000  0.9443 -2.8768 -1.0174
  191DOPC   C1123537   5.494   0.603   2.745 -0.7002 -0.5214 -1.6230
  191DOPC  H11A23538   5.599   0.603   2.710 -0.0221 -2.5467  0.2101
  191DOPC  H11B23539   5.442   0.563   2.655  0.0169 -2.0414 -1.3963
  191DOPC     P23540   5.534   0.827   2.861  0.2780 -0.0351 -0.2086
  191DOPC   O1323541   5.471   0.957   2.887 -0.2179  0.5343  0.0373
  191DOPC   O1423542   5.673   0.820   2.804  0.5799 -0.4764 -0.5412
  191DOPC   O1223543   5.436   0.732   2.783  0.0399 -0.4803  0.0412
  191DOPC   O1123544   5.545   0.753   2.995 -0.6583  0.2671 -0.3547
  191DOPC    C123545   5.672   0.769   3.075  0.0493  0.0090  0.5074
  191DOPC    HA23546   5.703   0.876   3.084  0.8044 -0.2116  0.5391
  191DOPC    HB23547   5.750   0.705   3.030 -1.3462  0.6159 -3.1613
  191DOPC    C223548   5.648   0.720   3.221  0.0768 -0.5257 -0.1058
  191DOPC    HS23549   5.646   0.610   3.234 -1.7876 -0.3527  1.5217
  191DOPC   O2123550   5.522   0.777   3.259 -0.3533 -0.1153 -0.0827
  191DOPC   C2123551   5.422   0.693   3.243 -0.6585  0.0007 -0.6386
  191DOPC   O2223552   5.440   0.573   3.226  0.2674  0.3540 -0.0424
  191DOPC   C2223553   5.295   0.771   3.245 -0.2157  0.1134  0.3295
  191DOPC   H2R23554   5.285   0.793   3.137  0.0900  1.2108  0.5207
  191DOPC   H2S23555   5.309   0.862   3.306  0.2590 -0.6827  1.4507
  191DOPC    C323556   5.757   0.783   3.308 -0.4094 -0.4919 -0.3716
  191DOPC    HX23557   5.797   0.877   3.265 -1.2173  0.9419  1.8068
  191DOPC    HY23558   5.846   0.716   3.307  1.0325  1.3623 -0.5330
  191DOPC   O3123559   5.710   0.809   3.441  0.0604 -0.0255 -0.0620
  191DOPC   C3123560   5.700   0.704   3.525 -0.2214  1.0142  0.9018
  191DOPC   O3223561   5.719   0.588   3.495 -0.0827 -0.2099 -0.2587
  191DOPC   C3223562   5.699   0.765   3.666  0.1455  0.2368  0.0655
  191DOPC   H2X23563   5.767   0.708   3.733 -1.0685 -0.6800  0.5621
  191DOPC   H2Y23564   5.739   0.867   3.653  1.4533 -0.5458 -2.7566
  191DOPC   C2323565   5.171   0.683   3.298 -0.9346 -0.3333  0.2830
  191DOPC   H3R23566   5.193   0.574   3.296 -1.4272 -0.4336 -1.8017
  191DOPC   H3S23567   5.080   0.702   3.237 -2.0444  0.7825  2.1579
  191DOPC   C2423568   5.124   0.720   3.441  0.3086 -0.9635 -0.1463
  191DOPC   H4R23569   5.100   0.828   3.452  0.6132 -0.7524 -1.4030
  191DOPC   H4S23570   5.218   0.710   3.499  1.5150  0.2751 -1.7727
  191DOPC   C2523571   5.005   0.651   3.499  0.8033  0.1424 -0.3955
  191DOPC   H5R23572   5.017   0.541   3.495 -1.1027 -0.0680 -1.4463
  191DOPC   H5S23573   4.914   0.668   3.438 -0.6819  3.1923  2.3603
  191DOPC   C2623574   4.982   0.691   3.646 -0.1001 -0.1996  0.7223
  191DOPC   H6R23575   4.984   0.802   3.655  2.4163 -0.2573  1.3984
  191DOPC   H6S23576   5.066   0.650   3.706  1.3284  2.3633  0.6094
  191DOPC   C2723577   4.849   0.651   3.711 -0.2078 -0.0531 -0.2685
  191DOPC   H7R23578   4.851   0.541   3.725 -0.0750 -0.2091 -1.4388
  191DOPC   H7S23579   4.764   0.688   3.649  0.8820 -0.4368 -2.0614
  191DOPC   C2823580   4.825   0.719   3.853  0.3560  0.0575 -1.0863
  191DOPC   H8R23581   4.829   0.828   3.832  1.0700 -0.2301 -2.6172
  191DOPC   H8S23582   4.914   0.696   3.914  0.2432  0.6478 -0.6983
  191DOPC   C2923583   4.699   0.680   3.928  0.8845 -0.7725  0.7777
  191DOPC   H9R23584   4.643   0.606   3.869  1.6313 -1.0879  0.4443
  191DOPC  C21023585   4.629   0.756   4.012  0.3904  0.2121  0.6736
  191DOPC  H10R23586   4.535   0.718   4.056  0.2758  0.7257  0.8788
  191DOPC  C21123587   4.674   0.879   4.085  0.4722 -0.0217  0.0078
  191DOPC  H11R23588   4.615   0.972   4.077  2.5817  1.6206  2.0070
  191DOPC  H11S23589   4.780   0.891   4.055  0.1280  0.4483 -1.0557
  191DOPC  C21223590   4.690   0.859   4.232 -0.1291 -0.4164  0.0966
  191DOPC  H12R23591   4.731   0.951   4.280 -1.2886  0.8674 -1.2789
  191DOPC  H12S23592   4.761   0.778   4.258  1.4053  0.2582 -1.7590
  191DOPC  C21323593   4.554   0.839   4.304  0.5263  0.0692  0.0410
  191DOPC  H13R23594   4.498   0.754   4.260  0.4793  0.3464 -0.4357
  191DOPC  H13S23595   4.487   0.923   4.275 -2.0807 -2.3485 -1.5422
  191DOPC  C21423596   4.573   0.836   4.449 -0.2456  0.1821 -0.1455
  191DOPC  H14R23597   4.475   0.855   4.497 -1.9297 -3.4688 -1.7268
  191DOPC  H14S23598   4.639   0.917   4.487  2.6235 -2.2639  0.4970
  191DOPC  C21523599   4.638   0.706   4.499  0.4870 -0.0322 -0.2879
  191DOPC  H15R23600   4.738   0.691   4.454  0.5049 -1.0809  0.0581
  191DOPC  H15S23601   4.569   0.624   4.470 -0.6070  1.0549 -0.8383
  191DOPC  C21623602   4.659   0.711   4.649  0.1486 -0.3153 -0.6007
  191DOPC  H16R23603   4.625   0.616   4.695 -0.9031  0.5353  0.4411
  191DOPC  H16S23604   4.607   0.799   4.694  0.1261 -0.2024 -0.8408
  191DOPC  C21723605   4.808   0.713   4.684 -0.5236 -0.4928 -0.0552
  191DOPC  H17R23606   4.832   0.815   4.649 -1.1088 -0.2330  0.2722
  191DOPC  H17S23607   4.856   0.635   4.621 -0.8672  0.1688 -1.1555
  191DOPC  C21823608   4.856   0.691   4.827  0.1350 -0.5438  0.3833
  191DOPC  H18R23609   4.962   0.723   4.836 -0.4497  1.0038  2.3204
  191DOPC  H18S23610   4.842   0.587   4.862  3.6673 -0.4195  2.5983
  191DOPC  H18T23611   4.800   0.761   4.892 -0.4098 -0.0165 -0.6245
  191DOPC   C3323612   5.563   0.748   3.731 -0.0554  0.2928  0.0080
  191DOPC   H3X23613   5.552   0.641   3.758  1.1908  0.1022 -0.1870
  191DOPC   H3Y23614   5.485   0.781   3.660  1.3242  0.3034 -1.5535
  191DOPC   C3423615   5.549   0.820   3.866  0.2158  0.8699 -0.5221
  191DOPC   H4X23616   5.555   0.930   3.853 -0.7985  0.7713 -2.0014
  191DOPC   H4Y23617   5.620   0.787   3.946 -2.0765 -1.1745  0.8292
  191DOPC   C3523618   5.411   0.809   3.931  1.0022  0.0185 -0.3288
  191DOPC   H5X23619   5.391   0.700   3.941 -1.2107  0.4389  0.1504
  191DOPC   H5Y23620   5.327   0.842   3.867  0.1785  0.7292  1.0834
  191DOPC   C3623621   5.407   0.878   4.068 -0.3200 -0.2627 -0.8975
  191DOPC   H6X23622   5.311   0.849   4.117  0.3189  0.7926  1.1306
  191DOPC   H6Y23623   5.484   0.832   4.134  0.1399  0.9857 -0.5272
  191DOPC   C3723624   5.430   1.031   4.080  0.3110  1.6807  0.4267
  191DOPC   H7X23625   5.526   1.061   4.033  1.1686 -0.1492  0.9571
  191DOPC   H7Y23626   5.341   1.070   4.025  1.4873  3.4777 -0.3218
  191DOPC   C3823627   5.428   1.076   4.226 -0.7823  0.1979 -0.3472
  191DOPC   H8X23628   5.520   1.039   4.276 -0.8163  2.4362  1.5066
  191DOPC   H8Y23629   5.342   1.033   4.281 -0.1893  0.3394  0.7088
  191DOPC   C3923630   5.413   1.227   4.228  0.2932  0.7382  0.0977
  191DOPC   H9X23631   5.314   1.262   4.194 -0.9178 -0.5862  2.0238
  191DOPC  C31023632   5.490   1.316   4.276 -0.5031 -0.3092  0.3695
  191DOPC  H10X23633   5.458   1.421   4.267  1.8653  0.5272  0.8695
  191DOPC  C31123634   5.626   1.296   4.335  0.3074  0.0890 -0.1130
  191DOPC  H11X23635   5.693   1.370   4.286 -0.8602  2.1969  1.3252
  191DOPC  H11Y23636   5.673   1.198   4.313 -0.9417 -0.7371  0.8421
  191DOPC  C31223637   5.632   1.314   4.489  0.0902  0.4450 -0.0273
  191DOPC  H12X23638   5.576   1.402   4.526 -1.2516  0.5866 -2.2027
  191DOPC  H12Y23639   5.737   1.324   4.524 -0.3800 -0.0117  1.6137
  191DOPC  C31323640   5.578   1.184   4.557 -0.0563  0.1764  0.1860
  191DOPC  H13X23641   5.474   1.164   4.526  0.2307 -3.7491  1.2116
  191DOPC  H13Y23642   5.636   1.094   4.528 -0.3835  0.4172 -1.2758
  191DOPC  C31423643   5.577   1.184   4.711  0.5109 -0.1236 -0.0593
  191DOPC  H14X23644   5.515   1.270   4.743  0.8936  0.3344 -0.5278
  191DOPC  H14Y23645   5.536   1.089   4.752 -1.0354  0.3278 -0.4991
  191DOPC  C31523646   5.712   1.186   4.788  0.4643  0.3802 -0.6585
  191DOPC  H15X23647   5.694   1.200   4.897 -3.1174 -1.2344 -0.8690
  191DOPC  H15Y23648   5.785   1.266   4.763 -0.3617  0.9146 -1.4339
  191DOPC  C31623649   5.790   1.055   4.767 -0.0766  0.5621 -0.3841
  191DOPC  H16X23650   5.728   0.963   4.778 -1.0776  1.0786 -1.5298
  191DOPC  H16Y23651   5.805   1.047   4.657 -1.5423  1.8657 -0.7169
  191DOPC  C31723652   5.930   1.050   4.837 -0.4476 -0.1207  0.3839
  191DOPC  H17X23653   5.998   0.970   4.802  2.5069  2.2175  0.4301
  191DOPC  H17Y23654   5.983   1.132   4.784  1.9733 -2.5918 -1.2634
  191DOPC  C31823655   5.935   1.050   4.989 -0.0351 -0.1557 -0.6903
  191DOPC  H18X23656   6.027   1.090   5.038 -1.8166  2.2741  0.8783
  191DOPC  H18Y23657   5.855   1.112   5.033  1.7359 -0.0031  2.6289
  191DOPC  H18Z23658   5.906   0.950   5.028  0.5473  0.4017  1.2937
  192DOPC     N23659   1.097   4.710   2.506 -0.0854  0.7443 -0.7525
  192DOPC   C1223660   0.974   4.740   2.598  0.7373 -0.1144  0.1418
  192DOPC  H12A23661   0.881   4.726   2.544  0.5655  0.6408  0.2360
  192DOPC  H12B23662   0.986   4.844   2.621 -0.7894  0.5412 -1.7700
  192DOPC   C1323663   1.100   4.569   2.457 -0.1753 -0.5836 -0.0817
  192DOPC  H13A23664   1.011   4.542   2.402 -0.7626 -1.2645  1.1600
  192DOPC  H13B23665   1.191   4.539   2.407 -1.0837 -2.3570 -0.7522
  192DOPC  H13C23666   1.096   4.512   2.548 -2.0663  1.3046  1.1242
  192DOPC   C1423667   1.220   4.744   2.576 -0.1055 -0.0431  0.8012
  192DOPC  H14A23668   1.301   4.702   2.518  0.9430  1.0922  1.3877
  192DOPC  H14B23669   1.240   4.850   2.582 -0.7328  0.0782  0.8013
  192DOPC  H14C23670   1.227   4.702   2.676  2.2674 -1.4171  0.1297
  192DOPC   C1523671   1.085   4.786   2.383 -0.0822  0.1636 -0.3622
  192DOPC  H15A23672   1.171   4.766   2.321  0.7104 -1.8683  1.2948
  192DOPC  H15B23673   1.070   4.892   2.399  0.5649 -0.1004  2.4281
  192DOPC  H15C23674   0.998   4.751   2.330  1.1630 -0.1885 -2.2690
  192DOPC   C1123675   0.959   4.656   2.730 -0.0422  0.7690 -0.0184
  192DOPC  H11A23676   0.855   4.652   2.769 -0.5555 -0.9933 -1.4305
  192DOPC  H11B23677   0.986   4.550   2.714  1.4143  0.9018  1.2510
  192DOPC     P23678   1.045   4.843   2.892 -0.1873  0.0284 -0.1282
  192DOPC   O1323679   0.918   4.908   2.853 -0.3845 -0.1581  0.3905
  192DOPC   O1423680   1.170   4.913   2.862  0.6558  0.2232  0.6471
  192DOPC   O1223681   1.061   4.696   2.822 -0.2471 -0.2199  0.1793
  192DOPC   O1123682   1.037   4.810   3.044  0.2337  0.0373 -0.9014
  192DOPC    C123683   1.087   4.708   3.126  0.7012  0.2844 -0.5375
  192DOPC    HA23684   1.191   4.683   3.094  1.2898  2.1779 -0.2191
  192DOPC    HB23685   1.024   4.617   3.129  2.0322 -0.6791  2.2227
  192DOPC    C223686   1.099   4.768   3.269  0.1115 -0.5231 -0.5502
  192DOPC    HS23687   1.131   4.687   3.337 -2.1909  0.4260  1.8700
  192DOPC   O2123688   0.972   4.811   3.323  0.0672 -0.1353  0.0867
  192DOPC   C2123689   0.884   4.716   3.358  0.3289 -0.3277 -0.5879
  192DOPC   O2223690   0.904   4.597   3.361 -0.3025  0.0305 -0.0379
  192DOPC   C2223691   0.748   4.774   3.391 -0.1451  0.3740 -0.7438
  192DOPC   H2R23692   0.687   4.690   3.431  0.0188  0.9062  0.7049
  192DOPC   H2S23693   0.698   4.810   3.299 -1.0799 -0.8203 -0.7240
  192DOPC    C323694   1.204   4.886   3.280  0.3611 -0.0191 -0.1502
  192DOPC    HX23695   1.145   4.972   3.243 -2.6751 -1.4227  1.0477
  192DOPC    HY23696   1.287   4.863   3.209 -1.0442 -1.1545 -1.4827
  192DOPC   O3123697   1.246   4.903   3.418 -0.1104 -0.3116 -1.0448
  192DOPC   C3123698   1.202   5.014   3.479  0.3138  0.1255 -1.0685
  192DOPC   O3223699   1.139   5.106   3.422 -0.4790 -0.3536  0.4285
  192DOPC   C3223700   1.231   4.990   3.628  0.1497 -0.1393 -0.3380
  192DOPC   H2X23701   1.156   4.924   3.678 -0.2742  1.5316  1.3384
  192DOPC   H2Y23702   1.324   4.928   3.632  1.0398  1.1932  2.3870
  192DOPC   C2323703   0.736   4.878   3.507  0.0396 -0.5401 -0.0516
  192DOPC   H3R23704   0.635   4.924   3.509 -1.4027 -2.9921 -4.2163
  192DOPC   H3S23705   0.793   4.970   3.481 -0.0314 -0.1102  1.2203
  192DOPC   C2423706   0.792   4.832   3.642 -0.1896 -0.1984  0.0118
  192DOPC   H4R23707   0.888   4.782   3.619 -0.5914 -0.0175 -2.2646
  192DOPC   H4S23708   0.723   4.756   3.685 -0.3922 -0.1366 -0.2053
  192DOPC   C2523709   0.811   4.934   3.748 -0.4313 -0.7627 -0.1035
  192DOPC   H5R23710   0.714   4.985   3.761  0.9140  1.1743  5.1898
  192DOPC   H5S23711   0.885   5.008   3.711 -0.0578 -0.6683  0.7936
  192DOPC   C2623712   0.852   4.877   3.879 -0.1477 -0.3717 -0.0467
  192DOPC   H6R23713   0.933   4.801   3.885 -1.4254 -1.6949  1.4858
  192DOPC   H6S23714   0.766   4.823   3.924  0.0790  0.6782  1.7503
  192DOPC   C2723715   0.880   4.988   3.982  0.6490  0.1343 -0.1613
  192DOPC   H7R23716   0.960   5.051   3.937 -0.0230  0.1628 -1.3698
  192DOPC   H7S23717   0.912   4.937   4.075 -3.1856 -1.4545  0.4518
  192DOPC   C2823718   0.756   5.074   4.033  0.1961 -0.2364  0.5983
  192DOPC   H8R23719   0.676   5.010   4.077  0.9943 -0.3644  1.9154
  192DOPC   H8S23720   0.708   5.122   3.945  1.4280  2.4430  1.3204
  192DOPC   C2923721   0.784   5.189   4.126  0.2926  0.6137 -0.8627
  192DOPC   H9R23722   0.833   5.274   4.077 -3.5734  2.1625 -2.4401
  192DOPC  C21023723   0.749   5.196   4.256 -0.4767  0.3757  0.3791
  192DOPC  H10R23724   0.779   5.288   4.307 -0.6534  0.4236  0.3973
  192DOPC  C21123725   0.686   5.083   4.329  0.1146 -0.3919 -0.4010
  192DOPC  H11R23726   0.602   5.037   4.273  2.1765 -2.4219 -2.0729
  192DOPC  H11S23727   0.646   5.138   4.417  0.8100  0.6823 -0.7379
  192DOPC  C21223728   0.785   4.988   4.400  0.5426 -0.5583 -0.2654
  192DOPC  H12R23729   0.855   5.039   4.470  2.3472 -1.3695 -1.4056
  192DOPC  H12S23730   0.845   4.947   4.316 -2.9646 -1.2207 -2.6644
  192DOPC  C21323731   0.705   4.866   4.447 -0.7823 -0.4980 -0.4731
  192DOPC  H13R23732   0.645   4.896   4.536  1.0370 -2.0096  1.3885
  192DOPC  H13S23733   0.781   4.793   4.483  1.2707  0.6032 -2.3532
  192DOPC  C21423734   0.622   4.800   4.346 -0.0079 -0.3539  0.4589
  192DOPC  H14R23735   0.660   4.813   4.243 -0.9644  1.8563  0.3294
  192DOPC  H14S23736   0.520   4.844   4.352  0.5140  0.6713  3.2747
  192DOPC  C21523737   0.606   4.657   4.379  0.5634 -0.2173  0.1724
  192DOPC  H15R23738   0.562   4.635   4.478  1.4937 -1.8553  0.2492
  192DOPC  H15S23739   0.712   4.623   4.382  0.9773  0.6181 -2.2810
  192DOPC  C21623740   0.527   4.571   4.281 -0.2876  0.3470  0.0730
  192DOPC  H16R23741   0.539   4.624   4.185 -2.0732  0.5534 -0.0736
  192DOPC  H16S23742   0.417   4.581   4.291 -0.2482  3.3596 -1.5523
  192DOPC  C21723743   0.569   4.418   4.283  0.4296 -0.3028  0.2599
  192DOPC  H17R23744   0.679   4.413   4.293  0.6141 -0.7420 -1.6720
  192DOPC  H17S23745   0.545   4.379   4.182  1.7536  1.8129 -0.9300
  192DOPC  C21823746   0.491   4.337   4.389 -0.2961  0.1933  0.5497
  192DOPC  H18R23747   0.501   4.231   4.355 -3.3580 -0.1537  0.4415
  192DOPC  H18S23748   0.384   4.364   4.401  0.1263  1.1113  2.6385
  192DOPC  H18T23749   0.534   4.350   4.490  2.6939 -2.2866 -0.2580
  192DOPC   C3323750   1.243   5.119   3.706 -0.2532 -0.3433 -0.3866
  192DOPC   H3X23751   1.144   5.171   3.706  0.6122  1.4238  0.8004
  192DOPC   H3Y23752   1.323   5.183   3.662 -1.3462  0.6889 -0.9281
  192DOPC   C3423753   1.261   5.108   3.860 -0.2956  0.3000 -0.0619
  192DOPC   H4X23754   1.357   5.055   3.879 -0.6636 -0.0666  0.8356
  192DOPC   H4Y23755   1.188   5.032   3.894  0.6473 -0.7200 -0.2315
  192DOPC   C3523756   1.264   5.235   3.946 -0.1309 -0.0373  0.7004
  192DOPC   H5X23757   1.216   5.322   3.896  1.3873  0.4798  0.0768
  192DOPC   H5Y23758   1.368   5.255   3.978  0.0676 -2.4170  1.7341
  192DOPC   C3623759   1.191   5.203   4.081 -0.2381 -0.0581  0.3334
  192DOPC   H6X23760   1.082   5.188   4.072 -0.7740  2.9654  0.7017
  192DOPC   H6Y23761   1.232   5.102   4.105 -0.4984 -0.0268  0.9130
  192DOPC   C3723762   1.214   5.317   4.184  0.2194 -0.0794 -0.5557
  192DOPC   H7X23763   1.323   5.338   4.188  0.4285 -0.9935  3.3268
  192DOPC   H7Y23764   1.161   5.408   4.147  0.4032  0.1441 -0.2744
  192DOPC   C3823765   1.162   5.264   4.325 -0.0387 -0.1824 -0.6933
  192DOPC   H8X23766   1.221   5.171   4.339  0.8190  0.4687  0.1659
  192DOPC   H8Y23767   1.055   5.233   4.327  0.3138 -1.8289  3.7639
  192DOPC   C3923768   1.176   5.363   4.439  0.1900  0.3542 -0.1380
  192DOPC   H9X23769   1.268   5.424   4.439 -0.6504  1.6697 -0.7535
  192DOPC  C31023770   1.095   5.371   4.548 -0.2713  0.5499  0.5201
  192DOPC  H10X23771   1.133   5.450   4.615  0.8900 -0.1215  0.6772
  192DOPC  C31123772   0.965   5.293   4.573  0.4491 -1.1928  0.6131
  192DOPC  H11X23773   0.983   5.205   4.639 -2.1509 -0.1581  2.9165
  192DOPC  H11Y23774   0.910   5.271   4.480  2.0436  0.7028 -0.8687
  192DOPC  C31223775   0.873   5.390   4.646  0.8943  0.5758 -1.2942
  192DOPC  H12X23776   0.773   5.343   4.641  0.7175  0.6135  1.0260
  192DOPC  H12Y23777   0.872   5.490   4.597  1.0631  1.2514  0.0430
  192DOPC  C31323778   0.903   5.420   4.787 -0.6587  0.9229  0.8299
  192DOPC  H13X23779   0.972   5.342   4.824  1.0188  2.6321  1.4610
  192DOPC  H13Y23780   0.964   5.513   4.780  2.0554 -0.8360 -1.3104
  192DOPC  C31423781   0.791   5.450   4.884  0.2804 -0.1353 -0.9260
  192DOPC  H14X23782   0.745   5.353   4.909  0.2300  0.2672  0.6330
  192DOPC  H14Y23783   0.834   5.479   4.982  1.1014 -1.1458 -0.9735
  192DOPC  C31523784   0.694   5.565   4.839 -0.2630  0.0729 -0.1764
  192DOPC  H15X23785   0.649   5.529   4.744  0.8530  0.0108 -0.6910
  192DOPC  H15Y23786   0.740   5.664   4.817 -3.0448  1.1900 -1.4706
  192DOPC  C31623787   0.584   5.598   4.940 -0.0364 -0.2380 -0.5605
  192DOPC  H16X23788   0.538   5.505   4.981 -0.7861  0.2001 -0.3809
  192DOPC  H16Y23789   0.641   5.633   5.029 -0.1920  1.3107 -1.0514
  192DOPC  C31723790   0.477   5.695   4.885 -0.0886 -0.2235  0.7966
  192DOPC  H17X23791   0.415   5.644   4.807  0.9246 -2.8439  1.6050
  192DOPC  H17Y23792   0.418   5.717   4.976 -0.5983 -0.2321  0.4747
  192DOPC  C31823793   0.526   5.832   4.831  0.0774 -0.5915  0.1524
  192DOPC  H18X23794   0.596   5.883   4.901 -0.1615 -0.5690  0.3754
  192DOPC  H18Y23795   0.587   5.811   4.741 -0.6596 -1.0919 -0.2322
  192DOPC  H18Z23796   0.435   5.893   4.814  0.2223 -0.6271 -0.7807
  193DOPC     N23797   7.437   1.715   2.676  0.2770  0.2881 -0.3156
  193DOPC   C1223798   7.395   1.827   2.770  0.4672 -1.4804  0.0115
  193DOPC  H12A23799   7.289   1.839   2.785  0.8928  0.5316  1.8600
  193DOPC  H12B23800   7.426   1.920   2.727 -1.5291 -0.6741  0.2225
  193DOPC   C1323801   7.586   1.703   2.671 -0.1124  0.2321  0.3637
  193DOPC  H13A23802   7.620   1.713   2.773 -2.1817  0.9353  1.0296
  193DOPC  H13B23803   7.630   1.617   2.623 -0.6451  0.2661 -0.2117
  193DOPC  H13C23804   7.626   1.790   2.621  1.0162 -0.9446 -0.8703
  193DOPC   C1423805   7.380   1.745   2.541  0.1986 -0.3210  0.4457
  193DOPC  H14A23806   7.410   1.680   2.460  1.4443 -2.9681  2.8653
  193DOPC  H14B23807   7.273   1.744   2.556 -0.1036 -0.6319 -1.5153
  193DOPC  H14C23808   7.406   1.847   2.518 -2.0831  0.3559  0.6219
  193DOPC   C1523809   7.380   1.588   2.722  0.2237  0.2663 -0.4304
  193DOPC  H15A23810   7.396   1.572   2.827 -0.0644  1.6949 -0.1513
  193DOPC  H15B23811   7.423   1.505   2.668 -1.4046 -1.5600  0.9714
  193DOPC  H15C23812   7.274   1.589   2.706  0.5875 -0.5721 -3.5421
  193DOPC   C1123813   7.456   1.825   2.913  0.1610  0.6029  0.3222
  193DOPC  H11A23814   7.561   1.851   2.886 -0.3180  2.0702 -0.2784
  193DOPC  H11B23815   7.432   1.924   2.958  1.4524  2.5950 -3.0232
  193DOPC     P23816   7.542   1.640   3.083 -0.2404  0.0477  0.1325
  193DOPC   O1323817   7.673   1.681   3.023  0.1148 -0.6707 -0.3462
  193DOPC   O1423818   7.509   1.495   3.090  1.0318 -0.0056  0.3477
  193DOPC   O1223819   7.428   1.710   2.996 -0.3588 -0.1351  0.8156
  193DOPC   O1123820   7.526   1.708   3.231  0.3426  0.2545  0.0296
  193DOPC    C123821   7.431   1.797   3.279 -0.2209 -0.8640 -0.3309
  193DOPC    HA23822   7.345   1.818   3.212 -1.7833  4.1210  2.6855
  193DOPC    HB23823   7.479   1.897   3.289  2.2826 -1.8406 -1.6353
  193DOPC    C223824   7.371   1.754   3.413 -0.0364  0.5371  0.3966
  193DOPC    HS23825   7.298   1.827   3.456 -0.3155  0.5810 -0.1477
  193DOPC   O2123826   7.478   1.729   3.507  0.4673 -0.9395 -0.5042
  193DOPC   C2123827   7.538   1.840   3.573  0.3764 -0.1554  0.7529
  193DOPC   O2223828   7.507   1.950   3.539  0.2573  0.2494  0.3145
  193DOPC   C2223829   7.633   1.799   3.678 -0.8112 -1.1554  0.2260
  193DOPC   H2R23830   7.720   1.868   3.672  0.5226 -2.5805  2.1504
  193DOPC   H2S23831   7.662   1.695   3.651 -3.1990 -1.4319 -1.5977
  193DOPC    C323832   7.290   1.620   3.400 -0.1801 -1.1373  0.0024
  193DOPC    HX23833   7.338   1.537   3.343 -2.0079 -2.4657  0.2994
  193DOPC    HY23834   7.195   1.633   3.342 -0.2694 -0.6311  0.2661
  193DOPC   O3123835   7.255   1.572   3.528 -0.0354  0.3891 -0.6876
  193DOPC   C3123836   7.330   1.480   3.589  0.5622 -0.2705  0.3395
  193DOPC   O3223837   7.420   1.410   3.541  0.8018  0.6269 -0.0553
  193DOPC   C3223838   7.303   1.483   3.739  0.2164  0.3143 -0.2070
  193DOPC   H2X23839   7.304   1.590   3.767  0.6772  0.7255 -1.7015
  193DOPC   H2Y23840   7.198   1.449   3.757  0.2062  0.0301 -0.7769
  193DOPC   C2323841   7.578   1.806   3.827  0.7815 -0.5791  0.1596
  193DOPC   H3R23842   7.651   1.770   3.902 -1.2055 -3.3481  0.9383
  193DOPC   H3S23843   7.489   1.741   3.841 -0.7703  1.1622 -1.1282
  193DOPC   C2423844   7.517   1.947   3.857  0.3383  0.2118 -0.0718
  193DOPC   H4R23845   7.446   1.970   3.775  0.5211 -0.6979 -0.5042
  193DOPC   H4S23846   7.600   2.020   3.866 -0.8357  1.6165 -0.3271
  193DOPC   C2523847   7.438   1.965   3.998  0.0275  0.5437  0.8998
  193DOPC   H5R23848   7.352   1.896   3.985 -0.7675  1.2491  2.2097
  193DOPC   H5S23849   7.393   2.066   4.003  1.9118  1.4527  0.5329
  193DOPC   C2623850   7.506   1.905   4.120 -1.0986 -0.1184  0.3109
  193DOPC   H6R23851   7.539   1.801   4.100  1.0238  0.3999  0.8320
  193DOPC   H6S23852   7.435   1.903   4.205 -2.7187  2.0857 -0.8699
  193DOPC   C2723853   7.633   1.971   4.163 -0.5233  0.1796 -0.8123
  193DOPC   H7R23854   7.693   1.988   4.071  0.6337 -1.2801 -0.3567
  193DOPC   H7S23855   7.692   1.902   4.228 -1.8640 -0.6914 -0.4982
  193DOPC   C2823856   7.611   2.105   4.239 -0.3965  0.7697  0.1612
  193DOPC   H8R23857   7.558   2.085   4.334  1.0102  1.0559  1.0424
  193DOPC   H8S23858   7.538   2.159   4.174 -1.9360 -0.5226  0.7554
  193DOPC   C2923859   7.736   2.190   4.242  0.3125  1.0211 -0.6872
  193DOPC   H9R23860   7.785   2.190   4.143  1.6698  0.0552 -0.0538
  193DOPC  C21023861   7.790   2.251   4.354  0.3695  0.2635  0.6382
  193DOPC  H10R23862   7.887   2.302   4.350  0.8167 -0.6716 -2.1609
  193DOPC  C21123863   7.723   2.238   4.491  0.5401 -0.5988 -0.2088
  193DOPC  H11R23864   7.643   2.160   4.494  0.6054 -0.6514  2.3830
  193DOPC  H11S23865   7.677   2.330   4.534 -0.7770  0.0721 -2.8415
  193DOPC  C21223866   7.817   2.182   4.599  0.8248  0.1520  0.4321
  193DOPC  H12R23867   7.908   2.244   4.611  0.7574  0.1610  0.8958
  193DOPC  H12S23868   7.865   2.095   4.549 -0.0578  0.8544 -1.7971
  193DOPC  C21323869   7.753   2.144   4.735  0.4997  0.0868 -0.7291
  193DOPC  H13R23870   7.718   2.229   4.799 -1.2626 -0.7336 -0.5503
  193DOPC  H13S23871   7.836   2.097   4.793 -0.4100 -0.7558 -0.0908
  193DOPC  C21423872   7.638   2.046   4.722 -0.0823  0.8332 -0.0463
  193DOPC  H14R23873   7.670   1.963   4.655  0.1403 -1.2207  2.4575
  193DOPC  H14S23874   7.559   2.109   4.675 -0.1066  1.4357  0.7693
  193DOPC  C21523875   7.584   1.992   4.858 -0.1196 -0.8632 -0.3327
  193DOPC  H15R23876   7.475   1.977   4.847 -0.1701 -0.6831 -0.1062
  193DOPC  H15S23877   7.600   2.067   4.940 -1.2353 -1.3087  0.3160
  193DOPC  C21623878   7.646   1.863   4.903  0.5516 -0.5014 -0.3410
  193DOPC  H16R23879   7.756   1.872   4.901  0.4848  2.9523  2.3256
  193DOPC  H16S23880   7.638   1.780   4.829  3.3460 -0.3188 -0.9369
  193DOPC  C21723881   7.590   1.823   5.041 -0.2483  0.2190  0.0014
  193DOPC  H17R23882   7.625   1.898   5.115  0.9603 -0.4859  0.1845
  193DOPC  H17S23883   7.635   1.725   5.068  0.3633 -0.0450 -1.8214
  193DOPC  C21823884   7.443   1.793   5.065 -0.5586 -0.2974  0.5662
  193DOPC  H18R23885   7.376   1.873   5.027 -0.6884 -1.0221 -0.7990
  193DOPC  H18S23886   7.417   1.770   5.170  0.3125 -3.5473  0.1910
  193DOPC  H18T23887   7.418   1.697   5.014 -0.4388 -0.5127  0.9086
  193DOPC   C3323888   7.408   1.409   3.818  0.2033  0.2979  0.6133
  193DOPC   H3X23889   7.510   1.452   3.813  0.2442  0.7547  3.5415
  193DOPC   H3Y23890   7.415   1.306   3.776 -0.9662  0.7293 -0.7099
  193DOPC   C3423891   7.364   1.381   3.966 -0.5507  0.1077  1.2162
  193DOPC   H4X23892   7.429   1.301   4.007  0.8424  0.3152 -0.4780
  193DOPC   H4Y23893   7.259   1.346   3.962 -0.1388 -1.1945  1.4560
  193DOPC   C3523894   7.370   1.509   4.051  0.7986  0.3508  0.6370
  193DOPC   H5X23895   7.285   1.569   4.011  1.1986  0.0430 -0.7420
  193DOPC   H5Y23896   7.465   1.551   4.012  0.5148 -0.4354 -1.0213
  193DOPC   C3623897   7.366   1.476   4.197  0.2260 -0.2202  0.6140
  193DOPC   H6X23898   7.265   1.440   4.228 -0.4705  2.0066  1.1438
  193DOPC   H6Y23899   7.421   1.382   4.221 -0.9188 -1.1343 -0.2441
  193DOPC   C3723900   7.425   1.592   4.284  0.4902  0.0539  0.2292
  193DOPC   H7X23901   7.532   1.603   4.257 -0.0726  0.2666 -2.1865
  193DOPC   H7Y23902   7.375   1.688   4.258 -1.7715 -0.5612  1.9851
  193DOPC   C3823903   7.415   1.556   4.431 -0.0822  0.3246 -0.4831
  193DOPC   H8X23904   7.482   1.473   4.462 -1.6977 -0.6389  0.5839
  193DOPC   H8Y23905   7.309   1.527   4.450 -0.5745  0.8467 -2.1896
  193DOPC   C3923906   7.461   1.668   4.518 -0.0077  0.4416 -0.1596
  193DOPC   H9X23907   7.562   1.705   4.497  0.0069  1.0332  0.8986
  193DOPC  C31023908   7.390   1.716   4.625 -0.6519  0.3784 -0.3603
  193DOPC  H10X23909   7.430   1.806   4.673 -0.8799  0.9008 -1.1302
  193DOPC  C31123910   7.252   1.674   4.668 -0.5300 -0.1875 -0.0788
  193DOPC  H11X23911   7.258   1.601   4.752  1.1089  1.3995  1.2813
  193DOPC  H11Y23912   7.193   1.624   4.589 -0.7306 -0.7480  0.4180
  193DOPC  C31223913   7.177   1.800   4.728 -0.3188  0.0585  0.4888
  193DOPC  H12X23914   7.152   1.866   4.641  1.9127  0.4626  0.1030
  193DOPC  H12Y23915   7.241   1.863   4.793 -0.2637 -2.2440  2.7997
  193DOPC  C31323916   7.043   1.776   4.805 -0.3826 -0.4266 -0.5277
  193DOPC  H13X23917   6.966   1.853   4.785 -0.3439  0.1322  1.2553
  193DOPC  H13Y23918   6.991   1.685   4.767 -3.1986  1.5651 -1.8395
  193DOPC  C31423919   7.069   1.770   4.958 -0.3399  0.0070  0.0822
  193DOPC  H14X23920   7.131   1.681   4.981 -1.0130 -0.3605  0.5258
  193DOPC  H14Y23921   7.128   1.857   4.993  0.5184 -0.0840 -1.1020
  193DOPC  C31523922   6.939   1.768   5.033 -0.6867 -0.2373  0.2970
  193DOPC  H15X23923   6.896   1.679   4.983 -0.2445 -0.9495  1.1554
  193DOPC  H15Y23924   6.871   1.855   5.020 -1.9611 -1.1059  0.9829
  193DOPC  C31623925   6.951   1.736   5.179  0.1635 -0.0333 -0.0421
  193DOPC  H16X23926   7.026   1.655   5.190  0.1046  0.0170  0.8415
  193DOPC  H16Y23927   6.984   1.818   5.247 -1.0239 -0.7162  1.4094
  193DOPC  C31723928   6.821   1.690   5.240 -0.4120  0.7756 -0.0797
  193DOPC  H17X23929   6.733   1.747   5.204 -0.3271 -0.1845 -1.8994
  193DOPC  H17Y23930   6.803   1.586   5.205 -2.7248  0.7540  1.0104
  193DOPC  C31823931   6.819   1.676   5.396  0.5005 -0.2962  0.1901
  193DOPC  H18X23932   6.715   1.640   5.415  1.5564 -3.6809  0.2713
  193DOPC  H18Y23933   6.897   1.610   5.441  0.2409 -0.6583  0.1133
  193DOPC  H18Z23934   6.828   1.778   5.439 -0.9521 -0.4172  0.8663
  194DOPC     N23935   2.041   0.153   3.036 -0.3295 -0.1108 -0.6569
  194DOPC   C1223936   2.009   0.256   3.142 -0.7434 -0.3392  0.1754
  194DOPC  H12A23937   1.981   0.210   3.236  0.6012  2.1334  1.8981
  194DOPC  H12B23938   1.921   0.312   3.113 -0.3262  0.7414  0.9274
  194DOPC   C1323939   2.158   0.071   3.081 -0.5403 -0.0533  0.4651
  194DOPC  H13A23940   2.120  -0.008   3.144 -2.4129 -0.4820 -1.1117
  194DOPC  H13B23941   2.217   0.029   3.001 -0.3557 -0.2901  0.7239
  194DOPC  H13C23942   2.233   0.129   3.134  0.1385  2.0658 -2.5267
  194DOPC   C1423943   2.071   0.221   2.905  0.3215 -0.1069  0.2199
  194DOPC  H14A23944   2.158   0.283   2.912  1.2266 -1.1192 -1.4890
  194DOPC  H14B23945   2.074   0.145   2.828 -2.2420 -1.8581  1.6632
  194DOPC  H14C23946   1.993   0.288   2.871 -0.1869 -0.6838  0.2026
  194DOPC   C1523947   1.931   0.064   3.024 -0.4648 -0.0787 -0.4556
  194DOPC  H15A23948   1.950  -0.022   2.962 -2.4291 -0.9168  0.0096
  194DOPC  H15B23949   1.845   0.111   2.978  0.4661  2.4987  0.2629
  194DOPC  H15C23950   1.894   0.037   3.122  1.0570 -0.4494  0.0448
  194DOPC   C1123951   2.124   0.359   3.177  0.3054 -0.0896  0.7629
  194DOPC  H11A23952   2.089   0.421   3.263  0.0919 -0.3649  0.8751
  194DOPC  H11B23953   2.204   0.290   3.210  3.1759  1.4605 -2.3966
  194DOPC     P23954   2.174   0.600   3.049 -0.0199  0.0509  0.1939
  194DOPC   O1323955   2.035   0.645   3.078  0.5682 -0.2667 -0.6257
  194DOPC   O1423956   2.226   0.632   2.911  0.1599 -0.2134 -0.7525
  194DOPC   O1223957   2.184   0.442   3.075  0.2649 -0.9398  0.5796
  194DOPC   O1123958   2.267   0.655   3.166 -0.1069 -0.0827  0.0689
  194DOPC    C123959   2.374   0.587   3.230 -0.0214 -0.4206  0.1674
  194DOPC    HA23960   2.472   0.632   3.202  0.5902 -1.7398  0.1010
  194DOPC    HB23961   2.382   0.481   3.198 -1.2963 -0.1696 -1.0913
  194DOPC    C223962   2.341   0.593   3.381  0.4518 -0.3877  0.3319
  194DOPC    HS23963   2.244   0.541   3.395  1.0531 -1.4965  0.4687
  194DOPC   O2123964   2.337   0.733   3.424  0.0342  0.8119 -0.0965
  194DOPC   C2123965   2.251   0.754   3.527  0.6705 -0.0413 -0.3435
  194DOPC   O2223966   2.176   0.670   3.573 -0.3072  0.6419 -0.3347
  194DOPC   C2223967   2.257   0.903   3.557 -0.6506 -0.6725 -0.2666
  194DOPC   H2R23968   2.176   0.960   3.505 -0.1339 -0.3543 -0.7315
  194DOPC   H2S23969   2.345   0.948   3.508 -0.5492  1.3925  1.6628
  194DOPC    C323970   2.446   0.517   3.458  0.7274 -0.4602 -0.1050
  194DOPC    HX23971   2.545   0.567   3.445  1.2114 -1.7771 -1.9409
  194DOPC    HY23972   2.472   0.420   3.409 -0.6430 -0.3145 -1.1971
  194DOPC   O3123973   2.418   0.516   3.602 -0.2064  0.3206  0.1998
  194DOPC   C3123974   2.338   0.422   3.637  0.3671 -0.4081 -0.5333
  194DOPC   O3223975   2.321   0.312   3.581  0.5385  0.0059  0.2024
  194DOPC   C3223976   2.280   0.471   3.766  0.0036 -0.4673  0.3566
  194DOPC   H2X23977   2.316   0.571   3.798  0.1773 -0.0511 -1.0782
  194DOPC   H2Y23978   2.174   0.500   3.750  0.3627  0.8799  0.2635
  194DOPC   C2323979   2.222   0.951   3.701 -0.2321 -0.0866  0.3373
  194DOPC   H3R23980   2.130   0.895   3.729 -0.7965  0.0880 -1.0761
  194DOPC   H3S23981   2.211   1.061   3.697 -0.6277 -0.1500 -0.8454
  194DOPC   C2423982   2.325   0.914   3.809 -0.2377  0.1692  0.0620
  194DOPC   H4R23983   2.420   0.967   3.788  0.2959 -0.2041  1.3966
  194DOPC   H4S23984   2.331   0.803   3.815 -2.6261  0.0054  0.9251
  194DOPC   C2523985   2.291   0.964   3.947 -1.3889 -0.6866 -0.2965
  194DOPC   H5R23986   2.253   1.069   3.944  1.8994  0.6141 -0.4834
  194DOPC   H5S23987   2.383   0.984   4.006 -1.0345  0.7288 -1.2692
  194DOPC   C2623988   2.188   0.878   4.018  0.5602 -0.4481 -0.1035
  194DOPC   H6R23989   2.219   0.771   4.011  0.7280 -0.3127 -2.1890
  194DOPC   H6S23990   2.100   0.886   3.949  0.8118 -1.6164 -0.5833
  194DOPC   C2723991   2.168   0.924   4.158  0.2397 -0.1192 -0.0906
  194DOPC   H7R23992   2.137   1.031   4.160 -3.4615 -1.0805  0.1460
  194DOPC   H7S23993   2.265   0.913   4.212  0.3022 -0.8246 -0.3408
  194DOPC   C2823994   2.074   0.844   4.239 -0.6043 -0.3007  0.3589
  194DOPC   H8R23995   2.121   0.747   4.264 -0.4881 -0.9357 -2.1187
  194DOPC   H8S23996   1.983   0.824   4.178 -0.9078 -0.9163  0.9977
  194DOPC   C2923997   2.039   0.915   4.365  0.6238  0.3999 -0.1676
  194DOPC   H9R23998   1.985   1.010   4.349 -0.5513 -0.1668  0.3129
  194DOPC  C21023999   2.076   0.868   4.488  0.1744 -0.3632  0.2885
  194DOPC  H10R24000   2.058   0.931   4.576 -3.0041 -0.0538 -0.4560
  194DOPC  C21124001   2.142   0.744   4.529  0.0413 -0.4405  0.9977
  194DOPC  H11R24002   2.253   0.749   4.537  0.3342 -2.6368 -0.8465
  194DOPC  H11S24003   2.135   0.664   4.453 -0.4271  0.3239  0.2167
  194DOPC  C21224004   2.078   0.695   4.654  0.7559 -0.5921 -0.9836
  194DOPC  H12R24005   1.978   0.654   4.630 -1.3464  3.6211 -0.3992
  194DOPC  H12S24006   2.059   0.775   4.729 -0.3754 -1.7128 -0.0402
  194DOPC  C21324007   2.161   0.591   4.732 -0.0233  0.7454 -0.1075
  194DOPC  H13R24008   2.251   0.635   4.779  0.7193  2.1036 -2.6055
  194DOPC  H13S24009   2.190   0.505   4.668 -2.5954  0.1234 -0.5661
  194DOPC  C21424010   2.074   0.522   4.837 -0.0118  0.7133 -0.4391
  194DOPC  H14R24011   1.980   0.482   4.792 -0.3804  1.0690 -0.0052
  194DOPC  H14S24012   2.045   0.591   4.919  0.1246 -0.2282  0.4305
  194DOPC  C21524013   2.153   0.413   4.916  0.2371  0.2023 -0.2081
  194DOPC  H15R24014   2.259   0.448   4.922  0.7101 -1.0394 -0.9884
  194DOPC  H15S24015   2.153   0.326   4.848 -0.3054 -0.2127  0.3107
  194DOPC  C21624016   2.103   0.379   5.062  0.6725 -0.4962  0.5137
  194DOPC  H16R24017   2.124   0.467   5.128 -0.0841 -0.4155  0.6505
  194DOPC  H16S24018   2.151   0.288   5.104  2.7111 -0.1747 -0.9566
  194DOPC  C21724019   1.951   0.360   5.059 -0.1219 -0.0678 -0.0152
  194DOPC  H17R24020   1.920   0.266   5.009 -0.3684 -0.6551  1.2139
  194DOPC  H17S24021   1.908   0.438   4.992 -0.8565 -0.7955 -0.4061
  194DOPC  C21824022   1.876   0.374   5.189 -0.4609  0.0839 -0.1669
  194DOPC  H18R24023   1.768   0.352   5.172 -0.4093 -1.4360  1.1875
  194DOPC  H18S24024   1.891   0.477   5.228 -1.7274  1.1879 -2.4529
  194DOPC  H18T24025   1.899   0.294   5.263  1.2191 -0.5351 -1.3047
  194DOPC   C3324026   2.294   0.367   3.885 -0.3698 -0.1052  0.4180
  194DOPC   H3X24027   2.402   0.341   3.893 -0.5876 -0.9917  0.5356
  194DOPC   H3Y24028   2.249   0.268   3.863  1.0913 -0.9039  0.8898
  194DOPC   C3424029   2.241   0.415   4.018 -0.6003 -0.1863  0.4948
  194DOPC   H4X24030   2.131   0.395   4.020 -0.2493 -2.3798  0.2587
  194DOPC   H4Y24031   2.277   0.519   4.031 -1.3867 -0.1642  2.8226
  194DOPC   C3524032   2.288   0.341   4.142 -0.2529 -0.1285 -0.6456
  194DOPC   H5X24033   2.398   0.358   4.139 -0.2223 -0.3454 -3.4151
  194DOPC   H5Y24034   2.263   0.234   4.130 -2.5078  0.4221 -1.3220
  194DOPC   C3624035   2.238   0.382   4.282  0.1158  0.2356 -0.0067
  194DOPC   H6X24036   2.205   0.488   4.292 -1.3205 -0.3099  1.5092
  194DOPC   H6Y24037   2.143   0.326   4.295 -1.2896  1.8646 -2.3657
  194DOPC   C3724038   2.334   0.360   4.404  0.4904 -0.5695  0.2562
  194DOPC   H7X24039   2.418   0.307   4.353  0.5310  0.9552 -1.3636
  194DOPC   H7Y24040   2.372   0.459   4.436 -0.7548  0.7583 -2.1109
  194DOPC   C3824041   2.280   0.282   4.525 -0.6488  0.2958  0.2144
  194DOPC   H8X24042   2.173   0.308   4.540 -0.6937 -0.3192  1.0109
  194DOPC   H8Y24043   2.341   0.324   4.608 -0.2423  1.2300 -0.5415
  194DOPC   C3924044   2.292   0.138   4.503 -0.2860  0.6850  0.2961
  194DOPC   H9X24045   2.274   0.100   4.402  1.1955  0.4122  0.1182
  194DOPC  C31024046   2.337   0.050   4.590  0.3454 -0.7145 -0.8053
  194DOPC  H10X24047   2.328  -0.054   4.554  0.0139 -0.9540 -0.0690
  194DOPC  C31124048   2.357   0.082   4.742  0.2180 -0.5353  0.6114
  194DOPC  H11X24049   2.357   0.192   4.753 -3.2099  0.4520 -5.0420
  194DOPC  H11Y24050   2.458   0.047   4.770  1.3101  2.3968  0.6599
  194DOPC  C31224051   2.244   0.031   4.840  0.3567  0.3836 -0.2568
  194DOPC  H12X24052   2.258   0.085   4.936  0.6015  0.9866 -0.6236
  194DOPC  H12Y24053   2.262  -0.077   4.858 -1.6964 -0.5557 -3.0627
  194DOPC  C31324054   2.106   0.056   4.785  0.0049 -0.1698  0.6703
  194DOPC  H13X24055   2.099   0.161   4.749  1.8737 -0.2088  0.0708
  194DOPC  H13Y24056   2.093   0.002   4.689  0.9670 -1.9041  1.4701
  194DOPC  C31424057   1.989   0.015   4.875  0.4951  0.4272  0.3450
  194DOPC  H14X24058   1.998  -0.092   4.904 -0.8904  0.2766  0.2478
  194DOPC  H14Y24059   1.999   0.062   4.976 -1.5939 -0.3334  0.9550
  194DOPC  C31524060   1.844   0.043   4.829  0.2503 -0.0410  0.1745
  194DOPC  H15X24061   1.824  -0.002   4.730 -1.4544  1.9817 -0.4651
  194DOPC  H15Y24062   1.831   0.152   4.809  2.8066  0.6203  1.5431
  194DOPC  C31624063   1.736   0.002   4.932 -1.0377  0.0161 -0.2433
  194DOPC  H16X24064   1.752   0.056   5.028 -0.4885  0.3530 -0.5240
  194DOPC  H16Y24065   1.636   0.033   4.895 -1.7288 -1.6160  0.1425
  194DOPC  C31724066   1.732  -0.152   4.953 -0.7594 -0.3191 -0.5793
  194DOPC  H17X24067   1.834  -0.189   4.974 -1.2763 -1.0655  0.6880
  194DOPC  H17Y24068   1.671  -0.169   5.044  2.0632  1.9487  1.9198
  194DOPC  C31824069   1.687  -0.221   4.830 -0.6955  0.4875  1.0341
  194DOPC  H18X24070   1.649  -0.325   4.846 -0.2828 -0.1371 -1.6134
  194DOPC  H18Y24071   1.604  -0.163   4.785 -1.1768  0.4885  1.8939
  194DOPC  H18Z24072   1.766  -0.225   4.752 -0.6711  1.8593  0.9792
  195DOPC     N24073   6.500   0.876   2.481 -0.0588 -0.0365 -0.0759
  195DOPC   C1224074   6.492   0.761   2.582  0.1456  0.3806  0.0560
  195DOPC  H12A24075   6.483   0.802   2.681 -1.3565  0.5453 -0.1338
  195DOPC  H12B24076   6.584   0.703   2.585 -0.6759 -0.9312  2.0905
  195DOPC   C1324077   6.379   0.955   2.479  0.0862 -0.1575 -0.2447
  195DOPC  H13A24078   6.294   0.895   2.508 -1.5393  2.6174  1.2202
  195DOPC  H13B24079   6.379   1.034   2.553  1.5794 -0.4558  0.1091
  195DOPC  H13C24080   6.354   1.009   2.389  0.0344  0.4105  0.1067
  195DOPC   C1424081   6.513   0.831   2.340 -0.1546  0.2849  0.5502
  195DOPC  H14A24082   6.567   0.904   2.282  1.9084 -1.1431  0.5721
  195DOPC  H14B24083   6.571   0.740   2.339  2.3621  1.7295 -2.5257
  195DOPC  H14C24084   6.413   0.815   2.303 -0.6360 -0.7689  2.1899
  195DOPC   C1524085   6.619   0.966   2.526  0.4253 -0.3382  0.3027
  195DOPC  H15A24086   6.634   1.047   2.456  1.9026  0.4386  1.4482
  195DOPC  H15B24087   6.709   0.909   2.540  0.1297 -0.1592  4.0181
  195DOPC  H15C24088   6.598   1.018   2.618 -1.0408  0.1243 -0.2604
  195DOPC   C1124089   6.375   0.656   2.567  0.3659 -0.3869 -0.1285
  195DOPC  H11A24090   6.382   0.618   2.462 -1.6413 -1.2051 -0.0080
  195DOPC  H11B24091   6.385   0.570   2.637 -0.1374  0.5534  1.1331
  195DOPC     P24092   6.199   0.761   2.730  0.0174 -0.1551  0.0793
  195DOPC   O1324093   6.049   0.784   2.712 -0.4115 -1.0507 -0.4750
  195DOPC   O1424094   6.282   0.867   2.787  0.1354 -0.3164 -0.7962
  195DOPC   O1224095   6.247   0.720   2.587 -0.0546  0.1721  0.5233
  195DOPC   O1124096   6.212   0.624   2.795 -0.5085  0.4871  0.3010
  195DOPC    C124097   6.157   0.602   2.930  0.7001  0.6313  0.0836
  195DOPC    HA24098   6.130   0.495   2.946  0.2879  0.8294  0.7334
  195DOPC    HB24099   6.060   0.655   2.935  0.7525  0.7749 -0.4249
  195DOPC    C224100   6.254   0.638   3.045  0.1122 -0.1566  0.4572
  195DOPC    HS24101   6.219   0.584   3.135  0.2039 -3.2616 -1.2243
  195DOPC   O2124102   6.248   0.778   3.076  0.3633 -0.2734 -0.2347
  195DOPC   C2124103   6.151   0.823   3.146 -0.4534 -0.4738 -0.4917
  195DOPC   O2224104   6.064   0.766   3.205  0.1534 -0.4059  0.3081
  195DOPC   C2224105   6.167   0.977   3.143 -0.3111 -0.2701  0.4057
  195DOPC   H2R24106   6.136   1.016   3.044  2.9468  0.5360 -0.4166
  195DOPC   H2S24107   6.275   0.999   3.158  0.1983 -0.8877 -1.9080
  195DOPC    C324108   6.395   0.584   3.010  0.2685 -0.1167 -0.2213
  195DOPC    HX24109   6.430   0.632   2.916 -1.9203 -1.7158 -1.9422
  195DOPC    HY24110   6.404   0.474   3.002  0.9708 -0.3425  2.5694
  195DOPC   O3124111   6.479   0.625   3.122  0.2751  0.1650  0.3601
  195DOPC   C3124112   6.576   0.541   3.148  0.4907 -0.3123  0.2385
  195DOPC   O3224113   6.592   0.434   3.091 -0.6415 -0.8160 -0.1255
  195DOPC   C3224114   6.664   0.575   3.264 -0.4768 -0.4469 -0.4353
  195DOPC   H2X24115   6.662   0.484   3.327 -0.9495 -0.8358 -0.9956
  195DOPC   H2Y24116   6.763   0.603   3.223 -0.5794  1.1700  0.3195
  195DOPC   C2324117   6.075   1.055   3.248  0.9067 -0.3443  0.5367
  195DOPC   H3R24118   5.975   1.009   3.230  0.7252  0.7655 -1.6683
  195DOPC   H3S24119   6.072   1.163   3.224  0.1587 -0.5030 -0.1375
  195DOPC   C2424120   6.107   1.020   3.393  0.2317 -0.1532  0.3707
  195DOPC   H4R24121   6.217   1.030   3.402  0.4573 -0.4852 -1.6428
  195DOPC   H4S24122   6.077   0.915   3.416 -1.7438  0.8760  3.1207
  195DOPC   C2524123   6.038   1.109   3.503  0.2339  0.8483 -0.0491
  195DOPC   H5R24124   5.932   1.077   3.495  1.1563 -2.1651 -1.6624
  195DOPC   H5S24125   6.049   1.217   3.482  0.4068  1.3471  2.2997
  195DOPC   C2624126   6.094   1.086   3.647  0.6166 -0.5108  0.8945
  195DOPC   H6R24127   6.044   1.161   3.711 -0.8986  0.1630 -0.9719
  195DOPC   H6S24128   6.200   1.117   3.664  0.2733  0.0224  2.1554
  195DOPC   C2724129   6.054   0.946   3.690  0.0380 -0.3442 -0.0357
  195DOPC   H7R24130   6.121   0.877   3.634  0.7687  0.2289  0.1217
  195DOPC   H7S24131   5.948   0.933   3.659 -0.0394 -2.0029  0.7898
  195DOPC   C2824132   6.064   0.930   3.844 -0.2851  0.1996 -0.1487
  195DOPC   H8R24133   6.166   0.944   3.886 -0.8268 -0.3228  1.3904
  195DOPC   H8S24134   6.039   0.824   3.863  0.4212 -0.0902 -0.7917
  195DOPC   C2924135   5.972   1.020   3.924 -0.3369  0.6060  0.3259
  195DOPC   H9R24136   5.942   1.113   3.872  2.1887  2.0446  1.2276
  195DOPC  C21024137   5.915   1.004   4.047 -0.4008  0.3823 -0.4449
  195DOPC  H10R24138   5.833   1.072   4.072 -0.7815 -0.1076 -0.3597
  195DOPC  C21124139   5.928   0.885   4.134  0.1663  0.3997 -0.0199
  195DOPC  H11R24140   6.027   0.890   4.184  0.5083  0.7402 -0.7054
  195DOPC  H11S24141   5.930   0.789   4.077 -2.3630  0.8615 -0.9992
  195DOPC  C21224142   5.813   0.875   4.236  0.2471  0.2864  0.2383
  195DOPC  H12R24143   5.726   0.823   4.190  1.0896 -1.7119  0.8166
  195DOPC  H12S24144   5.789   0.970   4.289 -0.1309 -1.0956  2.6444
  195DOPC  C21324145   5.849   0.770   4.341 -0.5370  0.4017  0.1945
  195DOPC  H13R24146   5.885   0.683   4.282 -1.0875  0.4695 -0.2550
  195DOPC  H13S24147   5.756   0.741   4.395  1.0858 -1.5587  2.0928
  195DOPC  C21424148   5.966   0.807   4.437  1.0945 -0.1808 -0.2728
  195DOPC  H14R24149   5.927   0.874   4.516  0.0292 -1.4333  0.2987
  195DOPC  H14S24150   6.050   0.860   4.387  0.9106  1.1223  0.7438
  195DOPC  C21524151   6.024   0.682   4.511 -0.2159 -0.0179 -0.0896
  195DOPC  H15R24152   6.104   0.721   4.577  1.0138 -0.0305 -1.5353
  195DOPC  H15S24153   6.067   0.617   4.432  2.2509  1.0132  0.3320
  195DOPC  C21624154   5.913   0.613   4.592 -0.0070 -0.8222 -0.2260
  195DOPC  H16R24155   5.859   0.544   4.524  0.2625 -0.7943 -0.4730
  195DOPC  H16S24156   5.842   0.686   4.636 -0.5467 -1.1554 -0.5415
  195DOPC  C21724157   5.961   0.528   4.709  0.5009 -0.2236 -0.6853
  195DOPC  H17R24158   5.869   0.478   4.747  0.2434  0.5687 -0.2488
  195DOPC  H17S24159   5.999   0.592   4.791  1.6925 -0.5459 -0.9615
  195DOPC  C21824160   6.051   0.415   4.668 -0.2982 -0.5653 -0.0865
  195DOPC  H18R24161   6.008   0.354   4.586 -0.0991 -0.0065 -0.6107
  195DOPC  H18S24162   6.061   0.346   4.755 -1.3714 -2.1578 -1.1724
  195DOPC  H18T24163   6.150   0.451   4.633 -0.6571  2.6143  1.7567
  195DOPC   C3324164   6.620   0.702   3.352  0.3697  0.3392 -0.0834
  195DOPC   H3X24165   6.622   0.797   3.295  0.9335  0.5271  0.2449
  195DOPC   H3Y24166   6.693   0.710   3.435  1.3587  0.7567 -0.9769
  195DOPC   C3424167   6.479   0.689   3.415 -0.4639  0.7745 -0.2341
  195DOPC   H4X24168   6.476   0.586   3.457  0.7990  1.4027  1.5117
  195DOPC   H4Y24169   6.403   0.692   3.334 -0.5606  1.5410 -0.1142
  195DOPC   C3524170   6.451   0.791   3.522 -0.1817 -0.1595 -0.5800
  195DOPC   H5X24171   6.341   0.804   3.533  0.0934  4.4046 -1.2307
  195DOPC   H5Y24172   6.488   0.892   3.494  2.5369 -0.2584  2.1703
  195DOPC   C3624173   6.523   0.765   3.648 -0.2412 -0.2702 -0.6120
  195DOPC   H6X24174   6.525   0.656   3.668  0.4929 -0.1453  0.0174
  195DOPC   H6Y24175   6.628   0.799   3.635 -0.2036 -0.1706 -0.0776
  195DOPC   C3724176   6.467   0.845   3.776 -0.0057  0.0566 -0.1746
  195DOPC   H7X24177   6.485   0.953   3.754  1.0191 -0.3552 -1.5371
  195DOPC   H7Y24178   6.359   0.819   3.783  0.3309 -1.1622  0.7206
  195DOPC   C3824179   6.523   0.799   3.907  1.2400 -0.6569 -0.5607
  195DOPC   H8X24180   6.631   0.822   3.901  1.1271  0.1983  0.2505
  195DOPC   H8Y24181   6.515   0.689   3.912 -2.1608 -0.7484 -3.7946
  195DOPC   C3924182   6.463   0.881   4.018  0.0971 -0.1535 -0.7065
  195DOPC   H9X24183   6.478   0.990   4.023 -0.7745 -0.0434 -0.1191
  195DOPC  C31024184   6.387   0.818   4.111  0.7861 -0.0752 -0.3691
  195DOPC  H10X24185   6.348   0.891   4.184  0.3262 -0.4992 -0.1846
  195DOPC  C31124186   6.377   0.669   4.144  0.4698  0.2461  0.8870
  195DOPC  H11X24187   6.358   0.662   4.253 -0.1523 -2.0710  0.6703
  195DOPC  H11Y24188   6.473   0.614   4.130  0.6955  0.6086  0.9813
  195DOPC  C31224189   6.267   0.573   4.074 -0.4539 -0.1258 -0.4545
  195DOPC  H12X24190   6.302   0.547   3.972 -1.3563  0.5799 -0.9562
  195DOPC  H12Y24191   6.169   0.623   4.060 -0.3986  0.5702  1.3521
  195DOPC  C31324192   6.256   0.442   4.157  0.0671  0.2175  0.2354
  195DOPC  H13X24193   6.359   0.401   4.153 -0.0554 -0.1842  0.9329
  195DOPC  H13Y24194   6.225   0.477   4.258  1.6858  0.4956  0.6686
  195DOPC  C31424195   6.136   0.348   4.107 -0.6673 -1.5432 -0.2497
  195DOPC  H14X24196   6.143   0.310   4.003 -0.0519  4.1396 -2.6383
  195DOPC  H14Y24197   6.143   0.257   4.171 -1.6655 -1.8295 -0.5302
  195DOPC  C31524198   5.995   0.396   4.128  0.0860 -0.2928 -0.1207
  195DOPC  H15X24199   5.956   0.421   4.027  0.4833 -1.7661 -0.6718
  195DOPC  H15Y24200   6.011   0.481   4.198 -0.0471 -1.1263  0.9489
  195DOPC  C31624201   5.911   0.301   4.208  0.3549  0.2948  0.5043
  195DOPC  H16X24202   5.896   0.203   4.159  0.5203  1.1355 -1.3201
  195DOPC  H16Y24203   5.959   0.279   4.306  0.2442  0.0087  0.4959
  195DOPC  C31724204   5.760   0.350   4.238 -0.2688 -0.5880  0.1133
  195DOPC  H17X24205   5.712   0.286   4.315  2.3648 -0.9290  1.6024
  195DOPC  H17Y24206   5.765   0.449   4.289  1.0285  0.2095 -1.4661
  195DOPC  C31824207   5.666   0.357   4.116  0.4045 -0.6098  0.3208
  195DOPC  H18X24208   5.569   0.398   4.151  1.3867  2.2974 -0.1702
  195DOPC  H18Y24209   5.708   0.416   4.033 -1.2255 -0.3281 -0.3364
  195DOPC  H18Z24210   5.648   0.256   4.074  1.6230 -0.5444 -0.3945
  196DOPC     N24211   2.195   1.728   2.795  1.0096  0.0841  0.2315
  196DOPC   C1224212   2.237   1.792   2.926  0.3034 -0.2154  0.4494
  196DOPC  H12A24213   2.270   1.892   2.899 -1.3462  0.3558  0.4538
  196DOPC  H12B24214   2.313   1.736   2.980 -0.5413 -2.3439 -0.4898
  196DOPC   C1324215   2.307   1.692   2.706 -0.1395  0.5200 -0.3533
  196DOPC  H13A24216   2.383   1.647   2.767 -0.4103 -2.5996 -2.1027
  196DOPC  H13B24217   2.273   1.621   2.631  0.3810 -3.1320  2.5931
  196DOPC  H13C24218   2.347   1.779   2.655 -3.2390  0.6780 -2.8118
  196DOPC   C1424219   2.110   1.833   2.724 -0.0392  0.6185 -0.3995
  196DOPC  H14A24220   2.039   1.788   2.655  0.1478 -1.7817  0.8398
  196DOPC  H14B24221   2.045   1.879   2.797 -1.4966  0.7933 -1.7479
  196DOPC  H14C24222   2.162   1.905   2.663  1.3209  1.9777  2.2499
  196DOPC   C1524223   2.111   1.608   2.814  0.3369 -0.1753  0.4354
  196DOPC  H15A24224   2.153   1.524   2.868  1.0324  0.6056  1.1456
  196DOPC  H15B24225   2.082   1.571   2.717  1.3308  2.2838 -0.8740
  196DOPC  H15C24226   2.028   1.633   2.880  1.3472  3.0698  0.6126
  196DOPC   C1124227   2.127   1.818   3.039 -0.5222 -0.5857  0.2119
  196DOPC  H11A24228   2.104   1.720   3.085 -0.1004 -0.6851  0.2159
  196DOPC  H11B24229   2.180   1.887   3.109 -1.3882 -1.4412  1.7701
  196DOPC     P24230   1.976   2.029   2.990 -0.1643  0.1260 -0.1938
  196DOPC   O1324231   1.868   2.041   2.892 -0.3508 -0.1585 -0.0977
  196DOPC   O1424232   2.097   2.107   2.963  0.0805  0.0024 -0.5144
  196DOPC   O1224233   2.008   1.874   2.987 -0.2375  0.3298  0.8042
  196DOPC   O1124234   1.905   2.055   3.131  0.1469 -0.1547 -0.1282
  196DOPC    C124235   1.824   1.945   3.180  0.3557  0.0312  0.0350
  196DOPC    HA24236   1.891   1.869   3.226  0.9939 -0.0375 -0.9696
  196DOPC    HB24237   1.778   1.890   3.095  1.4853 -3.2654  1.3670
  196DOPC    C224238   1.730   1.978   3.293  0.4076  0.1596 -0.5957
  196DOPC    HS24239   1.647   2.041   3.253 -0.2933 -0.4442 -0.1299
  196DOPC   O2124240   1.805   2.056   3.390 -0.1102  0.5606 -0.5209
  196DOPC   C2124241   1.744   2.142   3.462  0.5598 -0.7455  0.6757
  196DOPC   O2224242   1.628   2.172   3.455  0.5919 -0.0270  0.6610
  196DOPC   C2224243   1.847   2.202   3.556  0.6314 -0.2989  0.3153
  196DOPC   H2R24244   1.948   2.216   3.512  1.2608 -0.5307  1.6308
  196DOPC   H2S24245   1.847   2.141   3.649 -3.5621  0.7378  1.1706
  196DOPC    C324246   1.684   1.848   3.368 -0.3971 -0.0663 -0.4594
  196DOPC    HX24247   1.774   1.785   3.386 -0.2579  0.5883  1.2985
  196DOPC    HY24248   1.633   1.785   3.292  0.8155 -2.1427  0.3665
  196DOPC   O3124249   1.631   1.865   3.500  0.5996 -0.4353  0.6054
  196DOPC   C3124250   1.502   1.892   3.503  0.5669  0.7589 -0.0205
  196DOPC   O3224251   1.434   1.885   3.402 -0.1125 -0.1837  0.4971
  196DOPC   C3224252   1.460   1.931   3.647 -0.2733 -0.3128  0.4674
  196DOPC   H2X24253   1.510   1.848   3.702  0.1862 -1.8383 -2.0963
  196DOPC   H2Y24254   1.503   2.029   3.678 -0.3814  0.8114 -2.6566
  196DOPC   C2324255   1.811   2.350   3.584  0.1173 -0.3755 -0.2352
  196DOPC   H3R24256   1.718   2.357   3.644 -0.3381  1.2983 -1.0753
  196DOPC   H3S24257   1.778   2.405   3.493  0.5743  1.3303  0.6073
  196DOPC   C2424258   1.925   2.438   3.644  0.8126  0.0183  0.4867
  196DOPC   H4R24259   2.004   2.456   3.568  0.2167 -1.2374 -0.4716
  196DOPC   H4S24260   1.966   2.375   3.726  0.9316 -2.9151 -1.6606
  196DOPC   C2524261   1.878   2.577   3.701  0.6278  0.3318 -0.6078
  196DOPC   H5R24262   1.831   2.639   3.622 -0.0197 -0.2503 -0.6826
  196DOPC   H5S24263   1.979   2.618   3.722  0.7774 -0.5054  0.4379
  196DOPC   C2624264   1.781   2.573   3.822 -0.7349 -0.2604  0.7774
  196DOPC   H6R24265   1.701   2.499   3.800 -1.3440  0.6520 -0.2199
  196DOPC   H6S24266   1.728   2.669   3.836 -2.0924 -1.1141  1.7368
  196DOPC   C2724267   1.845   2.526   3.960 -0.3387 -0.6594  0.9242
  196DOPC   H7R24268   1.899   2.613   4.004 -1.6084  0.7477 -0.1636
  196DOPC   H7S24269   1.919   2.449   3.929  0.0742  0.3094 -0.6922
  196DOPC   C2824270   1.731   2.486   4.056 -0.6190  0.7783  0.0171
  196DOPC   H8R24271   1.790   2.446   4.141  1.5240  3.5654 -0.0133
  196DOPC   H8S24272   1.681   2.405   3.999  0.8479  0.0587 -0.3009
  196DOPC   C2924273   1.633   2.595   4.087 -0.2668 -0.0423 -0.6964
  196DOPC   H9R24274   1.582   2.633   3.997 -1.6810 -2.3072 -0.9089
  196DOPC  C21024275   1.598   2.635   4.212  0.5986 -0.1707  0.3240
  196DOPC  H10R24276   1.535   2.724   4.224 -0.0551 -0.3641 -1.3798
  196DOPC  C21124277   1.654   2.588   4.347 -0.2554 -0.6487  0.7941
  196DOPC  H11R24278   1.759   2.551   4.338  0.0317  0.1630  0.7014
  196DOPC  H11S24279   1.592   2.510   4.396 -1.2933 -0.1022  0.3826
  196DOPC  C21224280   1.674   2.707   4.447 -0.1038  0.1931  0.4678
  196DOPC  H12R24281   1.704   2.675   4.549 -1.9883  2.2196  1.7605
  196DOPC  H12S24282   1.571   2.748   4.448  0.0208  0.5108  0.3049
  196DOPC  C21324283   1.770   2.822   4.396  1.0252  0.5370  0.3986
  196DOPC  H13R24284   1.747   2.846   4.290 -0.6859  1.3730  0.9159
  196DOPC  H13S24285   1.870   2.774   4.400 -0.0313 -1.8583 -0.1473
  196DOPC  C21424286   1.759   2.952   4.473  0.0855  0.2043 -0.0211
  196DOPC  H14R24287   1.666   3.010   4.453  0.0752  0.4181  0.6214
  196DOPC  H14S24288   1.837   3.022   4.437  0.2780  1.4963  2.6234
  196DOPC  C21524289   1.775   2.936   4.617  0.5498  0.3396 -0.5110
  196DOPC  H15R24290   1.865   2.872   4.628  0.9115  0.8070 -0.7271
  196DOPC  H15S24291   1.684   2.899   4.670  0.8725  1.7744  1.1585
  196DOPC  C21624292   1.806   3.076   4.678 -0.3190 -0.7007 -0.5148
  196DOPC  H16R24293   1.729   3.154   4.670 -1.4980 -1.7462  0.2341
  196DOPC  H16S24294   1.888   3.106   4.609  0.1528 -0.5778  0.0889
  196DOPC  C21724295   1.853   3.061   4.824 -0.0510 -0.1623 -0.5430
  196DOPC  H17R24296   1.933   2.984   4.826 -1.1133 -1.2796  0.0406
  196DOPC  H17S24297   1.772   3.024   4.890  0.9220 -0.8118  0.3354
  196DOPC  C21824298   1.907   3.197   4.867 -0.6178 -0.2431 -0.0502
  196DOPC  H18R24299   1.836   3.280   4.848 -0.6231 -0.1433  0.3973
  196DOPC  H18S24300   2.009   3.222   4.829  0.3820  1.1285  3.1846
  196DOPC  H18T24301   1.913   3.190   4.977  1.1191 -1.2795 -0.1598
  196DOPC   C3324302   1.308   1.933   3.654  0.0398  0.4419 -0.0671
  196DOPC   H3X24303   1.259   1.839   3.622 -0.2534  0.1964  1.0473
  196DOPC   H3Y24304   1.272   2.009   3.580 -1.2273 -0.5018 -0.4456
  196DOPC   C3424305   1.245   1.967   3.791 -0.2697 -0.5544  0.3748
  196DOPC   H4X24306   1.137   1.973   3.766  0.0996  1.0457 -1.0057
  196DOPC   H4Y24307   1.257   2.072   3.823  0.1910 -0.5278  0.1371
  196DOPC   C3524308   1.286   1.872   3.905  0.2606  0.2052 -0.6378
  196DOPC   H5X24309   1.387   1.897   3.946 -0.7211 -0.0256  2.1838
  196DOPC   H5Y24310   1.289   1.778   3.845  0.1256 -1.3367  1.6322
  196DOPC   C3624311   1.193   1.871   4.021 -0.8979  0.0773  0.0883
  196DOPC   H6X24312   1.092   1.858   3.977 -0.7272 -1.1440  0.0159
  196DOPC   H6Y24313   1.202   1.783   4.087  0.1701 -0.9608 -1.3762
  196DOPC   C3724314   1.191   1.996   4.116 -0.4051 -0.3215  0.7681
  196DOPC   H7X24315   1.289   2.005   4.169  0.0447 -0.6551  0.0132
  196DOPC   H7Y24316   1.178   2.094   4.065  0.8778 -1.2413 -1.4755
  196DOPC   C3824317   1.086   1.982   4.229  0.3316 -0.2666  0.8052
  196DOPC   H8X24318   1.088   2.077   4.287  0.1890 -0.1657  0.6494
  196DOPC   H8Y24319   1.119   1.894   4.288  1.8992 -1.1254 -1.2425
  196DOPC   C3924320   0.946   1.969   4.191  0.0859  0.6298 -0.1516
  196DOPC   H9X24321   0.921   2.042   4.112 -0.4034  1.5821  0.8658
  196DOPC  C31024322   0.850   1.891   4.247 -0.3262  0.3437  0.3688
  196DOPC  H10X24323   0.753   1.874   4.199 -0.8489 -0.8421  1.7792
  196DOPC  C31124324   0.880   1.805   4.368 -0.0514 -0.1355 -0.9214
  196DOPC  H11X24325   0.797   1.806   4.441  1.2195 -1.1586  0.6107
  196DOPC  H11Y24326   0.969   1.830   4.430 -1.2971 -2.3823  2.0165
  196DOPC  C31224327   0.893   1.666   4.310  0.6793 -0.1283 -0.0171
  196DOPC  H12X24328   0.980   1.660   4.241  0.6800 -1.7119  0.1016
  196DOPC  H12Y24329   0.799   1.645   4.256 -0.0798  0.7737  0.9011
  196DOPC  C31324330   0.912   1.569   4.414  0.4638  0.3983 -0.2255
  196DOPC  H13X24331   0.978   1.619   4.488 -0.0586 -0.4883  0.8864
  196DOPC  H13Y24332   0.820   1.549   4.473  0.3908  0.5104 -0.3024
  196DOPC  C31424333   0.986   1.444   4.368  0.0641 -0.1335  0.1353
  196DOPC  H14X24334   0.949   1.398   4.274  0.9125 -1.1838  0.2950
  196DOPC  H14Y24335   1.093   1.468   4.354  0.5226 -1.2050  1.5930
  196DOPC  C31524336   0.984   1.333   4.472  0.3495 -0.0714  0.6752
  196DOPC  H15X24337   1.029   1.252   4.409  0.0862  1.5902 -1.7850
  196DOPC  H15Y24338   0.882   1.303   4.503 -0.1944  2.7677  1.8932
  196DOPC  C31624339   1.051   1.371   4.605  0.1901 -0.6048  0.3365
  196DOPC  H16X24340   1.142   1.429   4.578 -0.4664 -0.2467 -1.1778
  196DOPC  H16Y24341   0.978   1.432   4.662 -0.8105 -1.1937 -0.2940
  196DOPC  C31724342   1.090   1.256   4.696 -0.3302 -0.0790  0.5631
  196DOPC  H17X24343   1.115   1.284   4.801 -0.1722 -1.8729  1.0382
  196DOPC  H17Y24344   1.007   1.184   4.689  0.0942 -0.3996 -2.6052
  196DOPC  C31824345   1.214   1.190   4.645 -0.3868  0.3970  0.0951
  196DOPC  H18X24346   1.299   1.261   4.649 -0.5193  0.5347  3.6562
  196DOPC  H18Y24347   1.242   1.123   4.729  2.4718  2.4209  0.8909
  196DOPC  H18Z24348   1.198   1.142   4.546 -0.2402 -1.5578  0.9650
  197DOPC     N24349   1.493   6.924   3.034  0.0449  0.2586  0.9409
  197DOPC   C1224350   1.563   6.923   3.171  0.1730 -0.4189 -0.8093
  197DOPC  H12A24351   1.635   6.843   3.167  0.0229 -0.5169 -2.6714
  197DOPC  H12B24352   1.491   6.909   3.249  0.0569  1.2188 -0.5784
  197DOPC   C1324353   1.594   6.919   2.924 -0.6313 -0.0011 -0.0773
  197DOPC  H13A24354   1.663   7.000   2.943 -2.0991  1.5461 -1.1146
  197DOPC  H13B24355   1.646   6.824   2.930  1.6506  1.2649  2.9026
  197DOPC  H13C24356   1.553   6.931   2.825 -1.8569 -2.6283  0.0289
  197DOPC   C1424357   1.401   7.044   3.020  0.3068  0.1758 -0.5307
  197DOPC  H14A24358   1.320   7.025   2.952  0.1979  0.9606 -0.6191
  197DOPC  H14B24359   1.373   7.066   3.122  2.3829 -0.3424  0.2080
  197DOPC  H14C24360   1.470   7.116   2.981  0.2443  1.1819  1.1178
  197DOPC   C1524361   1.413   6.799   3.018  0.2624  0.3676  0.7164
  197DOPC  H15A24362   1.335   6.786   3.091  1.0915 -0.7490  1.4358
  197DOPC  H15B24363   1.474   6.710   3.017  0.3695  0.4431 -0.0147
  197DOPC  H15C24364   1.357   6.805   2.926  0.9931  0.2153  0.2529
  197DOPC   C1124365   1.634   7.054   3.218  0.4860  0.0330 -0.0848
  197DOPC  H11A24366   1.568   7.143   3.208 -1.5030 -1.3138  0.4556
  197DOPC  H11B24367   1.640   7.045   3.328 -0.8981 -1.5592 -0.1003
  197DOPC     P24368   1.880   6.976   3.219 -0.1144 -0.4494  0.6717
  197DOPC   O1324369   1.991   6.988   3.124 -0.1150 -0.4132 -0.1316
  197DOPC   O1424370   1.838   6.840   3.256  0.1397 -0.1412 -0.0207
  197DOPC   O1224371   1.759   7.064   3.163 -0.8559  0.0574 -0.4803
  197DOPC   O1124372   1.926   7.058   3.348  0.1134  0.0014 -0.7219
  197DOPC    C124373   1.929   7.199   3.356  0.1063  0.0496  0.0317
  197DOPC    HA24374   1.828   7.245   3.361  0.3210  0.7628 -1.5392
  197DOPC    HB24375   1.972   7.248   3.266  1.1309  1.7864  1.4076
  197DOPC    C224376   2.006   7.251   3.478  0.3217  0.0301  0.0064
  197DOPC    HS24377   2.111   7.237   3.445  0.4688  2.0150 -0.4726
  197DOPC   O2124378   1.982   7.179   3.601 -0.1286  0.4466  0.4155
  197DOPC   C2124379   2.045   7.071   3.627  0.2236 -0.0011 -0.2940
  197DOPC   O2224380   2.130   7.017   3.553  0.0109  0.4286  0.0192
  197DOPC   C2224381   1.998   7.007   3.760 -0.0328  0.2535 -0.3179
  197DOPC   H2R24382   1.965   6.906   3.727 -0.8198  0.6979 -0.9588
  197DOPC   H2S24383   1.918   7.068   3.809  0.2394  0.7823 -0.5242
  197DOPC    C324384   1.998   7.405   3.497  1.2727  0.1493  0.0932
  197DOPC    HX24385   1.897   7.435   3.533  1.6970 -0.1791  1.6355
  197DOPC    HY24386   2.002   7.448   3.395 -0.8015 -2.6525 -1.3143
  197DOPC   O3124387   2.078   7.473   3.593 -0.2073 -0.0315 -0.3289
  197DOPC   C3124388   2.212   7.480   3.578 -0.2538 -0.9332 -0.1484
  197DOPC   O3224389   2.267   7.424   3.483  0.4844  0.1973 -0.0829
  197DOPC   C3224390   2.267   7.554   3.697 -0.4170  0.0349 -0.6223
  197DOPC   H2X24391   2.218   7.654   3.693 -0.8406 -0.2045 -2.8241
  197DOPC   H2Y24392   2.248   7.506   3.795  1.4903  0.8739  0.2148
  197DOPC   C2324393   2.119   6.979   3.849  0.4574  0.1236 -0.9766
  197DOPC   H3R24394   2.172   7.067   3.891  1.3584 -0.8394 -0.0487
  197DOPC   H3S24395   2.189   6.924   3.783  0.3179  2.1224 -2.8892
  197DOPC   C2424396   2.085   6.879   3.959  1.1541 -0.4694  0.4957
  197DOPC   H4R24397   2.027   6.795   3.918 -1.5691  1.2391  0.6036
  197DOPC   H4S24398   2.011   6.934   4.021  0.7508 -0.3638 -0.0709
  197DOPC   C2524399   2.209   6.837   4.038  0.7421 -0.4930 -0.4118
  197DOPC   H5R24400   2.256   6.929   4.079 -2.3189  0.3730  1.5180
  197DOPC   H5S24401   2.287   6.790   3.974  1.2105 -1.5553  0.9098
  197DOPC   C2624402   2.171   6.742   4.155  0.2709  0.0199  0.7129
  197DOPC   H6R24403   2.127   6.650   4.112 -0.4506  0.6071  0.1549
  197DOPC   H6S24404   2.093   6.784   4.222 -2.6268 -0.8308 -1.9081
  197DOPC   C2724405   2.304   6.695   4.227  0.0451  0.0706 -0.2487
  197DOPC   H7R24406   2.335   6.765   4.308  0.2607 -0.8551  0.4858
  197DOPC   H7S24407   2.387   6.699   4.153  1.1839  0.7100  1.0127
  197DOPC   C2824408   2.282   6.543   4.274 -0.6574  0.2126 -0.3758
  197DOPC   H8R24409   2.385   6.504   4.293  0.7324  3.6584 -0.2489
  197DOPC   H8S24410   2.246   6.477   4.192  2.0177  0.2609 -1.7084
  197DOPC   C2924411   2.187   6.528   4.382 -0.2647 -0.3659 -0.6098
  197DOPC   H9R24412   2.081   6.506   4.366 -0.5404  1.1167 -0.9380
  197DOPC  C21024413   2.220   6.550   4.515 -0.2167 -0.2243  0.4132
  197DOPC  H10R24414   2.148   6.540   4.598  1.3353  0.4633  1.8974
  197DOPC  C21124415   2.353   6.594   4.571 -0.3023  0.4438 -0.1823
  197DOPC  H11R24416   2.356   6.704   4.589  1.5870  0.5151 -0.7168
  197DOPC  H11S24417   2.431   6.576   4.494 -1.2417 -1.0613 -0.8372
  197DOPC  C21224418   2.388   6.511   4.698  0.0920  0.6279  0.1609
  197DOPC  H12R24419   2.395   6.404   4.668  0.6061  0.8482 -0.5394
  197DOPC  H12S24420   2.299   6.526   4.763 -0.1180 -0.9874  0.2807
  197DOPC  C21324421   2.527   6.544   4.762  1.0232 -0.2497 -0.3316
  197DOPC  H13R24422   2.557   6.641   4.717 -0.8810  0.3827 -0.3250
  197DOPC  H13S24423   2.603   6.476   4.718  0.0961  0.4398 -3.2599
  197DOPC  C21424424   2.531   6.557   4.905 -0.2350  0.0357  0.4045
  197DOPC  H14R24425   2.511   6.460   4.957 -0.8866  0.6893  1.4139
  197DOPC  H14S24426   2.460   6.637   4.934 -2.4015 -1.3115 -0.8458
  197DOPC  C21524427   2.668   6.600   4.950  0.1999 -0.0152 -0.0239
  197DOPC  H15R24428   2.704   6.689   4.894 -2.2190  0.2256 -1.3240
  197DOPC  H15S24429   2.743   6.526   4.915 -0.0238 -0.8126  1.1262
  197DOPC  C21624430   2.673   6.616   5.103  0.3250 -0.1655 -0.5629
  197DOPC  H16R24431   2.639   6.518   5.143 -0.4770 -0.8454 -2.7657
  197DOPC  H16S24432   2.603   6.698   5.129  0.2324  0.6647 -3.1194
  197DOPC  C21724433   2.813   6.653   5.145  0.1511 -0.0969  0.3229
  197DOPC  H17R24434   2.843   6.754   5.111  0.6005 -0.6610 -1.0332
  197DOPC  H17S24435   2.891   6.587   5.101  0.3813  1.6649 -2.1396
  197DOPC  C21824436   2.841   6.647   5.300  0.1122  0.3796 -1.1423
  197DOPC  H18R24437   2.771   6.715   5.352 -1.3765 -2.3674  0.7375
  197DOPC  H18S24438   2.947   6.667   5.329 -0.7361  1.1241  1.7842
  197DOPC  H18T24439   2.827   6.543   5.337  0.7260  0.6398 -0.1297
  197DOPC   C3324440   2.419   7.583   3.691  0.2485 -0.2577 -0.3526
  197DOPC   H3X24441   2.456   7.645   3.607 -0.5303 -0.3339 -0.7627
  197DOPC   H3Y24442   2.473   7.485   3.694 -0.2955 -0.5696  2.8790
  197DOPC   C3424443   2.461   7.671   3.808  0.0117 -0.1392  0.1416
  197DOPC   H4X24444   2.422   7.627   3.902  0.0773  0.4643  0.4535
  197DOPC   H4Y24445   2.424   7.775   3.803  0.3480  0.0861  1.7033
  197DOPC   C3524446   2.619   7.672   3.832 -0.2669  0.1886 -0.1191
  197DOPC   H5X24447   2.647   7.736   3.746  1.1318 -0.3012 -0.0493
  197DOPC   H5Y24448   2.658   7.571   3.806 -1.7232  0.0895 -2.1009
  197DOPC   C3624449   2.668   7.725   3.965  0.3555  0.2254 -0.0383
  197DOPC   H6X24450   2.650   7.654   4.048 -0.5039 -0.9674 -1.1946
  197DOPC   H6Y24451   2.775   7.747   3.943  0.3249  2.2704  1.6181
  197DOPC   C3724452   2.608   7.857   4.010  0.0677  0.3604  0.3670
  197DOPC   H7X24453   2.629   7.922   3.922  1.0816 -0.0525  0.2797
  197DOPC   H7Y24454   2.498   7.851   4.016  0.0369  1.7143  1.8071
  197DOPC   C3824455   2.666   7.909   4.138  0.5933  0.2851 -0.3703
  197DOPC   H8X24456   2.656   8.019   4.152  2.4443  0.3350  0.9605
  197DOPC   H8Y24457   2.775   7.887   4.130  1.0531  2.0144  0.6839
  197DOPC   C3924458   2.610   7.829   4.247  0.0414 -0.3698 -1.6628
  197DOPC   H9X24459   2.505   7.798   4.236  0.5697 -2.6249 -0.9614
  197DOPC  C31024460   2.676   7.792   4.358  0.2399  0.2670 -0.7698
  197DOPC  H10X24461   2.623   7.742   4.440  2.6280  1.2294  1.4971
  197DOPC  C31124462   2.819   7.835   4.402 -0.2260  0.3875  0.3639
  197DOPC  H11X24463   2.855   7.905   4.323 -1.9659 -1.1179 -1.9019
  197DOPC  H11Y24464   2.888   7.748   4.400 -0.5740  0.0462 -3.0047
  197DOPC  C31224465   2.831   7.897   4.537 -0.4547 -0.3246  0.6427
  197DOPC  H12X24466   2.751   7.974   4.542 -0.3396 -0.1271 -0.3824
  197DOPC  H12Y24467   2.932   7.942   4.547  0.8160 -2.8389  0.1280
  197DOPC  C31324468   2.809   7.803   4.653 -0.4832 -0.0452 -0.4439
  197DOPC  H13X24469   2.705   7.764   4.648 -1.3183  2.1259 -1.8177
  197DOPC  H13Y24470   2.886   7.724   4.644 -0.9541 -0.4157 -1.3901
  197DOPC  C31424471   2.840   7.884   4.784 -0.7919  0.1676 -0.4630
  197DOPC  H14X24472   2.950   7.893   4.773 -0.8503  1.1963 -0.3173
  197DOPC  H14Y24473   2.788   7.982   4.780 -0.8990  0.0573 -2.2152
  197DOPC  C31524474   2.799   7.790   4.903 -0.1748  0.0508 -0.0861
  197DOPC  H15X24475   2.856   7.696   4.893  1.3554  1.0366 -1.0908
  197DOPC  H15Y24476   2.689   7.773   4.903 -0.3623  1.1140  0.3286
  197DOPC  C31624477   2.839   7.840   5.043  0.1377 -0.0399  0.0420
  197DOPC  H16X24478   2.833   7.949   5.023 -0.1036 -0.6491 -4.0597
  197DOPC  H16Y24479   2.760   7.820   5.119 -0.6335 -0.7714 -0.9336
  197DOPC  C31724480   2.979   7.806   5.081 -0.0721  0.2729 -0.1216
  197DOPC  H17X24481   3.053   7.817   4.999  3.0546 -1.8961  2.1528
  197DOPC  H17Y24482   3.013   7.886   5.151 -0.0234  1.2981 -1.2866
  197DOPC  C31824483   2.998   7.674   5.157  0.1130  0.3481  0.0067
  197DOPC  H18X24484   2.976   7.586   5.094 -0.7950 -0.3485  1.2479
  197DOPC  H18Y24485   3.101   7.655   5.195  0.6323 -1.1101 -1.9703
  197DOPC  H18Z24486   2.923   7.666   5.238 -0.1033 -1.0052 -0.3044
  198DOPC     N24487   5.977   7.104   2.733  0.1573 -0.1185 -0.4669
  198DOPC   C1224488   6.035   7.130   2.868 -0.2632  0.4540  0.0117
  198DOPC  H12A24489   6.039   7.033   2.915  2.8100  0.7771  0.6188
  198DOPC  H12B24490   5.973   7.201   2.921 -2.3897  0.0007 -1.7392
  198DOPC   C1324491   5.838   7.060   2.750 -1.0139  0.2741  0.1389
  198DOPC  H13A24492   5.801   7.044   2.650  1.0271 -0.8306 -0.4938
  198DOPC  H13B24493   5.824   6.971   2.810 -1.3568 -0.2369 -0.6801
  198DOPC  H13C24494   5.772   7.137   2.788 -0.8270  0.9729 -0.9041
  198DOPC   C1424495   6.051   7.002   2.659 -0.1523 -0.2220  0.7824
  198DOPC  H14A24496   6.001   6.965   2.571  2.0448 -2.9088  0.5360
  198DOPC  H14B24497   6.148   7.042   2.631  0.4310 -2.6242 -0.8980
  198DOPC  H14C24498   6.060   6.912   2.718 -2.0309 -0.1630  1.2187
  198DOPC   C1524499   5.970   7.235   2.656  0.6145 -0.2829  0.9913
  198DOPC  H15A24500   5.903   7.302   2.707  0.8535  0.1337  0.7660
  198DOPC  H15B24501   5.943   7.223   2.552 -0.4065 -0.5008  1.2711
  198DOPC  H15C24502   6.073   7.270   2.655  0.6562 -0.4057  1.0530
  198DOPC   C1124503   6.181   7.184   2.876 -0.1644  0.2381 -0.0506
  198DOPC  H11A24504   6.187   7.191   2.987  1.4925  0.0326 -0.1112
  198DOPC  H11B24505   6.259   7.111   2.847 -0.3303 -0.5049  1.2768
  198DOPC     P24506   6.228   7.455   2.865 -0.4162  0.2357 -0.0187
  198DOPC   O1324507   6.156   7.546   2.774 -0.2523  0.5193 -0.1587
  198DOPC   O1424508   6.372   7.480   2.878 -0.2588  0.3951  0.2694
  198DOPC   O1224509   6.208   7.307   2.809 -0.1258 -0.2947 -0.3186
  198DOPC   O1124510   6.168   7.449   3.008 -0.0881 -0.6041  0.1521
  198DOPC    C124511   6.111   7.565   3.061 -0.3850 -0.1815 -0.2990
  198DOPC    HA24512   6.024   7.601   3.003 -0.6657  0.5301  0.5284
  198DOPC    HB24513   6.194   7.639   3.062 -0.1048 -0.4876 -0.7186
  198DOPC    C224514   6.048   7.556   3.201 -0.4135  0.0209 -0.1931
  198DOPC    HS24515   5.997   7.655   3.203 -0.7454 -0.1260 -0.8800
  198DOPC   O2124516   6.143   7.533   3.307 -1.0920 -0.0493  0.2631
  198DOPC   C2124517   6.225   7.633   3.324  0.0588 -0.2541 -0.4576
  198DOPC   O2224518   6.218   7.733   3.262  0.3293 -0.0688  0.1892
  198DOPC   C2224519   6.335   7.605   3.426 -0.9850  0.5969  0.3281
  198DOPC   H2R24520   6.426   7.641   3.373 -0.9270  2.3072  1.5178
  198DOPC   H2S24521   6.336   7.498   3.455  1.6502  0.7256  0.9645
  198DOPC    C324522   5.946   7.441   3.194  0.3061 -0.2730  0.1196
  198DOPC    HX24523   6.004   7.347   3.182  0.0486 -0.2741 -1.2270
  198DOPC    HY24524   5.881   7.454   3.105  2.7586  1.2055 -1.5647
  198DOPC   O3124525   5.869   7.436   3.321 -0.5844 -0.1281 -0.3436
  198DOPC   C3124526   5.768   7.520   3.329 -0.3007  0.5400  0.2592
  198DOPC   O3224527   5.730   7.600   3.248 -0.8210  0.0510  0.3273
  198DOPC   C3224528   5.701   7.511   3.470  0.5119  0.9261 -0.2274
  198DOPC   H2X24529   5.733   7.589   3.542  2.3734 -1.1191  1.2978
  198DOPC   H2Y24530   5.593   7.522   3.447  0.3985 -0.3047 -0.3669
  198DOPC   C2324531   6.330   7.700   3.551  0.3241  0.2336  0.1532
  198DOPC   H3R24532   6.294   7.797   3.510  0.7378  0.7812  1.0557
  198DOPC   H3S24533   6.430   7.720   3.595 -0.4027  0.1691  1.8799
  198DOPC   C2424534   6.238   7.655   3.663 -0.3436  0.0566  0.1963
  198DOPC   H4R24535   6.242   7.728   3.747 -1.4977 -0.4502  0.7179
  198DOPC   H4S24536   6.282   7.559   3.698 -0.3944 -0.9373 -2.2576
  198DOPC   C2524537   6.090   7.628   3.629 -0.0354  0.1886  0.7662
  198DOPC   H5R24538   6.077   7.534   3.572  1.0690  0.5208 -0.0858
  198DOPC   H5S24539   6.047   7.706   3.563  2.4409  0.4207 -0.7256
  198DOPC   C2624540   5.999   7.628   3.747 -0.1314  0.1050 -0.5771
  198DOPC   H6R24541   6.053   7.594   3.838  0.9247  0.1844 -1.1561
  198DOPC   H6S24542   5.915   7.560   3.721 -0.2325  0.6445 -1.7197
  198DOPC   C2724543   5.949   7.772   3.774  0.0783 -0.1721  0.0828
  198DOPC   H7R24544   5.881   7.804   3.692 -0.3413  1.5273  1.0403
  198DOPC   H7S24545   6.043   7.831   3.770 -0.6817  0.9970 -1.7707
  198DOPC   C2824546   5.892   7.796   3.904  0.1567 -0.1083 -0.3577
  198DOPC   H8R24547   5.865   7.903   3.913 -1.2548 -0.5553  1.3726
  198DOPC   H8S24548   5.954   7.781   3.995 -2.5338  0.2223  1.6564
  198DOPC   C2924549   5.755   7.734   3.910 -0.1971  0.4465 -0.4233
  198DOPC   H9R24550   5.669   7.796   3.878  0.0628  0.6741 -0.6836
  198DOPC  C21024551   5.728   7.604   3.951 -0.1737  0.5507  0.5542
  198DOPC  H10R24552   5.626   7.564   3.952 -0.2571  0.7506  0.2646
  198DOPC  C21124553   5.822   7.505   4.008 -0.3203  0.1550 -0.6573
  198DOPC  H11R24554   5.926   7.542   4.018 -0.3329  0.2446 -0.8522
  198DOPC  H11S24555   5.817   7.409   3.952  1.0527  0.5570 -1.5305
  198DOPC  C21224556   5.779   7.466   4.153 -0.5395 -0.6928 -0.0728
  198DOPC  H12R24557   5.837   7.374   4.176  1.8968  1.0571  1.3350
  198DOPC  H12S24558   5.671   7.439   4.158 -0.7301 -0.4681 -2.1324
  198DOPC  C21324559   5.803   7.566   4.268  0.3479  0.1244 -0.0995
  198DOPC  H13R24560   5.764   7.529   4.365 -1.5540  2.2257  0.0234
  198DOPC  H13S24561   5.752   7.661   4.240 -0.1386 -0.7177 -2.3010
  198DOPC  C21424562   5.952   7.608   4.280 -0.0180 -0.4075  0.4479
  198DOPC  H14R24563   5.978   7.670   4.192 -1.2203  0.6807  0.8202
  198DOPC  H14S24564   6.023   7.523   4.272 -0.9344 -1.4309  2.2465
  198DOPC  C21524565   5.988   7.674   4.418  0.0001  0.4227  0.2337
  198DOPC  H15R24566   5.979   7.591   4.491  0.5484  0.7198  0.6447
  198DOPC  H15S24567   5.919   7.758   4.442 -0.6574  0.1048 -0.4934
  198DOPC  C21624568   6.126   7.727   4.417  0.4509 -0.3382  0.1411
  198DOPC  H16R24569   6.152   7.814   4.354  1.2420  0.7381  1.8682
  198DOPC  H16S24570   6.196   7.652   4.373  2.4846  0.9859  0.9431
  198DOPC  C21724571   6.175   7.745   4.558 -0.5004 -0.0485 -0.7971
  198DOPC  H17R24572   6.153   7.652   4.615 -0.7260 -0.0543 -0.8906
  198DOPC  H17S24573   6.119   7.826   4.610 -0.0199  0.7921 -1.5516
  198DOPC  C21824574   6.327   7.782   4.571  0.4639 -0.3400  0.1871
  198DOPC  H18R24575   6.354   7.859   4.496 -2.1815  0.6020  0.0917
  198DOPC  H18S24576   6.385   7.692   4.542 -0.2001 -0.8302  0.3479
  198DOPC  H18T24577   6.355   7.821   4.671 -2.0600 -0.1765  0.8979
  198DOPC   C3324578   5.734   7.379   3.546 -0.0809 -0.1812  0.3511
  198DOPC   H3X24579   5.843   7.375   3.566  0.2258  0.7128 -1.0352
  198DOPC   H3Y24580   5.704   7.299   3.475 -0.4822 -0.4320  0.7994
  198DOPC   C3424581   5.656   7.367   3.678  0.3361 -0.6366  0.3127
  198DOPC   H4X24582   5.548   7.353   3.655  0.2823  0.7161 -0.3294
  198DOPC   H4Y24583   5.675   7.457   3.739 -1.7752 -0.7094  1.1664
  198DOPC   C3524584   5.693   7.241   3.753  0.6777 -0.2359  0.0127
  198DOPC   H5X24585   5.799   7.246   3.786 -0.0848  1.1967  2.5395
  198DOPC   H5Y24586   5.670   7.147   3.699 -3.5071  0.0549  0.9068
  198DOPC   C3624587   5.597   7.232   3.873 -0.4183  0.2171  0.0785
  198DOPC   H6X24588   5.604   7.331   3.923  2.8784  0.6544 -1.0150
  198DOPC   H6Y24589   5.498   7.219   3.824  0.0630 -0.1045 -0.8349
  198DOPC   C3724590   5.636   7.112   3.963  0.2154  0.3797  0.3390
  198DOPC   H7X24591   5.618   7.021   3.902 -0.5517 -0.2684  1.4815
  198DOPC   H7Y24592   5.745   7.117   3.989  0.8410 -2.6426 -1.3020
  198DOPC   C3824593   5.547   7.105   4.086 -0.2392  0.5905 -0.0418
  198DOPC   H8X24594   5.443   7.104   4.048  0.4061  0.6548 -1.8700
  198DOPC   H8Y24595   5.572   7.194   4.148 -1.3888 -0.8874  2.7491
  198DOPC   C3924596   5.563   6.990   4.175  0.5665  0.1682 -0.1899
  198DOPC   H9X24597   5.527   6.896   4.129  2.9389  1.1876 -4.6940
  198DOPC  C31024598   5.615   6.987   4.301  0.0977 -0.1876 -0.2075
  198DOPC  H10X24599   5.617   6.888   4.350 -0.3057  0.6639  1.6033
  198DOPC  C31124600   5.668   7.103   4.381  0.0246 -0.6244 -0.0532
  198DOPC  H11X24601   5.629   7.092   4.485  0.0379 -3.0975 -0.2347
  198DOPC  H11Y24602   5.634   7.198   4.335  3.0289 -0.6578 -2.6162
  198DOPC  C31224603   5.822   7.120   4.388 -0.0938  0.1675 -0.0477
  198DOPC  H12X24604   5.867   7.162   4.295 -0.1702 -1.0490 -0.6468
  198DOPC  H12Y24605   5.868   7.019   4.392 -1.1442 -0.3162  0.2717
  198DOPC  C31324606   5.879   7.202   4.504  0.0458  0.1386  0.4691
  198DOPC  H13X24607   5.852   7.309   4.487 -0.2839 -0.1770 -1.0930
  198DOPC  H13Y24608   5.834   7.170   4.601 -1.7977  2.0941  0.3241
  198DOPC  C31424609   6.031   7.194   4.501  0.2862 -0.8591  0.4220
  198DOPC  H14X24610   6.065   7.096   4.542 -0.8245 -1.3310  0.2581
  198DOPC  H14Y24611   6.062   7.222   4.398 -3.0850  0.8538 -0.2432
  198DOPC  C31524612   6.100   7.306   4.588  0.3314  0.8596  0.3120
  198DOPC  H15X24613   6.065   7.300   4.694  0.5872 -2.0918  0.3145
  198DOPC  H15Y24614   6.067   7.401   4.540 -2.9041 -0.3290 -0.1091
  198DOPC  C31624615   6.257   7.284   4.580  1.1767 -0.0985  0.3946
  198DOPC  H16X24616   6.312   7.348   4.652  3.1813 -0.3238 -0.8355
  198DOPC  H16Y24617   6.273   7.175   4.596  0.2360 -0.3530 -0.3178
  198DOPC  C31724618   6.325   7.324   4.449  1.3426  0.1504 -0.1176
  198DOPC  H17X24619   6.290   7.256   4.368  0.2291 -0.0480  0.5130
  198DOPC  H17Y24620   6.301   7.428   4.416 -0.2838 -0.5956 -1.4656
  198DOPC  C31824621   6.476   7.314   4.456 -0.1332  0.0073 -0.1370
  198DOPC  H18X24622   6.516   7.319   4.352  0.4079 -0.8320  0.0246
  198DOPC  H18Y24623   6.512   7.400   4.516 -2.1308  0.2155  0.8360
  198DOPC  H18Z24624   6.516   7.217   4.494 -2.2414 -1.0980 -0.5715
  199DOPC     N24625   7.327   0.287   3.118 -0.1323  0.1597  0.1713
  199DOPC   C1224626   7.387   0.339   3.252  1.1158  0.3986  0.6138
  199DOPC  H12A24627   7.474   0.395   3.220 -0.4587  1.4054 -2.3110
  199DOPC  H12B24628   7.411   0.252   3.312 -2.1239 -1.2727 -0.3137
  199DOPC   C1324629   7.332   0.394   3.019 -0.8530  0.1829 -0.2774
  199DOPC  H13A24630   7.294   0.358   2.925 -2.4185  2.9778 -0.8366
  199DOPC  H13B24631   7.274   0.478   3.057  0.6666  0.1610  2.3596
  199DOPC  H13C24632   7.431   0.428   2.995 -1.5708  0.8090 -2.6360
  199DOPC   C1424633   7.183   0.245   3.142  0.1120 -0.4936  0.1819
  199DOPC  H14A24634   7.176   0.173   3.222 -0.1080  0.4225  1.0066
  199DOPC  H14B24635   7.112   0.322   3.169 -1.7995 -2.6064  1.5175
  199DOPC  H14C24636   7.137   0.204   3.053 -0.4192 -2.8953  1.4920
  199DOPC   C1524637   7.406   0.165   3.069  0.3444 -1.0874 -0.1712
  199DOPC  H15A24638   7.509   0.189   3.045 -0.1762  1.7983  0.1303
  199DOPC  H15B24639   7.363   0.127   2.978 -0.0358  1.0900 -0.9587
  199DOPC  H15C24640   7.399   0.088   3.145  0.0715 -0.7164  0.1857
  199DOPC   C1124641   7.302   0.435   3.335  0.1291  0.0004  0.3863
  199DOPC  H11A24642   7.218   0.371   3.368  0.1647 -0.4630 -0.3968
  199DOPC  H11B24643   7.357   0.455   3.430  0.1810  0.9507  0.1660
  199DOPC     P24644   7.115   0.610   3.271 -0.1554  0.2480 -0.0982
  199DOPC   O1324645   7.020   0.499   3.288  0.3266  0.3988  0.1370
  199DOPC   O1424646   7.094   0.705   3.163  0.4658 -0.0428  0.2376
  199DOPC   O1224647   7.263   0.558   3.264 -0.2000  0.0007  0.1409
  199DOPC   O1124648   7.119   0.689   3.403  0.1128 -0.2045 -0.6055
  199DOPC    C124649   7.011   0.716   3.492  0.6137  0.7276  0.1882
  199DOPC    HA24650   6.938   0.632   3.492  0.2402  0.9686 -2.6057
  199DOPC    HB24651   6.954   0.800   3.448 -2.1740 -2.0207 -1.8431
  199DOPC    C224652   7.054   0.733   3.645 -0.5262 -0.0430 -0.1443
  199DOPC    HS24653   7.135   0.809   3.637 -0.6224  0.0900  0.1588
  199DOPC   O2124654   7.093   0.607   3.703 -0.1271 -0.5721 -0.3903
  199DOPC   C2124655   7.213   0.569   3.693  0.0964  0.1494 -0.0047
  199DOPC   O2224656   7.311   0.635   3.668 -0.0703  0.0851 -0.7994
  199DOPC   C2224657   7.219   0.420   3.728  0.6878 -0.0855 -0.5022
  199DOPC   H2R24658   7.161   0.370   3.647  1.2710 -2.9810  0.7558
  199DOPC   H2S24659   7.168   0.402   3.825  1.0915  0.3709 -0.2017
  199DOPC    C324660   6.932   0.793   3.721  0.3435 -0.0832  0.2009
  199DOPC    HX24661   6.942   0.822   3.827 -0.1013  2.7342 -0.4605
  199DOPC    HY24662   6.858   0.710   3.712  1.2031 -0.7852 -0.6483
  199DOPC   O3124663   6.876   0.902   3.650 -0.1298  0.2038  0.4336
  199DOPC   C3124664   6.919   1.018   3.682 -0.0421  0.2705  0.6473
  199DOPC   O3224665   7.015   1.046   3.753  0.4469  0.3678 -0.0559
  199DOPC   C3224666   6.830   1.118   3.605 -0.3142 -0.2338  0.2799
  199DOPC   H2X24667   6.881   1.213   3.575  1.8966 -0.6830  2.3403
  199DOPC   H2Y24668   6.817   1.057   3.513  2.9303 -1.1310  0.2940
  199DOPC   C2324669   7.359   0.368   3.737  0.5616  0.4062  0.2712
  199DOPC   H3R24670   7.402   0.430   3.818 -0.5741  1.7751 -0.1457
  199DOPC   H3S24671   7.417   0.388   3.644 -0.3299  0.3006 -0.3206
  199DOPC   C2424672   7.358   0.221   3.778 -0.2706  0.4264  0.4576
  199DOPC   H4R24673   7.284   0.145   3.746 -2.1611  1.6589  1.6803
  199DOPC   H4S24674   7.336   0.222   3.887  1.0473  0.5335  0.7404
  199DOPC   C2524675   7.490   0.169   3.738  0.7605  0.0519 -0.2809
  199DOPC   H5R24676   7.556   0.255   3.761  0.2509  1.5184 -3.6217
  199DOPC   H5S24677   7.496   0.144   3.630  1.0597 -0.7947 -0.0759
  199DOPC   C2624678   7.515   0.048   3.828 -0.3602 -0.0724  0.0282
  199DOPC   H6R24679   7.427  -0.018   3.812  0.8938 -1.7582 -0.2555
  199DOPC   H6S24680   7.517   0.088   3.931 -1.1428  0.4566 -0.1518
  199DOPC   C2724681   7.637  -0.042   3.788 -0.3661 -0.0102 -0.2288
  199DOPC   H7R24682   7.726   0.024   3.781 -0.2691 -0.2581 -1.4647
  199DOPC   H7S24683   7.624  -0.074   3.682  0.7870  1.3064 -0.7939
  199DOPC   C2824684   7.655  -0.174   3.871 -0.5103 -0.0632 -0.6124
  199DOPC   H8R24685   7.726  -0.240   3.818  0.0436 -0.5571  0.7306
  199DOPC   H8S24686   7.558  -0.227   3.866  0.0421 -0.9857 -2.2931
  199DOPC   C2924687   7.706  -0.130   4.002  0.4569 -0.8845  0.0816
  199DOPC   H9R24688   7.737  -0.025   4.005 -0.4859 -0.5789  3.4000
  199DOPC  C21024689   7.714  -0.206   4.111  0.0629  0.2741  1.1557
  199DOPC  H10R24690   7.755  -0.152   4.198 -0.9456  1.0243  1.2000
  199DOPC  C21124691   7.674  -0.351   4.132  0.2474 -0.7122  1.3259
  199DOPC  H11R24692   7.739  -0.410   4.064 -0.1049  0.4978 -0.0961
  199DOPC  H11S24693   7.569  -0.365   4.099  0.9015 -0.1747 -1.1653
  199DOPC  C21224694   7.687  -0.398   4.282 -0.0582  0.7508 -0.0634
  199DOPC  H12R24695   7.792  -0.399   4.318 -0.0378 -3.0010  0.0872
  199DOPC  H12S24696   7.656  -0.504   4.282 -1.5118  1.1460  0.2302
  199DOPC  C21324697   7.591  -0.323   4.366  0.2325  0.0504  0.1853
  199DOPC  H13R24698   7.533  -0.401   4.419  1.4677 -0.2122  1.1799
  199DOPC  H13S24699   7.527  -0.251   4.309 -0.4689  0.9108  1.9727
  199DOPC  C21424700   7.662  -0.252   4.484  0.5544 -0.3589  0.6026
  199DOPC  H14R24701   7.728  -0.178   4.435  0.1744 -0.1596  0.3869
  199DOPC  H14S24702   7.733  -0.328   4.523 -0.2213 -2.6733 -2.1587
  199DOPC  C21524703   7.565  -0.193   4.581 -0.2158 -0.1142  0.4204
  199DOPC  H15R24704   7.628  -0.163   4.668 -0.5335  1.9346 -0.0117
  199DOPC  H15S24705   7.485  -0.265   4.609 -1.0264  0.6400  0.0869
  199DOPC  C21624706   7.486  -0.064   4.530  0.1590 -0.0423 -0.2798
  199DOPC  H16R24707   7.424  -0.097   4.444  2.9202 -0.6869 -2.1646
  199DOPC  H16S24708   7.563   0.009   4.497  1.7387 -0.4482  2.2479
  199DOPC  C21724709   7.403   0.007   4.644 -0.1948 -0.8433 -0.5387
  199DOPC  H17R24710   7.411   0.116   4.624  1.9827 -1.1572 -1.7355
  199DOPC  H17S24711   7.464  -0.006   4.736 -0.4603  1.2699 -0.0197
  199DOPC  C21824712   7.260  -0.043   4.657 -1.0695  0.5864  0.3092
  199DOPC  H18R24713   7.203  -0.035   4.562 -2.0199  2.3168  0.9721
  199DOPC  H18S24714   7.202   0.015   4.732  0.5772  2.2494  0.3673
  199DOPC  H18T24715   7.255  -0.152   4.676 -0.5181  0.5151  0.0676
  199DOPC   C3324716   6.692   1.143   3.660  0.7238 -0.0735 -0.0287
  199DOPC   H3X24717   6.705   1.205   3.751  0.1914 -0.9336  0.6457
  199DOPC   H3Y24718   6.652   1.047   3.698 -1.0077  0.3284 -0.7667
  199DOPC   C3424719   6.599   1.201   3.557  0.3028 -0.1038  0.0021
  199DOPC   H4X24720   6.584   1.130   3.473 -0.8952  0.7292 -0.5193
  199DOPC   H4Y24721   6.638   1.297   3.516  1.1123 -0.5951 -0.3915
  199DOPC   C3524722   6.463   1.241   3.625 -0.3063  0.5370  0.1881
  199DOPC   H5X24723   6.489   1.296   3.718  0.5447  0.1159  0.2091
  199DOPC   H5Y24724   6.408   1.151   3.658 -1.0216 -0.2548 -2.7959
  199DOPC   C3624725   6.382   1.330   3.530 -0.2696 -0.4942 -0.3807
  199DOPC   H6X24726   6.392   1.296   3.424 -0.4891 -1.4287 -0.1069
  199DOPC   H6Y24727   6.276   1.311   3.558  0.3788 -2.4770  0.9453
  199DOPC   C3724728   6.423   1.476   3.538  0.0069  0.5400  0.1591
  199DOPC   H7X24729   6.394   1.518   3.637 -2.7820 -3.0357  1.0809
  199DOPC   H7Y24730   6.533   1.475   3.526 -0.1417  0.3083 -1.3960
  199DOPC   C3824731   6.356   1.569   3.434  0.4290 -0.2870  0.5625
  199DOPC   H8X24732   6.246   1.550   3.441 -0.0061  2.1696  1.2410
  199DOPC   H8Y24733   6.383   1.546   3.329  0.5956 -0.5799  0.6679
  199DOPC   C3924734   6.384   1.716   3.460  0.1175  0.4414  0.2917
  199DOPC   H9X24735   6.480   1.750   3.420 -0.5795  2.4502  0.2419
  199DOPC  C31024736   6.304   1.819   3.505 -0.0103  0.5707 -0.8324
  199DOPC  H10X24737   6.343   1.921   3.518  0.2477  0.2686  1.0872
  199DOPC  C31124738   6.163   1.819   3.546  0.0201  0.9866 -0.0318
  199DOPC  H11X24739   6.134   1.773   3.643 -1.3076 -2.0535 -1.7246
  199DOPC  H11Y24740   6.113   1.763   3.463  0.7598  1.6487 -0.9429
  199DOPC  C31224741   6.102   1.963   3.538 -0.1861  0.3042 -0.3540
  199DOPC  H12X24742   5.996   1.950   3.568 -0.0875 -0.5023 -0.3270
  199DOPC  H12Y24743   6.109   2.001   3.434  2.0889  0.6899 -0.1173
  199DOPC  C31324744   6.153   2.072   3.639 -0.2840  0.1316 -0.4583
  199DOPC  H13X24745   6.264   2.067   3.650 -0.0993  1.7497 -1.3029
  199DOPC  H13Y24746   6.110   2.166   3.600 -1.4525 -0.4056 -0.5108
  199DOPC  C31424747   6.092   2.052   3.783  0.5188 -0.7484  0.0100
  199DOPC  H14X24748   5.984   2.078   3.778  0.8176  0.5448  0.1189
  199DOPC  H14Y24749   6.096   1.942   3.804 -0.7180 -0.5167  1.7411
  199DOPC  C31524750   6.180   2.122   3.881 -0.0373  0.3379 -0.5247
  199DOPC  H15X24751   6.174   2.227   3.848 -1.9123  0.4607  0.1250
  199DOPC  H15Y24752   6.286   2.088   3.878  0.0966  0.5668  0.8451
  199DOPC  C31624753   6.141   2.097   4.031 -0.0269 -0.2204 -0.0224
  199DOPC  H16X24754   6.038   2.131   4.049  0.1108 -0.4314  1.2455
  199DOPC  H16Y24755   6.156   1.988   4.051  0.2641 -0.1061  0.4068
  199DOPC  C31724756   6.237   2.171   4.135  0.5264 -0.0915  0.1222
  199DOPC  H17X24757   6.342   2.136   4.121  0.7236  0.8347 -0.8407
  199DOPC  H17Y24758   6.236   2.282   4.133 -2.4532  0.0053  1.7842
  199DOPC  C31824759   6.189   2.143   4.281  0.0328 -0.2672  0.1913
  199DOPC  H18X24760   6.197   2.038   4.315  0.3428  0.6160  3.0759
  199DOPC  H18Y24761   6.250   2.199   4.355 -3.1946  1.3985  1.8062
  199DOPC  H18Z24762   6.085   2.176   4.302 -0.5451 -2.5401  1.2212
  200DOPC     N24763   1.575   1.184   2.831 -0.1870 -0.9738  0.7022
  200DOPC   C1224764   1.459   1.203   2.928  0.1651  0.2701  0.0943
  200DOPC  H12A24765   1.372   1.165   2.878  0.5627 -0.2670 -0.2011
  200DOPC  H12B24766   1.434   1.308   2.931 -2.9856 -0.1972 -3.1014
  200DOPC   C1324767   1.552   1.286   2.717  0.3944 -0.4227 -0.2278
  200DOPC  H13A24768   1.628   1.265   2.643  1.0054  0.9769 -0.0138
  200DOPC  H13B24769   1.458   1.271   2.666  0.5342 -2.9062  0.0925
  200DOPC  H13C24770   1.566   1.386   2.756 -3.2599 -0.0115  0.4525
  200DOPC   C1424771   1.571   1.046   2.768 -0.5520 -0.1585 -0.0892
  200DOPC  H14A24772   1.655   1.011   2.711 -0.6698  0.3271 -0.5648
  200DOPC  H14B24773   1.557   0.976   2.849 -0.6922 -1.0862 -0.9019
  200DOPC  H14C24774   1.482   1.041   2.707 -0.7227  2.2634 -0.1314
  200DOPC   C1524775   1.716   1.220   2.883 -0.1908 -0.2133  0.2949
  200DOPC  H15A24776   1.770   1.244   2.792 -2.3563  0.8115 -0.8223
  200DOPC  H15B24777   1.763   1.136   2.931  0.8723  0.3934  0.3504
  200DOPC  H15C24778   1.716   1.309   2.945 -1.0329 -0.5773  0.8318
  200DOPC   C1124779   1.460   1.125   3.067 -0.4767  0.1096  0.3113
  200DOPC  H11A24780   1.561   1.132   3.114 -0.9151 -0.0334  1.3000
  200DOPC  H11B24781   1.377   1.168   3.126 -1.8546 -1.7463 -0.1540
  200DOPC     P24782   1.311   0.916   3.001  0.3038  0.2827  0.1930
  200DOPC   O1324783   1.349   0.783   2.935  0.2123  0.1787  0.1688
  200DOPC   O1424784   1.233   1.009   2.927 -0.3806 -0.3893  0.6664
  200DOPC   O1224785   1.446   0.987   3.044  0.5879  0.5189  0.7206
  200DOPC   O1124786   1.227   0.883   3.134  0.2988  0.4203 -0.1879
  200DOPC    C124787   1.285   0.824   3.255 -0.0470  0.2986  0.1899
  200DOPC    HA24788   1.376   0.765   3.233 -0.3303 -0.1538  0.2308
  200DOPC    HB24789   1.213   0.754   3.302  0.7802  0.1846  1.3585
  200DOPC    C224790   1.314   0.932   3.357 -0.3346  0.9084 -0.1964
  200DOPC    HS24791   1.398   0.994   3.319  1.7339 -1.3783  0.4081
  200DOPC   O2124792   1.352   0.878   3.485 -0.2031  0.4708  0.2227
  200DOPC   C2124793   1.481   0.826   3.495  0.2481 -0.6999  0.0836
  200DOPC   O2224794   1.568   0.845   3.409  0.2980  0.1250  0.0095
  200DOPC   C2224795   1.495   0.750   3.626  0.5306  0.5699 -0.7841
  200DOPC   H2R24796   1.431   0.660   3.614 -0.7313  1.2557  0.4450
  200DOPC   H2S24797   1.459   0.815   3.710 -0.7456 -0.0323 -0.8462
  200DOPC    C324798   1.188   1.022   3.379 -0.4995 -0.2058 -0.2422
  200DOPC    HX24799   1.101   0.953   3.382 -0.7361  0.0115 -1.7124
  200DOPC    HY24800   1.188   1.082   3.286 -1.3013 -1.2382 -0.9319
  200DOPC   O3124801   1.191   1.112   3.496  0.0423  0.3144 -0.3633
  200DOPC   C3124802   1.143   1.054   3.611 -0.2051  0.1482  0.3785
  200DOPC   O3224803   1.095   0.941   3.612 -0.5543  0.2545 -0.6601
  200DOPC   C3224804   1.138   1.157   3.727 -0.2888 -0.6126  0.0700
  200DOPC   H2X24805   1.241   1.181   3.761 -1.2099  2.5871  0.9661
  200DOPC   H2Y24806   1.103   1.259   3.701  0.8111 -0.5007 -1.0531
  200DOPC   C2324807   1.644   0.723   3.659  0.5461  0.3570  1.0485
  200DOPC   H3R24808   1.686   0.816   3.705 -1.3466  0.2283  3.2111
  200DOPC   H3S24809   1.706   0.692   3.572 -0.9010 -1.2333  0.5530
  200DOPC   C2424810   1.650   0.613   3.763  0.0789  0.1781  0.2445
  200DOPC   H4R24811   1.638   0.508   3.727 -2.5271  0.3476  0.4949
  200DOPC   H4S24812   1.563   0.625   3.830 -1.9518  2.1942 -2.4983
  200DOPC   C2524813   1.775   0.630   3.847 -0.1789  0.7372 -0.3882
  200DOPC   H5R24814   1.755   0.724   3.903  1.2186  0.6230  0.3521
  200DOPC   H5S24815   1.864   0.635   3.780  0.1852  1.6640  0.1300
  200DOPC   C2624816   1.786   0.522   3.957 -0.1835  0.1596 -0.4796
  200DOPC   H6R24817   1.810   0.421   3.919  0.9799  0.4488 -0.5770
  200DOPC   H6S24818   1.687   0.503   4.002 -0.1223 -1.7705 -1.0567
  200DOPC   C2724819   1.888   0.570   4.065  0.2598  0.1457 -0.2502
  200DOPC   H7R24820   1.871   0.678   4.089  0.0101 -0.3326  1.9687
  200DOPC   H7S24821   1.990   0.565   4.022  0.6108  1.5221  0.3625
  200DOPC   C2824822   1.882   0.488   4.195  0.2888  0.3367  0.3147
  200DOPC   H8R24823   1.983   0.443   4.204  0.6375  0.6319 -1.6216
  200DOPC   H8S24824   1.835   0.392   4.163  0.4909  0.6128 -0.8584
  200DOPC   C2924825   1.831   0.558   4.316 -0.4822 -0.1543  0.4565
  200DOPC   H9R24826   1.792   0.657   4.287  2.5358  0.9444 -0.2685
  200DOPC  C21024827   1.828   0.517   4.448  0.5260  0.0642  0.2405
  200DOPC  H10R24828   1.789   0.573   4.534 -3.3678 -0.3214 -1.0498
  200DOPC  C21124829   1.901   0.388   4.482  0.1574 -0.0532 -0.4466
  200DOPC  H11R24830   1.987   0.413   4.549  2.3432 -1.0221 -2.7211
  200DOPC  H11S24831   1.941   0.326   4.399  0.7466 -1.3078  0.7510
  200DOPC  C21224832   1.799   0.301   4.561  0.1711 -0.7119  0.0161
  200DOPC  H12R24833   1.788   0.344   4.663  1.6677 -2.3663  0.9277
  200DOPC  H12S24834   1.848   0.204   4.584  1.7056 -0.0655 -0.3966
  200DOPC  C21324835   1.660   0.281   4.500 -0.1975  0.0887  0.2679
  200DOPC  H13R24836   1.675   0.242   4.397  0.4953 -0.5402  0.5935
  200DOPC  H13S24837   1.594   0.369   4.489 -1.4453 -0.9828 -1.2009
  200DOPC  C21424838   1.601   0.159   4.574 -0.3287 -0.0468 -0.5997
  200DOPC  H14R24839   1.619   0.177   4.682 -1.5657 -2.9803  0.1872
  200DOPC  H14S24840   1.653   0.065   4.545  1.1983  0.5383  0.1485
  200DOPC  C21524841   1.457   0.137   4.556  0.0359 -0.3278  0.3639
  200DOPC  H15R24842   1.414   0.234   4.585  0.4629 -0.5252  1.7206
  200DOPC  H15S24843   1.432   0.058   4.630  2.4621 -1.7513 -0.1925
  200DOPC  C21624844   1.400   0.101   4.414 -0.5054 -0.4461 -0.2336
  200DOPC  H16R24845   1.448   0.161   4.334  0.3019  0.1347  0.6605
  200DOPC  H16S24846   1.294   0.137   4.414  0.4673  2.6957 -0.4120
  200DOPC  C21724847   1.417  -0.052   4.392  0.2808  0.0127 -0.0098
  200DOPC  H17R24848   1.353  -0.108   4.463 -0.6854 -1.1942 -1.7315
  200DOPC  H17S24849   1.525  -0.069   4.408  0.4620  0.5839 -0.5987
  200DOPC  C21824850   1.373  -0.098   4.244 -0.4245 -0.4002 -0.2405
  200DOPC  H18R24851   1.264  -0.083   4.228 -0.9580 -2.9326  0.5592
  200DOPC  H18S24852   1.385  -0.207   4.232  1.4128 -0.4572  1.4860
  200DOPC  H18T24853   1.437  -0.045   4.171  0.4931  2.2655  2.2896
  200DOPC   C3324854   1.058   1.097   3.841  0.1340  0.3546 -0.5524
  200DOPC   H3X24855   1.124   1.013   3.874  1.0460 -0.3081 -3.6861
  200DOPC   H3Y24856   0.958   1.060   3.810 -0.6759  1.4658  0.6318
  200DOPC   C3424857   1.019   1.190   3.954 -0.1378 -0.0889 -0.3281
  200DOPC   H4X24858   0.971   1.126   4.031 -0.1666  0.8194  0.4306
  200DOPC   H4Y24859   0.958   1.278   3.923  1.0442  0.6238 -0.7442
  200DOPC   C3524860   1.141   1.257   4.029  0.1116 -0.1780 -0.5885
  200DOPC   H5X24861   1.105   1.328   4.106  0.1885  0.8387 -1.4617
  200DOPC   H5Y24862   1.202   1.317   3.958  1.3001  0.8221  1.2049
  200DOPC   C3624863   1.226   1.149   4.094  0.2222  0.1506  0.5619
  200DOPC   H6X24864   1.168   1.099   4.174  0.6351  1.1871  1.5355
  200DOPC   H6Y24865   1.252   1.072   4.018  0.2195  2.3814 -1.8600
  200DOPC   C3724866   1.356   1.200   4.153  0.2327 -0.4616  0.1920
  200DOPC   H7X24867   1.435   1.177   4.078 -1.4650  1.1108 -2.2330
  200DOPC   H7Y24868   1.348   1.310   4.165  2.6766 -0.2373  0.3603
  200DOPC   C3824869   1.390   1.145   4.290  1.0024 -0.0696  0.3891
  200DOPC   H8X24870   1.293   1.126   4.342  0.4198 -2.6620 -1.4490
  200DOPC   H8Y24871   1.446   1.226   4.341  0.2373  0.0474  1.0771
  200DOPC   C3924872   1.459   1.011   4.284 -0.1576 -0.1745  0.1914
  200DOPC   H9X24873   1.394   0.927   4.257  0.6809 -0.8965  0.3799
  200DOPC  C31024874   1.589   0.986   4.309 -0.5817 -0.5886  0.9466
  200DOPC  H10X24875   1.616   0.879   4.307  0.2537 -0.4236  2.4024
  200DOPC  C31124876   1.690   1.084   4.348 -0.1349 -0.3772 -0.1156
  200DOPC  H11X24877   1.672   1.191   4.323 -1.7363 -0.7544 -0.6390
  200DOPC  H11Y24878   1.789   1.060   4.304  0.0660  1.9848 -1.0937
  200DOPC  C31224879   1.700   1.094   4.503 -0.2590  0.7463 -0.4371
  200DOPC  H12X24880   1.745   0.996   4.531 -1.4145 -0.2950 -2.0737
  200DOPC  H12Y24881   1.604   1.085   4.557 -0.2769 -2.2976 -0.8479
  200DOPC  C31324882   1.795   1.211   4.541 -0.9957  0.1657  0.6306
  200DOPC  H13X24883   1.898   1.178   4.516 -1.4051 -2.0680  1.6150
  200DOPC  H13Y24884   1.765   1.305   4.491  1.5562  0.7041 -0.0118
  200DOPC  C31424885   1.807   1.239   4.692  0.3504  0.3893  0.5327
  200DOPC  H14X24886   1.888   1.313   4.706  2.7820 -2.1516  0.8531
  200DOPC  H14Y24887   1.708   1.274   4.728 -0.0193  0.8549 -0.8686
  200DOPC  C31524888   1.852   1.115   4.772  0.0770  0.1193 -0.2421
  200DOPC  H15X24889   1.954   1.085   4.739  0.2396 -1.3355  1.4171
  200DOPC  H15Y24890   1.781   1.035   4.741 -0.9469  0.6176  0.7739
  200DOPC  C31624891   1.842   1.141   4.925 -0.4295 -0.4048 -0.4447
  200DOPC  H16X24892   1.897   1.236   4.945 -1.3420  0.0572 -0.0807
  200DOPC  H16Y24893   1.740   1.133   4.968  0.0859 -0.1607  0.8607
  200DOPC  C31724894   1.928   1.036   5.003  0.2896  0.0620  0.3826
  200DOPC  H17X24895   1.885   0.938   4.974 -3.0966  1.2536  0.9379
  200DOPC  H17Y24896   2.034   1.038   4.970 -0.4496 -1.7429 -2.4043
  200DOPC  C31824897   1.915   1.044   5.154 -0.2897 -0.2642  0.6749
  200DOPC  H18X24898   1.969   0.962   5.206 -0.5454 -0.6653  0.3127
  200DOPC  H18Y24899   1.952   1.142   5.192  0.4731 -0.2470 -0.0860
  200DOPC  H18Z24900   1.809   1.042   5.185  0.0899  0.3686  2.0833
  201SOD    SOD24901   5.581   5.368   8.435  0.4500 -0.3685  0.3321
  202SOD    SOD24902   2.895   4.094   1.071 -0.0918  0.0357 -0.4374
  203SOD    SOD24903   2.563   1.613   8.397 -0.4000  0.6053 -0.4065
  204SOD    SOD24904   3.545   4.153   1.620 -0.4569 -0.5799  0.0490
  205SOD    SOD24905   1.840   7.615   8.415  0.3223 -0.3093 -0.0959
  206SOD    SOD24906   7.083   0.040   1.603 -0.1035  0.1190  0.4334
  207SOD    SOD24907   0.483   1.697   2.558 -0.1328 -0.4087 -0.2501
  208SOD    SOD24908   4.925   0.048   7.446 -0.1236 -0.1276  0.8869
  209SOD    SOD24909   7.030   2.145   2.160  0.3497 -0.3038  0.1408
  210SOD    SOD24910   4.799   1.945   7.565 -0.1014  0.4300 -0.0510
  211SOD    SOD24911   4.418   1.193   8.990 -0.1851 -0.0694 -0.3838
  212SOD    SOD24912   6.528   0.485   7.746 -0.0193 -0.0684  0.1655
  213SOD    SOD24913   2.250   5.590   1.632  0.5317  0.0679 -0.4259
  214SOD    SOD24914   5.854   1.684   8.288 -0.4279  0.4244 -0.6135
  215SOD    SOD24915   1.007   7.004   7.419 -0.1568  0.1568  0.2935
  216SOD    SOD24916   6.666   2.368   8.211  0.4607 -0.3859 -0.5258
  217SOD    SOD24917   4.853   6.751   1.162  0.2795 -0.2690  0.4403
  218SOD    SOD24918   0.300   4.894   7.876 -0.0676 -0.1733 -0.1646
  219SOD    SOD24919   5.756   3.873   7.626 -0.2692 -0.4539  0.1239
  220SOD    SOD24920   3.959   1.255   3.257 -0.8136  0.5586 -0.0741
  221SOD    SOD24921   1.057   6.126   1.682 -0.1401  0.5754 -0.1811
  222SOD    SOD24922   6.834   1.470   6.595  0.6571  0.4878 -0.1570
  223SOD    SOD24923   2.082   0.030   1.047  0.5066 -0.0044 -0.4997
  224SOD    SOD24924   0.492   5.244   3.110 -0.2990  0.5010 -0.2187
  225SOD    SOD24925   5.024   2.199   2.863 -0.0609 -0.0257  0.1538
  226SOD    SOD24926   5.035   5.177   7.981 -0.4705 -0.2472 -0.1186
  227CLA    CLA24927   5.606   7.663   1.349  0.0136 -0.5904 -0.4154
  228CLA    CLA24928   5.518   1.748   1.787  0.3231  0.0484 -0.0527
  229CLA    CLA24929   1.782   1.150   0.931  0.3613  0.1416 -0.2243
  230CLA    CLA24930   4.720   3.827   7.987  0.1244 -0.0554 -0.2505
  231CLA    CLA24931   7.393   5.547   7.849 -0.1413 -0.0651 -0.0375
  232CLA    CLA24932   0.879   7.602   8.443  0.0437  0.2671  0.3601
  233CLA    CLA24933   4.518   7.601   7.227 -0.1577 -0.2281 -0.0703
  234CLA    CLA24934   5.043   5.992   8.292  0.1008  0.0153 -0.3631
  235CLA    CLA24935   2.456   3.237   1.497  0.1915 -0.2282 -0.3249
  236CLA    CLA24936   5.995   3.537   8.597  0.7202 -0.3241  0.0535
  237CLA    CLA24937   6.580   1.283   8.480  0.0878 -0.3724 -0.1407
  238CLA    CLA24938   4.721   6.136   1.800  0.0530 -0.3505  0.0572
  239CLA    CLA24939   0.225   7.362   1.942 -0.1460 -0.1231  0.1101
  240CLA    CLA24940   4.846   4.653   9.312  0.0996 -0.1850  0.1418
  241CLA    CLA24941   7.214   2.059   1.688  0.0796 -0.2969  0.4016
  242CLA    CLA24942   0.454   6.155   9.053  0.4551  0.0166  0.1690
  243CLA    CLA24943   3.667   1.281   2.116  0.5101 -0.0794  0.0941
  244CLA    CLA24944   4.041   2.778   2.218 -0.1345  0.3186 -0.0549
  245CLA    CLA24945   2.591   3.959   1.720 -0.1218  0.0684  0.1615
  246CLA    CLA24946   3.731   4.039   8.147 -0.2284  0.2818 -0.3746
  247CLA    CLA24947   1.071   6.147   1.967 -0.0749 -0.0845 -0.1857
  248CLA    CLA24948   4.975   6.709   1.403  0.0479 -0.3904  0.6835
  249CLA    CLA24949   3.238   2.406   2.231  0.0143 -0.2083 -0.2169
  250CLA    CLA24950   2.556   0.234   8.320  0.0878 -0.0925 -0.0630
  251CLA    CLA24951   4.994   1.665   8.691 -0.1417 -0.5330 -0.3960
  252CLA    CLA24952   5.852   5.353   2.856 -0.3699  0.1491 -0.2347
  253TIP3   OH224953   6.804   3.974   7.267  0.6521  0.2325  0.2592
  253TIP3    H124954   6.813   4.015   7.352  0.6118  0.1578  0.3000
  253TIP3    H224955   6.769   4.043   7.210  2.4280  0.8395 -0.1620
  254TIP3   OH224956   1.459   1.052   9.028  0.0227 -0.1104 -0.2759
  254TIP3    H124957   1.425   1.138   9.001  0.1563 -0.1382 -0.5377
  254TIP3    H224958   1.383   1.008   9.067 -0.1144  0.0277 -0.3813
  255TIP3   OH224959   3.501   6.571   7.009 -0.0298  0.1705  0.0567
  255TIP3    H124960   3.416   6.582   6.966  0.1206  0.7058 -0.1129
  255TIP3    H224961   3.544   6.656   6.999  1.2081 -0.5687 -1.3264
  256TIP3   OH224962   5.037   5.782   8.537 -0.1651 -0.0541  0.8016
  256TIP3    H124963   5.031   5.831   8.619 -2.0864  1.5675 -0.2003
  256TIP3    H224964   4.997   5.840   8.472 -1.2418 -2.3798 -0.7486
  257TIP3   OH224965   0.122   6.760   7.832  0.0914 -0.3130 -0.1768
  257TIP3    H124966   0.066   6.748   7.909 -0.0808 -1.8298 -0.5142
  257TIP3    H224967   0.063   6.792   7.764 -0.2683 -1.3369 -0.3616
  258TIP3   OH224968   3.154   1.585   8.952 -0.2805 -0.0007 -0.0425
  258TIP3    H124969   3.127   1.495   8.972 -0.4405 -0.0270 -0.3750
  258TIP3    H224970   3.239   1.575   8.909 -0.6869 -0.0511 -0.8497
  259TIP3   OH224971   2.363   5.556   8.316  0.2272  0.3990  0.9412
  259TIP3    H124972   2.286   5.569   8.261 -0.8708  1.3379  2.6284
  259TIP3    H224973   2.397   5.645   8.331  1.6492  0.0015  0.2438
  260TIP3   OH224974   0.882   0.779   8.788  0.1631 -0.4161 -0.6756
  260TIP3    H124975   0.911   0.727   8.863 -0.1438 -0.8087 -0.8263
  260TIP3    H224976   0.920   0.866   8.803  0.4659 -0.6112 -0.2922
  261TIP3   OH224977   5.589   5.524   7.666 -0.5412 -0.2872 -0.0487
  261TIP3    H124978   5.530   5.479   7.605 -1.6002 -1.1292  1.5064
  261TIP3    H224979   5.657   5.460   7.686 -1.7813 -1.1127  1.7929
  262TIP3   OH224980   5.430   5.837   8.242 -0.1464 -0.2628 -0.0615
  262TIP3    H124981   5.477   5.793   8.313 -1.5020 -1.4995  0.1211
  262TIP3    H224982   5.436   5.930   8.264  0.3762 -0.5489  1.0980
  263TIP3   OH224983   1.981   1.688   7.896  0.0823 -0.2158  0.3776
  263TIP3    H124984   1.990   1.782   7.912 -1.2591 -0.3165  2.0098
  263TIP3    H224985   2.041   1.670   7.824  1.8977  1.5082  1.3606
  264TIP3   OH224986   0.393   7.166   7.224 -0.0799  0.2468 -0.2383
  264TIP3    H124987   0.332   7.187   7.295  1.2700  0.0650  1.0223
  264TIP3    H224988   0.337   7.126   7.157 -1.5067  1.0587  0.4051
  265TIP3   OH224989   6.165   4.763   8.411 -0.0942 -0.3512  0.0834
  265TIP3    H124990   6.094   4.701   8.394  0.3045 -0.5998 -0.6838
  265TIP3    H224991   6.245   4.712   8.403  0.2374  0.2301 -0.4389
  266TIP3   OH224992   5.259   1.039   9.233  0.4624 -0.2833 -0.1869
  266TIP3    H124993   5.278   1.034   9.140 -0.6932  1.2331 -0.5455
  266TIP3    H224994   5.280   1.129   9.257  1.1001 -0.7541  1.1189
  267TIP3   OH224995   6.970   4.880   8.607  0.0229  0.2680  0.0848
  267TIP3    H124996   6.974   4.864   8.512 -1.3397 -2.4199  0.3848
  267TIP3    H224997   6.888   4.839   8.635  1.3361 -0.8115  2.7171
  268TIP3   OH224998   3.853   5.285   8.847 -0.8548  0.4320  0.1447
  268TIP3    H124999   3.791   5.334   8.901 -1.0429 -2.3363  2.7980
  268TIP3    H225000   3.937   5.327   8.862 -1.0804  0.3267  1.9690
  269TIP3   OH225001   6.020   4.324   8.115 -0.3197  0.3540  0.3410
  269TIP3    H125002   6.075   4.402   8.123 -1.3139  0.9676  1.7640
  269TIP3    H225003   6.022   4.284   8.202  1.1367 -1.9602 -0.6382
  270TIP3   OH225004   3.280   6.547   8.171  0.1283 -0.0609 -0.1430
  270TIP3    H125005   3.243   6.470   8.129  0.1861  0.3166 -0.9049
  270TIP3    H225006   3.234   6.554   8.254 -0.2875 -0.5797 -0.3291
  271TIP3   OH225007   4.039   2.134   8.988  0.1107  0.3108 -0.3992
  271TIP3    H125008   4.052   2.100   8.899 -1.3196  2.1189 -1.3720
  271TIP3    H225009   4.101   2.207   8.994  0.5885 -0.1416  0.3274
  272TIP3   OH225010   4.573   3.105   7.042  0.1127 -0.4111  0.6547
  272TIP3    H125011   4.487   3.064   7.052 -0.5333 -0.1409 -2.8317
  272TIP3    H225012   4.624   3.042   6.991  2.2547 -0.7910  3.0647
  273TIP3   OH225013   6.689   6.311   8.171 -0.0608  0.2130 -0.1527
  273TIP3    H125014   6.614   6.367   8.150  1.8693  2.5320 -1.3527
  273TIP3    H225015   6.695   6.250   8.098 -1.3640 -0.7517  0.4940
  274TIP3   OH225016   5.180   5.198   8.197 -0.0817 -0.1101  0.1770
  274TIP3    H125017   5.180   5.114   8.242 -0.7988 -0.0722  0.2738
  274TIP3    H225018   5.246   5.250   8.243  1.8450 -1.2631 -1.1821
  275TIP3   OH225019   2.484   4.994   8.344  0.5242 -0.2314  0.9328
  275TIP3    H125020   2.529   4.910   8.336  1.5717  0.4577 -1.0607
  275TIP3    H225021   2.410   4.987   8.285  2.6371  1.4026 -2.1788
  276TIP3   OH225022   2.721   0.553   8.657 -0.3173  0.5876 -0.1515
  276TIP3    H125023   2.667   0.478   8.633  0.4002  0.3504 -1.0810
  276TIP3    H225024   2.778   0.567   8.581 -0.1256  1.7843  0.1963
  277TIP3   OH225025   4.706   2.800   8.007 -0.3564 -0.3615 -0.3927
  277TIP3    H125026   4.720   2.729   8.071  1.4390 -0.3261 -0.7007
  277TIP3    H225027   4.787   2.850   8.009 -1.4278  1.4689 -0.5043
  278TIP3   OH225028   7.005   1.891   6.882  0.5969 -0.4596 -0.3035
  278TIP3    H125029   7.083   1.946   6.891  1.3307 -1.3764 -0.8812
  278TIP3    H225030   7.039   1.803   6.864 -0.5862 -0.5888 -2.1864
  279TIP3   OH225031   1.663   4.694   8.478 -0.1069 -0.2187 -0.0428
  279TIP3    H125032   1.664   4.605   8.514  1.3023 -0.4242 -0.5433
  279TIP3    H225033   1.590   4.737   8.523  0.1969 -1.1348  1.3856
  280TIP3   OH225034   2.107   1.301   8.182 -0.1294 -0.1078 -0.2110
  280TIP3    H125035   2.141   1.324   8.269 -0.4619 -0.2725 -0.0346
  280TIP3    H225036   2.095   1.206   8.186  0.4088 -0.2019 -0.6362
  281TIP3   OH225037   0.210   4.452   9.103  0.1938  0.4642 -0.3862
  281TIP3    H125038   0.240   4.451   9.012 -0.0388 -2.1245 -0.5144
  281TIP3    H225039   0.114   4.456   9.097  0.1728  0.1813 -0.2862
  282TIP3   OH225040   1.643   6.509   7.517 -0.2534 -0.3773  0.4199
  282TIP3    H125041   1.553   6.540   7.523  0.3033  1.5934 -0.4253
  282TIP3    H225042   1.670   6.495   7.608 -0.9330  0.5158  0.7721
  283TIP3   OH225043   3.743   1.049   9.000 -0.1776  0.7479  0.1053
  283TIP3    H125044   3.734   1.031   9.093  0.1853 -1.0665 -0.1683
  283TIP3    H225045   3.816   1.110   8.994 -0.1878  0.8571  1.0132
  284TIP3   OH225046   6.674   1.391   2.425  0.1077  0.1128  0.5091
  284TIP3    H125047   6.728   1.348   2.359 -0.9108 -1.1337  0.4454
  284TIP3    H225048   6.590   1.405   2.381 -0.4694 -0.4068  1.4332
  285TIP3   OH225049   4.218   6.975   1.276 -0.5635  0.1968 -0.0113
  285TIP3    H125050   4.206   7.070   1.284 -0.5464  0.2243 -0.3050
  285TIP3    H225051   4.242   6.961   1.185 -0.3782 -0.0723  0.0750
  286TIP3   OH225052   7.520   0.608   0.631 -0.7314  0.8974  0.4805
  286TIP3    H125053   7.453   0.676   0.642  0.4718  2.3757 -0.9107
  286TIP3    H225054   7.488   0.534   0.684 -2.7542  2.0372  0.9473
  287TIP3   OH225055   0.878   6.890   0.891  0.5294  0.1516 -0.0253
  287TIP3    H125056   0.828   6.811   0.869 -0.9935  0.8488  0.7745
  287TIP3    H225057   0.903   6.877   0.983 -1.4312  1.3977  0.7495
  288TIP3   OH225058   7.243   3.422   1.618 -0.1130 -0.3155 -0.0985
  288TIP3    H125059   7.281   3.501   1.657 -2.8463  0.5425  1.0796
  288TIP3    H225060   7.318   3.367   1.597  1.7400  1.1143  2.2962
  289TIP3   OH225061   2.851   2.342   1.651  0.1502 -0.2976  0.5100
  289TIP3    H125062   2.788   2.311   1.716 -0.5571 -1.5278 -0.7197
  289TIP3    H225063   2.836   2.288   1.574  1.4802  0.6147 -0.4512
  290TIP3   OH225064   7.074   1.365   2.426  0.0626 -0.2287 -0.0693
  290TIP3    H125065   7.167   1.364   2.447  0.1812  2.2098 -0.1452
  290TIP3    H225066   7.064   1.298   2.359  1.7498 -0.6012  0.0056
  291TIP3   OH225067   1.772   1.337   1.187  0.1453 -0.2193  0.0982
  291TIP3    H125068   1.761   1.287   1.106  3.0177 -1.3120  0.2672
  291TIP3    H225069   1.720   1.289   1.251 -0.0420 -0.8596 -0.5151
  292TIP3   OH225070   5.107   0.808   1.727  0.1065 -0.1688 -0.2490
  292TIP3    H125071   5.101   0.904   1.719 -2.2296 -0.1190  0.9778
  292TIP3    H225072   5.118   0.794   1.821  0.2767 -1.1194 -0.4101
  293TIP3   OH225073   1.963   2.519   1.623  0.2328  0.2992 -0.3652
  293TIP3    H125074   1.966   2.605   1.580 -1.4507  0.8296  0.4667
  293TIP3    H225075   1.895   2.529   1.689  0.4372 -1.5172  0.1522
  294TIP3   OH225076   3.446   6.714   1.099 -0.2494 -0.0057  0.2937
  294TIP3    H125077   3.437   6.701   1.004  1.2855  2.1676 -0.2143
  294TIP3    H225078   3.528   6.671   1.122  0.2191  0.9016  0.3228
  295TIP3   OH225079   4.148   3.126   1.628 -0.1744 -0.1816  0.4569
  295TIP3    H125080   4.203   3.204   1.640 -0.4452  0.2092 -0.6904
  295TIP3    H225081   4.060   3.160   1.616 -0.3966 -0.7067  0.5740
  296TIP3   OH225082   4.150   6.251   0.483 -0.7190 -0.1287  0.0487
  296TIP3    H125083   4.059   6.278   0.486 -1.5413 -2.6739  0.2249
  296TIP3    H225084   4.149   6.160   0.512  1.8474 -0.3357 -0.2788
  297TIP3   OH225085   5.034   2.602   2.042  0.0960 -0.0781 -0.0024
  297TIP3    H125086   4.963   2.658   2.011 -0.9093 -0.5304  1.3937
  297TIP3    H225087   5.059   2.550   1.966 -1.0564  0.1062 -0.5273
  298TIP3   OH225088   1.338   6.978   2.615 -0.0191 -0.0628  0.5783
  298TIP3    H125089   1.294   6.976   2.699 -0.2870  0.1350  0.4437
  298TIP3    H225090   1.309   7.059   2.574  1.3550  0.6413  0.9556
  299TIP3   OH225091   1.620   4.725   2.730  0.9432 -0.3756  0.0341
  299TIP3    H125092   1.539   4.762   2.767 -0.7826 -1.2652 -2.5739
  299TIP3    H225093   1.644   4.655   2.791 -1.6131 -1.6027 -0.2186
  300TIP3   OH225094   2.953   4.019   1.298 -0.0585 -0.3294 -0.0057
  300TIP3    H125095   2.918   3.996   1.384  0.5101 -1.0021  0.0486
  300TIP3    H225096   3.008   4.096   1.314  0.5285 -0.8181  0.3336
  301TIP3   OH225097   5.082   5.875   2.563  0.1305 -0.3664  0.6651
  301TIP3    H125098   5.020   5.802   2.564 -1.0531  0.6075  0.6881
  301TIP3    H225099   5.155   5.843   2.511  0.5675 -2.2889  2.3176
  302TIP3   OH225100   7.459   1.847   0.685 -0.0418 -0.0186  0.1817
  302TIP3    H125101   7.456   1.862   0.779  0.1122  0.7474  0.0714
  302TIP3    H225102   7.418   1.925   0.647  1.4515  0.4902 -0.4528
  303TIP3   OH225103   0.848   4.990   2.470 -0.2391  0.6098  0.1499
  303TIP3    H125104   0.817   5.022   2.555 -0.6489  1.4382 -0.2938
  303TIP3    H225105   0.772   4.948   2.431  0.1618 -0.4832  0.5100
  304TIP3   OH225106   0.182   6.978   1.949  0.5572 -0.1450 -0.6309
  304TIP3    H125107   0.255   7.001   1.891  1.1893 -0.6177 -0.0446
  304TIP3    H225108   0.134   7.060   1.961  0.9164  0.1411 -1.1335
  305TIP3   OH225109   4.249   2.739   2.468 -0.5571  0.3952  0.3611
  305TIP3    H125110   4.291   2.673   2.413  0.9252  0.4716  1.3331
  305TIP3    H225111   4.167   2.759   2.424  0.0937 -0.3108 -1.2396
  306TIP3   OH225112   7.292   0.915   1.022 -0.4355 -0.0961  0.4234
  306TIP3    H125113   7.258   0.837   0.979 -0.5665 -0.2992  0.8906
  306TIP3    H225114   7.275   0.986   0.961 -1.6721 -0.1943  0.6397
  307TIP3   OH225115   2.591   7.582   1.517 -0.6771 -0.0200 -0.1088
  307TIP3    H125116   2.596   7.577   1.421 -0.0730  1.4689 -0.1798
  307TIP3    H225117   2.569   7.493   1.544 -0.9157 -0.4610 -1.6324
  308TIP3   OH225118   0.379   7.281   0.599  0.0878 -0.7562 -0.5038
  308TIP3    H125119   0.439   7.355   0.590  0.6103 -1.2470 -1.0563
  308TIP3    H225120   0.294   7.322   0.619  0.1434  0.0534 -1.8092
  309TIP3   OH225121   3.424   2.950   1.553  0.8599 -0.0855  0.1074
  309TIP3    H125122   3.422   2.950   1.648 -1.7084  2.2230  0.1817
  309TIP3    H225123   3.388   2.864   1.528 -3.4517  1.0519  1.4473
  310TIP3   OH225124   0.201   3.004   2.518 -0.0430  0.4134  0.1581
  310TIP3    H125125   0.217   3.099   2.522 -1.0523  0.5990  0.0677
  310TIP3    H225126   0.216   2.974   2.607  1.9256  0.3631 -0.1574
  311TIP3   OH225127   0.775   2.980   1.275  0.1648 -0.3554  0.4717
  311TIP3    H125128   0.728   2.921   1.333 -1.0273  0.4072  0.3038
  311TIP3    H225129   0.712   3.005   1.208  0.7962  0.6836  0.2287
  312TIP3   OH225130   6.493   4.600   3.026 -0.1490  0.2554  0.2814
  312TIP3    H125131   6.474   4.535   3.093 -1.3601 -0.0070 -0.2916
  312TIP3    H225132   6.417   4.658   3.027 -1.2601 -0.9899 -2.2837
  313TIP3   OH225133   7.007   1.103   1.064  0.1334  0.2496 -0.2367
  313TIP3    H125134   6.931   1.135   1.114  1.8071  1.9816  1.3665
  313TIP3    H225135   6.975   1.097   0.974 -2.6166 -1.6479  0.7192
  314TIP3   OH225136   2.212   1.490   3.660 -0.1684  0.3474  0.3955
  314TIP3    H125137   2.270   1.475   3.585  1.8224  0.7356  1.7948
  314TIP3    H225138   2.151   1.416   3.657  1.7861 -1.3698  0.1067
  315TIP3   OH225139   5.667   3.487   1.786  0.3999  0.0995 -0.4579
  315TIP3    H125140   5.579   3.510   1.756 -0.8270 -0.3129  2.4933
  315TIP3    H225141   5.711   3.452   1.709 -2.1364  0.0111 -1.9530
  316TIP3   OH225142   0.237   2.052   0.643  0.1772 -0.4132  0.5500
  316TIP3    H125143   0.144   2.039   0.629 -0.0008  1.7751 -0.8077
  316TIP3    H225144   0.246   2.056   0.739 -1.2682  0.1637  0.6912
  317TIP3   OH225145   3.049   7.544   1.962  0.2349  0.3895  0.2010
  317TIP3    H125146   2.979   7.500   1.914 -1.1180  1.6215  0.9936
  317TIP3    H225147   3.087   7.605   1.899  2.3775 -2.0402 -1.0288
  318TIP3   OH225148   1.635   2.657   1.605  0.6133  0.2956 -0.2726
  318TIP3    H125149   1.698   2.652   1.677 -0.1399  0.0479  0.3759
  318TIP3    H225150   1.642   2.572   1.560 -0.4661 -0.4031  0.8346
  319TIP3   OH225151   7.042   3.038   2.730  0.4667  0.1343  0.4279
  319TIP3    H125152   6.982   2.971   2.697  0.1932  0.6889 -0.2153
  319TIP3    H225153   7.021   3.044   2.824 -0.1930  0.0134  0.2943
  320TIP3   OH225154   4.458   6.801   1.997 -0.6121  0.0183 -0.0608
  320TIP3    H125155   4.438   6.854   1.920 -1.4129 -1.0962 -0.6511
  320TIP3    H225156   4.553   6.806   2.006 -0.5340  0.3608 -0.9723
  321TIP3   OH225157   3.332   4.692   1.157  0.0416 -0.1689  0.6782
  321TIP3    H125158   3.326   4.650   1.071  1.7232  0.6741  0.1054
  321TIP3    H225159   3.255   4.748   1.162  0.3328  0.3959 -0.6591
  322TIP3   OH225160   1.402   0.798   2.669 -0.1968  0.5579  0.2159
  322TIP3    H125161   1.362   0.808   2.756  0.0588  0.8590  0.2991
  322TIP3    H225162   1.496   0.791   2.686 -0.2937 -1.4390  0.1202
  323TIP3   OH225163   5.058   6.392   7.884 -0.0203  0.5426 -0.3144
  323TIP3    H125164   5.012   6.468   7.921  0.0095  0.3473  0.1299
  323TIP3    H225165   5.032   6.319   7.939  0.6808  0.3957 -0.1691
  324TIP3   OH225166   3.362   4.799   8.496 -0.5969 -0.8401  0.0107
  324TIP3    H125167   3.395   4.786   8.407 -1.1661  0.1275 -0.3474
  324TIP3    H225168   3.428   4.756   8.551 -0.3505 -1.6464 -0.8745
  325TIP3   OH225169   2.560   1.871   7.986 -0.1412  0.4078  0.0770
  325TIP3    H125170   2.471   1.846   7.961  0.0773  0.0550 -0.3709
  325TIP3    H225171   2.555   1.965   8.003 -0.1861  0.8313 -1.9558
  326TIP3   OH225172   4.557   5.038   8.406  0.2193 -0.0201 -0.3392
  326TIP3    H125173   4.602   4.995   8.479 -2.1876  1.0629  1.9558
  326TIP3    H225174   4.485   5.086   8.447 -1.9839 -0.2288 -3.5907
  327TIP3   OH225175   7.164   1.035   8.861 -0.1877  0.2292  0.5113
  327TIP3    H125176   7.207   1.003   8.941 -2.3468 -0.1846  1.5955
  327TIP3    H225177   7.134   0.956   8.817 -1.2920  0.5519  0.6642
  328TIP3   OH225178   1.140   5.233   8.657 -0.0320 -0.1895  0.1423
  328TIP3    H125179   1.147   5.175   8.733 -0.4117 -0.3551  0.0544
  328TIP3    H225180   1.046   5.248   8.647 -0.0692 -1.0428 -0.9417
  329TIP3   OH225181   2.706   1.578   8.206 -0.0266 -0.1867  0.3449
  329TIP3    H125182   2.661   1.550   8.126  0.0221 -2.3236  0.9954
  329TIP3    H225183   2.757   1.654   8.180 -3.8109  2.3557 -0.5023
  330TIP3   OH225184   3.982   5.924   7.865 -0.3593 -0.2808  0.2262
  330TIP3    H125185   4.011   5.837   7.893  0.4263 -0.0513  0.1296
  330TIP3    H225186   4.023   5.936   7.780  0.1818  0.5092  0.5882
  331TIP3   OH225187   4.992   3.026   7.295  0.3582  0.5178 -0.3269
  331TIP3    H125188   4.908   3.066   7.273 -0.9986 -1.6727  0.5032
  331TIP3    H225189   4.986   2.938   7.258  0.6764 -1.0202  2.9189
  332TIP3   OH225190   7.226   0.063   8.570 -0.5284 -0.8212  0.0744
  332TIP3    H125191   7.293   0.037   8.506 -0.5371  0.1845 -0.3634
  332TIP3    H225192   7.240   0.157   8.582 -0.1605 -1.0842  2.0119
  333TIP3   OH225193   0.200   0.291   9.469  0.1875  0.1270 -0.1565
  333TIP3    H125194   0.169   0.227   9.406  0.7459 -0.4303  0.1266
  333TIP3    H225195   0.291   0.267   9.485  0.3384  0.8574  0.1190
  334TIP3   OH225196   2.858   0.364   8.255 -0.0453 -0.5291 -0.0252
  334TIP3    H125197   2.859   0.353   8.159 -0.7045  0.9555 -0.2338
  334TIP3    H225198   2.781   0.314   8.284 -0.4286 -0.1726 -0.4038
  335TIP3   OH225199   3.399   5.338   8.374 -0.0594 -0.5287  0.3708
  335TIP3    H125200   3.442   5.322   8.458 -0.4250  1.3899  0.9777
  335TIP3    H225201   3.308   5.313   8.388 -0.0290 -0.6232  0.4012
  336TIP3   OH225202   7.650   6.010   8.608 -0.0207 -0.3251  0.1675
  336TIP3    H125203   7.584   6.077   8.628  1.2263  1.6308 -1.7815
  336TIP3    H225204   7.605   5.950   8.548 -0.4023  0.2521 -0.1325
  337TIP3   OH225205   5.997   5.990   8.155 -0.2026 -0.5223 -0.0786
  337TIP3    H125206   6.034   5.905   8.132 -0.1854 -0.3880 -0.5807
  337TIP3    H225207   6.065   6.053   8.128 -0.4362 -0.3244 -0.2081
  338TIP3   OH225208   0.455   6.762   7.156  0.3450 -0.1994  0.2950
  338TIP3    H125209   0.379   6.799   7.202  1.0253  1.4456  0.1887
  338TIP3    H225210   0.427   6.675   7.129 -1.5196  0.3685  0.2347
  339TIP3   OH225211   0.669   5.436   9.844 -0.0640  0.3748  0.2364
  339TIP3    H125212   0.676   5.396   9.930  3.1076 -0.6090 -0.3574
  339TIP3    H225213   0.620   5.373   9.792  1.3150 -0.8656  0.3811
  340TIP3   OH225214   7.021   1.905   8.585  0.4209 -0.1353  0.1074
  340TIP3    H125215   6.942   1.852   8.577  0.7471 -0.5909 -0.1915
  340TIP3    H225216   7.004   1.964   8.658 -0.2492 -0.1278 -0.0511
  341TIP3   OH225217   7.441   1.419   7.410 -0.2612 -0.2487 -0.3205
  341TIP3    H125218   7.421   1.386   7.322 -0.1032 -0.1359 -0.3987
  341TIP3    H225219   7.524   1.466   7.400 -0.1091 -0.4615 -0.0571
  342TIP3   OH225220   1.012   1.989   8.458  0.2866  0.5274  0.4138
  342TIP3    H125221   0.993   1.907   8.504 -0.3960  0.2340 -0.3669
  342TIP3    H225222   1.088   1.969   8.404 -1.5455 -0.5073 -1.9592
  343TIP3   OH225223   4.686   7.157   9.121 -0.4812  0.3059 -0.4159
  343TIP3    H125224   4.772   7.198   9.110  0.6257 -1.4390  1.0952
  343TIP3    H225225   4.626   7.212   9.071  1.0253  3.1717  0.7525
  344TIP3   OH225226   0.007   4.535   6.731  0.1476  0.2887  0.2905
  344TIP3    H125227  -0.022   4.471   6.796 -0.8443  0.6571  0.2412
  344TIP3    H225228  -0.014   4.620   6.771  1.3874  0.5849  0.3336
  345TIP3   OH225229   2.845   6.593   9.839 -0.1782 -0.0666 -0.4437
  345TIP3    H125230   2.753   6.593   9.813 -0.2539  0.8349 -0.2245
  345TIP3    H225231   2.882   6.514   9.799 -1.2124 -0.8351  0.0831
  346TIP3   OH225232   0.308   6.522   6.490  0.2940  0.1271  0.5287
  346TIP3    H125233   0.323   6.443   6.542 -0.4779 -0.3647  0.0234
  346TIP3    H225234   0.257   6.579   6.547  1.2231  0.4459  1.0520
  347TIP3   OH225235   5.678   2.279   7.721 -0.7081  0.2802  0.1165
  347TIP3    H125236   5.597   2.240   7.755 -0.1535 -2.1496 -1.1708
  347TIP3    H225237   5.667   2.279   7.626  0.5516  0.5181 -0.0514
  348TIP3   OH225238   1.341   3.224   8.352  0.3774  0.5102 -0.0680
  348TIP3    H125239   1.418   3.245   8.299  0.6937 -0.9048 -0.2171
  348TIP3    H225240   1.333   3.128   8.345  0.4716  0.2533  2.4753
  349TIP3   OH225241   4.977   7.204   7.662 -0.1674 -0.6647 -0.1793
  349TIP3    H125242   4.997   7.156   7.582  1.8898  2.1685 -1.5293
  349TIP3    H225243   5.061   7.214   7.706 -0.8039  0.2893  0.8627
  350TIP3   OH225244   5.995   0.002   7.008 -0.0824 -0.1839  0.0681
  350TIP3    H125245   5.983   0.048   7.091  0.6411  1.3321 -0.6197
  350TIP3    H225246   6.087  -0.027   7.010 -0.4714 -1.4458  0.3997
  351TIP3   OH225247   1.938   2.073   8.880 -0.0079 -0.2476  0.4567
  351TIP3    H125248   1.863   2.128   8.902  0.2781  0.1429  0.4668
  351TIP3    H225249   1.969   2.039   8.965  0.8561  0.9463  0.6409
  352TIP3   OH225250   2.914   3.874   7.013  0.5898  0.2558 -0.0509
  352TIP3    H125251   2.849   3.804   7.012  1.7424 -0.9153 -2.3928
  352TIP3    H225252   2.872   3.945   7.060 -0.9850 -1.6784  1.6474
  353TIP3   OH225253   2.238   5.717   7.073  0.3240 -0.0904  0.0342
  353TIP3    H125254   2.214   5.628   7.098  0.4746 -0.1375  0.0127
  353TIP3    H225255   2.305   5.742   7.137 -0.7968  0.5657  0.9755
  354TIP3   OH225256   6.640   6.008   9.123 -0.1075  0.0753  0.3343
  354TIP3    H125257   6.607   6.042   9.206  0.3367  0.5735  0.3097
  354TIP3    H225258   6.694   5.933   9.147 -2.1679 -1.5167  0.3025
  355TIP3   OH225259   4.447   3.866   8.438 -0.0698 -0.0510  0.4138
  355TIP3    H125260   4.460   3.926   8.512 -2.3110  2.0912 -0.7806
  355TIP3    H225261   4.509   3.897   8.372 -0.1384 -0.0424  0.3535
  356TIP3   OH225262   7.270   0.329   8.587 -0.1243  0.0352  0.3543
  356TIP3    H125263   7.364   0.334   8.605  0.3068  0.2139 -1.7556
  356TIP3    H225264   7.233   0.407   8.629  0.4382 -0.6497  2.2314
  357TIP3   OH225265   0.463   4.659   6.976  0.0940  0.3542  0.1873
  357TIP3    H125266   0.424   4.631   7.058  0.9344 -0.0674  0.4518
  357TIP3    H225267   0.411   4.614   6.908 -0.2252  0.2409  0.5059
  358TIP3   OH225268   2.657   2.457   9.185 -0.2739 -0.2428 -0.2092
  358TIP3    H125269   2.602   2.469   9.107 -2.3666 -0.3112  1.1635
  358TIP3    H225270   2.610   2.392   9.237 -0.2524  1.5301  2.1962
  359TIP3   OH225271   3.651   4.990   8.249  0.0669  0.0731 -0.1286
  359TIP3    H125272   3.706   5.017   8.322  0.1256  0.2624 -0.2414
  359TIP3    H225273   3.639   4.896   8.262  1.4824 -0.2309 -0.7981
  360TIP3   OH225274   2.803   7.047   8.505  0.2347  0.0818  0.0687
  360TIP3    H125275   2.802   7.128   8.455 -1.6652 -0.8144 -1.4897
  360TIP3    H225276   2.890   7.043   8.545  0.7697  2.2684 -0.7823
  361TIP3   OH225277   1.176   6.873   9.572  0.4891  0.0937 -0.0695
  361TIP3    H125278   1.207   6.842   9.487 -0.6030 -0.8745 -0.1375
  361TIP3    H225279   1.136   6.958   9.555 -0.6271 -0.5453 -0.7178
  362TIP3   OH225280   1.571   2.241   7.258 -0.1032 -0.1192  0.6026
  362TIP3    H125281   1.592   2.335   7.262 -1.9717  0.4664 -1.1326
  362TIP3    H225282   1.656   2.198   7.251  0.7720  1.7352 -1.7996
  363TIP3   OH225283   3.918   2.453   8.980 -0.3245 -0.2870 -0.0200
  363TIP3    H125284   3.970   2.524   8.942  0.5312 -1.8971 -2.0865
  363TIP3    H225285   3.983   2.392   9.015 -0.8083 -1.6553 -1.3868
  364TIP3   OH225286   6.857   7.456   8.997  0.3587 -0.2005  0.2239
  364TIP3    H125287   6.894   7.524   9.053  0.2716 -0.4436  0.5769
  364TIP3    H225288   6.922   7.443   8.928 -0.6611  1.9640 -1.2626
  365TIP3   OH225289   7.676   0.250   6.654 -0.7419 -0.5735 -0.2384
  365TIP3    H125290   7.691   0.156   6.662  2.1169 -0.1852 -0.2380
  365TIP3    H225291   7.639   0.275   6.739 -1.4137 -1.6267 -0.1883
  366TIP3   OH225292   2.612   5.383   7.603 -0.2337  0.1965 -0.3924
  366TIP3    H125293   2.667   5.307   7.621  0.5441  0.7978 -0.1392
  366TIP3    H225294   2.674   5.454   7.585 -0.9107  0.9701  0.2181
  367TIP3   OH225295   1.067   3.973   8.926  0.6352 -0.0330 -0.1984
  367TIP3    H125296   1.118   3.964   9.006  0.6521  1.3000 -0.0404
  367TIP3    H225297   1.009   4.048   8.942 -2.4614 -2.2921  0.2071
  368TIP3   OH225298   6.601   5.557   7.419  0.2686 -0.1287 -0.1611
  368TIP3    H125299   6.634   5.500   7.488  1.9308  0.6284 -0.2714
  368TIP3    H225300   6.545   5.501   7.365  1.7923 -1.6379 -0.2345
  369TIP3   OH225301   2.595   1.486   7.954 -0.1545  0.3198  0.0524
  369TIP3    H125302   2.581   1.400   7.994  1.3021  0.7732  1.6192
  369TIP3    H225303   2.507   1.520   7.940 -0.7306 -0.7582  0.9079
  370TIP3   OH225304   3.444   0.348   9.424  0.0666  0.2670  0.0625
  370TIP3    H125305   3.518   0.307   9.379  0.8956  0.1420  1.4815
  370TIP3    H225306   3.375   0.282   9.422  1.2440 -1.1179  1.9385
  371TIP3   OH225307   5.742   1.933   7.941  0.0769  0.4356  0.2364
  371TIP3    H125308   5.796   1.981   7.877  0.8318 -0.9799 -0.2377
  371TIP3    H225309   5.657   1.925   7.899  0.5522 -0.4380 -0.6081
  372TIP3   OH225310   5.068   2.707   7.433  0.2781  0.8041  0.0023
  372TIP3    H125311   5.009   2.712   7.508 -1.2414 -0.3766 -1.0482
  372TIP3    H225312   5.050   2.786   7.382 -0.0978  0.6501 -0.1041
  373TIP3   OH225313   5.188   0.297   7.682  0.4605 -0.0420 -0.2995
  373TIP3    H125314   5.156   0.238   7.750 -2.1945  0.8048 -0.7117
  373TIP3    H225315   5.204   0.380   7.729  2.0052 -0.4082 -0.1294
  374TIP3   OH225316   2.461   7.115   9.238 -0.0390 -0.6498  0.0353
  374TIP3    H125317   2.386   7.174   9.233  0.4415 -0.0106  0.1951
  374TIP3    H225318   2.423   7.028   9.250 -0.7403 -0.2565  0.7698
  375TIP3   OH225319   0.475   6.923   9.095 -0.0392  0.4358  0.0219
  375TIP3    H125320   0.438   6.866   9.029  0.8977 -0.0401 -0.1151
  375TIP3    H225321   0.499   6.865   9.167 -0.2578  0.8305  0.4187
  376TIP3   OH225322   0.968   1.477   9.247 -0.2899 -0.4470  0.2505
  376TIP3    H125323   1.002   1.515   9.329  1.1515 -1.1274 -0.0057
  376TIP3    H225324   0.923   1.549   9.204  1.5309  0.7407  0.2468
  377TIP3   OH225325   1.365   5.454   8.761 -0.5369  0.2483 -0.0362
  377TIP3    H125326   1.270   5.451   8.775 -0.9271 -0.8242 -2.3413
  377TIP3    H225327   1.395   5.365   8.783 -0.6272 -0.3801 -2.1857
  378TIP3   OH225328   2.815   3.024   8.174 -0.1126 -0.4559  0.7723
  378TIP3    H125329   2.731   2.980   8.188 -0.3243 -0.1969  0.3441
  378TIP3    H225330   2.864   3.008   8.255  1.3501 -4.8195 -0.7026
  379TIP3   OH225331   6.244   0.744   8.103  0.2154 -0.9059 -0.0584
  379TIP3    H125332   6.181   0.777   8.167  0.9966  0.2697  0.1466
  379TIP3    H225333   6.193   0.685   8.047 -0.9452 -0.3767  0.4033
  380TIP3   OH225334   1.229   6.055   9.212 -0.5148 -0.2718  0.0775
  380TIP3    H125335   1.230   5.978   9.156  1.2569 -0.8536  0.8257
  380TIP3    H225336   1.308   6.104   9.187 -0.0849 -0.1789  1.5105
  381TIP3   OH225337   0.443   2.947   6.875  0.4203  0.2430 -0.4081
  381TIP3    H125338   0.368   2.889   6.864  1.0463 -0.6496 -0.0723
  381TIP3    H225339   0.509   2.893   6.918  1.4917  0.8182 -1.2756
  382TIP3   OH225340   0.076   4.902   8.519  0.3857  0.5312 -0.2633
  382TIP3    H125341  -0.008   4.947   8.521  0.9388  1.6040 -0.3678
  382TIP3    H225342   0.062   4.821   8.569 -0.6822  0.7168 -0.2476
  383TIP3   OH225343   0.331   6.267   7.855 -0.2079 -0.3550 -0.1928
  383TIP3    H125344   0.287   6.196   7.809 -0.4432  0.0223 -0.5616
  383TIP3    H225345   0.296   6.347   7.815 -1.5437  0.0471  1.6226
  384TIP3   OH225346   6.053   7.291   9.285 -0.5713 -0.5945 -0.6862
  384TIP3    H125347   6.126   7.353   9.292 -2.0179  1.4499 -2.3073
  384TIP3    H225348   6.091   7.206   9.308  1.5639  0.8091  1.5012
  385TIP3   OH225349   3.746   5.902   8.053  0.1948 -0.3503 -0.2500
  385TIP3    H125350   3.814   5.903   8.121  0.3982 -0.2458 -0.4541
  385TIP3    H225351   3.789   5.937   7.975  0.3206 -1.6221 -0.7851
  386TIP3   OH225352   2.947   5.787   6.957 -0.1347  0.9800 -0.1190
  386TIP3    H125353   2.994   5.751   7.032  1.0585  0.3485 -1.1309
  386TIP3    H225354   2.981   5.738   6.882 -0.3657  2.4707 -1.2332
  387TIP3   OH225355   5.313   6.253   7.639 -0.2814 -0.3942 -0.0590
  387TIP3    H125356   5.396   6.251   7.591  0.1930 -1.5830  0.7645
  387TIP3    H225357   5.331   6.207   7.721 -1.3679  0.6168  0.7943
  388TIP3   OH225358   3.822   5.866   8.515  0.1363 -0.0173 -0.5704
  388TIP3    H125359   3.827   5.891   8.607  0.2247 -0.4451 -0.4564
  388TIP3    H225360   3.767   5.788   8.514  1.1619 -0.7640 -0.7186
  389TIP3   OH225361   5.632   3.607   8.036 -0.2274  0.0369  0.4357
  389TIP3    H125362   5.658   3.518   8.012 -0.3193  0.7323 -2.7312
  389TIP3    H225363   5.569   3.596   8.107  0.1381 -2.3812  0.4637
  390TIP3   OH225364   6.903   2.133   7.419 -0.0326 -0.0738 -0.4094
  390TIP3    H125365   6.855   2.207   7.382  0.9463  0.7376 -0.1191
  390TIP3    H225366   6.855   2.110   7.498 -0.1661  0.4810 -0.3231
  391TIP3   OH225367   2.261   6.322   8.864 -0.0182  0.2452 -0.0097
  391TIP3    H125368   2.342   6.369   8.884  0.2606 -0.3413  0.2812
  391TIP3    H225369   2.214   6.378   8.803 -0.3437  1.5511  1.3967
  392TIP3   OH225370   0.543   0.070   8.722  0.0126  0.1680 -0.0115
  392TIP3    H125371   0.604   0.029   8.783 -1.0534 -1.1840  0.1965
  392TIP3    H225372   0.463   0.084   8.772 -0.2137  0.9443 -0.5612
  393TIP3   OH225373   5.381   4.607   8.134  0.1695  0.0932  0.2432
  393TIP3    H125374   5.427   4.526   8.159 -1.5874 -0.4760  1.9082
  393TIP3    H225375   5.444   4.677   8.153  0.5089 -0.6659  2.1828
  394TIP3   OH225376   7.231   2.930   7.556  0.2055  0.3261  0.2617
  394TIP3    H125377   7.192   2.849   7.588  0.7073 -0.2116 -0.4491
  394TIP3    H225378   7.195   2.998   7.613 -1.3284 -0.2028 -0.0306
  395TIP3   OH225379   6.024   7.175   6.710  0.2698  0.1642 -0.0309
  395TIP3    H125380   5.980   7.252   6.673  0.2779  0.1934  0.0206
  395TIP3    H225381   6.117   7.195   6.705  0.2234  1.4357  2.7158
  396TIP3   OH225382   0.183   6.341   8.118  0.4125  0.1303  0.6921
  396TIP3    H125383   0.211   6.307   8.033 -0.4686  0.2985  0.3298
  396TIP3    H225384   0.120   6.410   8.097 -0.1877 -0.1641  1.4855
  397TIP3   OH225385   5.698   6.733   8.456 -0.4175  0.6990  0.1255
  397TIP3    H125386   5.624   6.743   8.396 -0.0728  0.9879 -0.2583
  397TIP3    H225387   5.673   6.660   8.513 -1.1183  0.9752  0.1838
  398TIP3   OH225388   4.955   6.800   8.222 -0.5450  0.0656  0.2200
  398TIP3    H125389   4.932   6.728   8.281  0.1908 -0.2591  0.1281
  398TIP3    H225390   4.874   6.819   8.175 -0.4409 -1.6030 -0.7010
  399TIP3   OH225391   1.183   2.948   9.408 -0.3573 -0.6361 -0.2009
  399TIP3    H125392   1.235   3.019   9.371 -0.5354 -0.1719  0.4228
  399TIP3    H225393   1.208   2.870   9.358  1.5085 -0.5782  0.5734
  400TIP3   OH225394   2.900   7.420   8.190  0.0802 -0.1007  0.1183
  400TIP3    H125395   2.906   7.362   8.114 -0.3612 -0.6100  0.4644
  400TIP3    H225396   2.835   7.379   8.247 -0.7763  1.1085  0.0516
  401TIP3   OH225397   4.827   4.550   8.558  0.1316  0.5328  0.4339
  401TIP3    H125398   4.862   4.461   8.556 -2.7790 -0.7254  0.3975
  401TIP3    H225399   4.798   4.566   8.468  0.8104  1.6523  0.3855
  402TIP3   OH225400   2.315   6.626   8.763 -0.1598  0.1847  0.0785
  402TIP3    H125401   2.361   6.605   8.682 -1.4851 -1.5992 -0.2671
  402TIP3    H225402   2.266   6.706   8.744 -1.6311 -1.0149 -1.4190
  403TIP3   OH225403   7.085   2.404   9.061 -0.3061  0.7067  0.0875
  403TIP3    H125404   7.164   2.350   9.071 -0.8432  0.0107  0.6918
  403TIP3    H225405   7.013   2.344   9.080 -1.0223  1.1760 -1.0898
  404TIP3   OH225406   1.332   4.668   9.415 -0.7187 -0.5246 -0.4175
  404TIP3    H125407   1.333   4.612   9.492 -0.3648  0.2929  0.1947
  404TIP3    H225408   1.406   4.638   9.362 -0.3275 -0.4351  0.0651
  405TIP3   OH225409   1.038   1.503   8.073 -0.0158 -0.7695 -0.2314
  405TIP3    H125410   1.128   1.482   8.046  0.9283  1.3243  1.0767
  405TIP3    H225411   1.040   1.596   8.094 -2.2457 -0.9032  0.8587
  406TIP3   OH225412   2.078   6.342   8.615 -0.2862  0.3573 -0.0061
  406TIP3    H125413   2.090   6.382   8.529 -0.0812 -1.6827 -0.9829
  406TIP3    H225414   2.063   6.249   8.597 -0.7124 -0.0573  2.1459
  407TIP3   OH225415   2.707   0.308   9.139 -0.3046 -0.7841 -0.1463
  407TIP3    H125416   2.634   0.341   9.087  0.4387 -0.0898 -0.7692
  407TIP3    H225417   2.671   0.233   9.187 -1.1925 -0.9648 -1.0804
  408TIP3   OH225418   5.496   4.344   8.119 -0.0166 -0.7451 -0.0489
  408TIP3    H125419   5.442   4.270   8.149 -1.5314 -0.5389 -2.0378
  408TIP3    H225420   5.557   4.305   8.056 -1.9866 -0.2174 -2.4915
  409TIP3   OH225421   6.969   4.556   8.421  0.3064  0.2893 -0.3829
  409TIP3    H125422   6.894   4.521   8.374  0.1177  0.9536 -0.5836
  409TIP3    H225423   6.993   4.635   8.373  1.5953 -0.2975 -0.7501
  410TIP3   OH225424   6.177   1.928   7.610  0.0194  0.3019 -0.6831
  410TIP3    H125425   6.271   1.934   7.622  0.3487 -0.8642 -2.3126
  410TIP3    H225426   6.152   2.012   7.571  0.5810  0.2122 -1.2552
  411TIP3   OH225427   7.003   2.063   8.827 -0.1861  0.2095 -0.0907
  411TIP3    H125428   6.999   2.141   8.771  0.8154  0.0352 -0.4260
  411TIP3    H225429   6.974   2.094   8.913  1.8401  1.4050  0.2220
  412TIP3   OH225430   3.646   6.470   9.068  0.0923 -0.7089  0.1373
  412TIP3    H125431   3.704   6.533   9.111 -0.3341 -0.6565  0.6507
  412TIP3    H225432   3.704   6.413   9.019  0.4910  0.0841 -0.3374
  413TIP3   OH225433   1.319   2.194   7.309  0.5419 -0.2105  0.1455
  413TIP3    H125434   1.413   2.211   7.311  0.7390 -1.0916 -0.8362
  413TIP3    H225435   1.311   2.104   7.280 -0.6410  0.2120 -0.9325
  414TIP3   OH225436   5.939   4.185   8.625  0.3336  0.1586  0.2729
  414TIP3    H125437   5.951   4.097   8.589  2.8230 -0.0901  1.4892
  414TIP3    H225438   5.950   4.174   8.720  1.7436  1.8914  0.3693
  415TIP3   OH225439   4.636   6.233   8.615  0.5321  0.0012  0.5149
  415TIP3    H125440   4.572   6.191   8.673 -0.8544  0.2725 -0.7426
  415TIP3    H225441   4.655   6.317   8.658 -0.2825  0.0953  0.7207
  416TIP3   OH225442   5.881   0.602   9.211 -0.5456 -0.0122 -0.2304
  416TIP3    H125443   5.855   0.691   9.232 -0.0986 -0.4484  2.7237
  416TIP3    H225444   5.822   0.547   9.263 -0.3291 -1.4111 -1.4060
  417TIP3   OH225445   7.142   3.778   7.924  0.0844 -0.0040  0.7318
  417TIP3    H125446   7.214   3.773   7.986  1.4696  0.0973 -0.8007
  417TIP3    H225447   7.122   3.686   7.904  1.7801 -0.0802 -0.9652
  418TIP3   OH225448   2.523   0.425   8.981  0.3489 -0.1279  0.3969
  418TIP3    H125449   2.589   0.491   8.959  1.4058 -0.8878  1.1974
  418TIP3    H225450   2.489   0.397   8.896 -0.5182  1.7962  0.0496
  419TIP3   OH225451   3.199   5.923   9.602 -0.0632  0.1437 -0.6406
  419TIP3    H125452   3.181   5.952   9.513 -1.6578 -2.0086 -1.1000
  419TIP3    H225453   3.290   5.946   9.617  0.5062 -0.2262 -3.1670
  420TIP3   OH225454   2.583   4.529   7.401  0.6518  0.4588 -0.4755
  420TIP3    H125455   2.629   4.514   7.318  1.5644  0.1870  0.0664
  420TIP3    H225456   2.495   4.553   7.375  0.6299 -0.6461 -1.5102
  421TIP3   OH225457   0.151   7.004   7.626  0.6135  0.0031 -0.0864
  421TIP3    H125458   0.246   7.001   7.637  0.6036 -1.2453 -0.2281
  421TIP3    H225459   0.124   7.082   7.675  1.6631  0.1764  0.2484
  422TIP3   OH225460   6.814   6.246   8.675 -0.3462 -0.5096 -0.1578
  422TIP3    H125461   6.766   6.170   8.642  0.6138 -2.0680  1.8148
  422TIP3    H225462   6.819   6.232   8.770 -0.9390  2.5185  0.4314
  423TIP3   OH225463   0.819   7.296   7.793  0.5027  0.2536 -0.4355
  423TIP3    H125464   0.863   7.329   7.871  1.4701 -1.4637 -0.2027
  423TIP3    H225465   0.802   7.204   7.811 -1.5959  0.4075 -1.2630
  424TIP3   OH225466   7.506   3.187   8.250 -0.1292  0.0344  0.2041
  424TIP3    H125467   7.579   3.208   8.193  0.4163 -0.9742  0.5078
  424TIP3    H225468   7.528   3.102   8.288 -1.4640 -0.3055  0.2916
  425TIP3   OH225469   0.313   2.105   8.871  1.1809  0.0294 -0.0372
  425TIP3    H125470   0.338   2.197   8.876 -0.6941  0.6228 -0.7385
  425TIP3    H225471   0.241   2.102   8.808  1.3941 -1.9673 -0.2650
  426TIP3   OH225472   0.947   3.892   7.563 -0.3462 -0.0187 -0.6481
  426TIP3    H125473   0.994   3.810   7.576  2.8704  1.5757 -1.1397
  426TIP3    H225474   0.908   3.911   7.648  0.2233 -1.2704 -0.0796
  427TIP3   OH225475   3.713   3.034   7.939  0.4800 -0.5587 -0.0933
  427TIP3    H125476   3.669   3.105   7.986  2.0096 -0.6943  1.6233
  427TIP3    H225477   3.646   3.001   7.878 -0.1859  2.5463 -1.2452
  428TIP3   OH225478   6.393   1.039   9.139  0.4069  0.2258 -0.0070
  428TIP3    H125479   6.308   1.011   9.105  0.4614 -1.0045  0.7968
  428TIP3    H225480   6.373   1.117   9.191 -0.2777 -0.1631  0.3346
  429TIP3   OH225481   4.394   0.370   7.887  0.2027 -0.2055  0.0369
  429TIP3    H125482   4.430   0.354   7.974 -1.6444 -0.9393  0.6943
  429TIP3    H225483   4.366   0.284   7.856 -0.1592  0.2128 -0.8433
  430TIP3   OH225484   6.027   0.900   8.900  0.1593  0.6579  0.5407
  430TIP3    H125485   6.037   0.952   8.979  1.5986 -0.4840  1.1550
  430TIP3    H225486   6.107   0.848   8.895 -0.4318 -0.1751 -1.0195
  431TIP3   OH225487   7.514   6.969   8.751  0.1072 -0.3882 -0.2476
  431TIP3    H125488   7.547   6.997   8.666  0.1596  0.1564 -0.0492
  431TIP3    H225489   7.540   6.877   8.758 -0.0847 -0.4996 -0.9084
  432TIP3   OH225490   4.030   4.069   7.916 -0.1679 -0.2865  0.0950
  432TIP3    H125491   4.058   4.144   7.864  0.6007 -1.5559 -1.4187
  432TIP3    H225492   3.939   4.055   7.893  0.2969 -1.1411 -1.3830
  433TIP3   OH225493   3.774   4.832   8.525 -0.3015  0.1648 -0.2200
  433TIP3    H125494   3.702   4.779   8.560  2.0704 -1.9167  1.9273
  433TIP3    H225495   3.815   4.777   8.459  0.7622  0.2811  0.3243
  434TIP3   OH225496   0.154   3.096   7.759 -0.0476  0.0130 -0.2521
  434TIP3    H125497   0.087   3.158   7.788 -0.4442 -0.9350  0.9247
  434TIP3    H225498   0.205   3.077   7.838  0.4120 -0.7450 -0.7157
  435TIP3   OH225499   1.522   4.546   9.263 -0.3320  0.0165  0.1549
  435TIP3    H125500   1.506   4.463   9.219  0.4303  0.0428 -0.1803
  435TIP3    H225501   1.519   4.611   9.193  0.6709  0.0850  0.1674
  436TIP3   OH225502   1.557   5.661   7.983 -0.0623  0.4977 -0.2775
  436TIP3    H125503   1.541   5.604   8.058  1.4765 -0.6982 -0.8002
  436TIP3    H225504   1.565   5.748   8.020  1.8278 -0.2170  1.1505
  437TIP3   OH225505   1.634   5.581   8.616  0.3748  0.5737 -0.0538
  437TIP3    H125506   1.560   5.573   8.676  1.4091  0.5462  1.2729
  437TIP3    H225507   1.643   5.494   8.578  1.0457 -0.0465  1.4334
  438TIP3   OH225508   6.274   6.692   7.345  0.7072  0.0395  0.2101
  438TIP3    H125509   6.287   6.764   7.406  0.0345 -1.2208  1.9110
  438TIP3    H225510   6.356   6.643   7.348  0.4523 -0.3742  0.6162
  439TIP3   OH225511   3.647   1.157   8.737 -0.1398 -0.3784 -0.6104
  439TIP3    H125512   3.720   1.219   8.733 -0.3168 -0.1663 -0.5889
  439TIP3    H225513   3.671   1.096   8.807 -0.8241  0.7834  0.6929
  440TIP3   OH225514   0.728   4.900   9.401  0.0225  0.8295  0.3964
  440TIP3    H125515   0.673   4.976   9.421  1.5695  1.8567  0.8829
  440TIP3    H225516   0.786   4.931   9.331 -0.3527 -0.4003 -0.4791
  441TIP3   OH225517   6.828   0.416   8.162 -0.5012 -0.4395  0.1235
  441TIP3    H125518   6.909   0.451   8.200 -0.8661  1.8358 -1.0214
  441TIP3    H225519   6.760   0.437   8.227 -0.3491 -1.4464  0.6264
  442TIP3   OH225520   2.036   6.843   8.107  0.1283  0.7126 -0.4909
  442TIP3    H125521   2.128   6.872   8.107  0.5763 -0.5860 -1.8545
  442TIP3    H225522   2.004   6.866   8.020 -0.2274 -0.5900 -0.7262
  443TIP3   OH225523   7.540   4.487   7.583 -0.0742 -0.0574 -0.0188
  443TIP3    H125524   7.541   4.444   7.668 -1.4980  1.8570  1.0520
  443TIP3    H225525   7.489   4.430   7.527 -0.5483 -0.5534  0.8960
  444TIP3   OH225526   2.429   7.623   8.601  0.4238 -0.0208  0.1302
  444TIP3    H125527   2.357   7.561   8.618  1.6365 -1.6351 -0.4441
  444TIP3    H225528   2.406   7.664   8.518  0.5481 -1.1345 -0.4711
  445TIP3   OH225529   1.572   6.570   9.262  0.2489  0.1906  0.0731
  445TIP3    H125530   1.557   6.604   9.174 -0.4809  0.1089  0.1574
  445TIP3    H225531   1.484   6.550   9.295  0.6497 -2.2279 -0.1553
  446TIP3   OH225532   1.796   6.014   8.108 -0.4627  0.0086 -0.1887
  446TIP3    H125533   1.787   6.077   8.036 -2.2537 -0.7455 -0.6616
  446TIP3    H225534   1.844   6.062   8.175 -1.0565  1.6088 -0.8603
  447TIP3   OH225535   7.620   4.925   7.198  0.5850  0.2411  0.5100
  447TIP3    H125536   7.689   4.871   7.236 -0.0298 -1.2444 -0.3940
  447TIP3    H225537   7.595   4.986   7.268  0.7969 -1.1385  1.8293
  448TIP3   OH225538   7.059   2.222   8.502 -0.1874  0.3936  0.0245
  448TIP3    H125539   7.023   2.197   8.417 -0.2322 -1.7389  0.5991
  448TIP3    H225540   6.983   2.242   8.556 -0.4757 -1.8510  0.5652
  449TIP3   OH225541   6.547   5.265   7.288  0.6854  1.0327  0.4452
  449TIP3    H125542   6.529   5.278   7.195 -2.7496  1.9732  1.0934
  449TIP3    H225543   6.492   5.191   7.313 -0.7500  2.5836  2.2119
  450TIP3   OH225544   0.974   1.263   9.423  0.0805  0.2177 -0.2374
  450TIP3    H125545   0.919   1.189   9.396  1.3739 -0.2434 -1.7597
  450TIP3    H225546   0.948   1.335   9.366 -0.7855  0.8036  0.8668
  451TIP3   OH225547   1.072   0.555   6.882 -0.0986 -0.1057 -0.3470
  451TIP3    H125548   0.979   0.560   6.860 -0.5663  0.1413  1.5233
  451TIP3    H225549   1.102   0.646   6.882  0.1867 -0.1923 -1.0465
  452TIP3   OH225550   0.425   6.926   7.462 -0.0588  0.1612 -0.4115
  452TIP3    H125551   0.450   6.892   7.548  0.0929  0.5896 -0.2834
  452TIP3    H225552   0.494   6.990   7.441 -0.7121  0.9136 -0.3242
  453TIP3   OH225553   2.531   4.827   9.424  0.0732 -0.2481  0.0306
  453TIP3    H125554   2.531   4.911   9.377  2.4001 -0.5383 -0.6072
  453TIP3    H225555   2.452   4.831   9.478 -1.0449  1.4297 -1.5551
  454TIP3   OH225556   2.867   4.445   9.378 -0.0412  0.1914  0.1047
  454TIP3    H125557   2.832   4.487   9.457 -1.3284 -0.1497 -0.2511
  454TIP3    H225558   2.961   4.444   9.391  0.0257  2.7272  0.3600
  455TIP3   OH225559   0.984   6.178   8.428  0.0150 -0.0289 -0.1768
  455TIP3    H125560   0.940   6.153   8.510  1.6738 -0.0241  0.7606
  455TIP3    H225561   0.947   6.118   8.363 -0.9447 -0.4011  0.6670
  456TIP3   OH225562   5.360   2.712   8.689  0.0673 -0.4634  0.5411
  456TIP3    H125563   5.455   2.706   8.681  0.0813  1.2611 -1.4089
  456TIP3    H225564   5.344   2.803   8.716 -1.0666  0.1450 -1.8983
  457TIP3   OH225565   1.424   3.724   8.620  0.1845 -0.2399 -0.9813
  457TIP3    H125566   1.377   3.779   8.557 -0.4605 -0.4021 -0.6488
  457TIP3    H225567   1.364   3.715   8.694  1.3389  0.8717  0.1682
  458TIP3   OH225568   5.197   5.099   7.560 -0.0307 -0.1610 -0.4576
  458TIP3    H125569   5.125   5.143   7.605 -1.0164 -2.2370  0.1254
  458TIP3    H225570   5.204   5.014   7.603  1.2274 -0.9297 -2.0586
  459TIP3   OH225571   3.132   3.148   7.647  0.0629  0.0056  0.0994
  459TIP3    H125572   3.199   3.214   7.630  0.2105 -0.4921 -1.3765
  459TIP3    H225573   3.092   3.175   7.730 -2.0204  3.7519 -1.8695
  460TIP3   OH225574   0.862   2.366   7.384  0.3487 -0.6414 -0.8724
  460TIP3    H125575   0.934   2.328   7.434  1.3456 -0.8150 -2.3671
  460TIP3    H225576   0.805   2.293   7.363  2.1990 -1.4825 -3.6416
  461TIP3   OH225577   0.685   0.670   8.033  0.4441  0.1271  0.1166
  461TIP3    H125578   0.749   0.599   8.030  0.1045 -0.2843  1.6302
  461TIP3    H225579   0.682   0.704   7.943  0.9592 -1.4635 -0.5396
  462TIP3   OH225580   6.843   4.036   7.539  0.0890 -0.7370  0.2309
  462TIP3    H125581   6.796   4.108   7.581 -0.4695 -0.7874 -0.2808
  462TIP3    H225582   6.923   4.025   7.590 -0.0157 -0.0210  0.5553
  463TIP3   OH225583   4.691   4.773   9.799  0.2759  0.1565 -0.0017
  463TIP3    H125584   4.778   4.740   9.777 -0.3591 -1.5645 -0.0916
  463TIP3    H225585   4.687   4.770   9.894  0.4955  0.7447  0.0280
  464TIP3   OH225586   0.337   5.524   8.606 -0.0726 -0.0472  0.4884
  464TIP3    H125587   0.290   5.451   8.646 -1.6816  0.9705  0.5536
  464TIP3    H225588   0.359   5.582   8.678  0.1465  0.0989  0.3067
  465TIP3   OH225589   5.945   3.082   9.843 -0.2930 -0.2856  0.1183
  465TIP3    H125590   5.985   3.099   9.758  2.5819 -2.4151  0.9248
  465TIP3    H225591   5.942   3.168   9.886  2.1604  0.2133 -0.5703
  466TIP3   OH225592   0.699   4.386   9.274  0.1061  0.0113  0.3328
  466TIP3    H125593   0.708   4.427   9.188 -0.4099 -3.0756 -1.3188
  466TIP3    H225594   0.606   4.361   9.279 -0.1696  1.2381  2.3865
  467TIP3   OH225595   3.663   2.169   8.245 -0.1831  0.8136  0.1809
  467TIP3    H125596   3.754   2.190   8.224 -0.3195  1.4139  0.1829
  467TIP3    H225597   3.654   2.193   8.337 -0.3507  0.7621  0.1784
  468TIP3   OH225598   3.314   7.085   9.689 -0.3287 -0.2084 -0.1196
  468TIP3    H125599   3.340   7.029   9.616  1.8015  0.5370 -0.0046
  468TIP3    H225600   3.364   7.052   9.764 -0.7883  0.4250  0.4806
  469TIP3   OH225601   7.447   4.851   9.392  0.6726 -0.2157  0.2824
  469TIP3    H125602   7.513   4.790   9.425  0.3634 -1.3141 -1.0424
  469TIP3    H225603   7.495   4.909   9.333  0.6339 -0.4348  0.0307
  470TIP3   OH225604   4.461   3.188   9.318  0.5005  0.0558 -0.5033
  470TIP3    H125605   4.472   3.106   9.270  0.0323  0.5372 -1.4537
  470TIP3    H225606   4.545   3.233   9.309  0.1208  0.5560 -1.6784
  471TIP3   OH225607   5.366   7.417   9.579 -0.3180  0.3462 -0.2874
  471TIP3    H125608   5.433   7.479   9.611 -1.2318  1.5677 -0.6771
  471TIP3    H225609   5.414   7.359   9.521  0.5653  0.7149  0.0440
  472TIP3   OH225610   3.845   6.283   7.825  0.1147 -0.0428 -0.4624
  472TIP3    H125611   3.901   6.350   7.786 -0.9000  0.5803 -0.8854
  472TIP3    H225612   3.894   6.252   7.901  2.1297 -1.2500 -2.1511
  473TIP3   OH225613   7.657   3.041   7.536  0.0220 -0.4968  0.1898
  473TIP3    H125614   7.627   3.128   7.512  0.7630 -0.2766  0.0314
  473TIP3    H225615   7.741   3.056   7.580 -0.8016 -0.9700  2.0118
  474TIP3   OH225616   7.009   4.056   8.442  0.1649 -0.0658  0.0414
  474TIP3    H125617   6.947   4.073   8.372  0.4267  0.0912 -0.1544
  474TIP3    H225618   6.992   4.124   8.507  1.0632  0.8359 -0.6394
  475TIP3   OH225619   3.489   4.044   8.351 -0.5738 -0.0455  0.1116
  475TIP3    H125620   3.407   4.043   8.301 -1.2185 -1.7884  1.1401
  475TIP3    H225621   3.558   4.046   8.284 -1.4265 -1.2779 -0.8387
  476TIP3   OH225622   4.363   6.370   9.763  0.1889  0.2123 -0.1002
  476TIP3    H125623   4.294   6.400   9.704  0.6691 -0.7513 -1.1792
  476TIP3    H225624   4.399   6.293   9.721  0.2873 -0.7615  1.6583
  477TIP3   OH225625   5.649   3.328   8.273 -0.0132  0.4398  0.5534
  477TIP3    H125626   5.695   3.258   8.320  0.3934 -0.2827 -0.8698
  477TIP3    H225627   5.703   3.406   8.287  2.4587 -0.6310 -2.0938
  478TIP3   OH225628   6.401   6.100   8.897 -0.5551  0.2935 -1.0064
  478TIP3    H125629   6.322   6.050   8.920 -0.1490 -0.3745 -1.0196
  478TIP3    H225630   6.393   6.182   8.944  0.5374 -1.2465  2.1400
  479TIP3   OH225631   2.581   3.696   8.542 -0.0227 -0.0804 -0.6737
  479TIP3    H125632   2.512   3.759   8.520  0.2418  0.6683  0.5648
  479TIP3    H225633   2.632   3.739   8.610  1.2196 -0.9419 -1.0259
  480TIP3   OH225634   7.056   6.499   8.532  0.2578 -0.2643  0.2361
  480TIP3    H125635   7.076   6.433   8.466 -0.0064 -0.5733  0.4620
  480TIP3    H225636   6.963   6.486   8.551  1.0065 -2.5310  3.1925
  481TIP3   OH225637   0.016   5.440   7.762 -0.2789  0.3982 -0.3447
  481TIP3    H125638  -0.071   5.480   7.768  0.2800  1.4448  1.3414
  481TIP3    H225639   0.016   5.373   7.830  1.0054  2.0710  1.4377
  482TIP3   OH225640   5.407   2.679   9.498 -0.2630 -0.5846  0.3073
  482TIP3    H125641   5.330   2.705   9.548 -0.4808  0.5675 -0.5835
  482TIP3    H225642   5.479   2.685   9.561 -0.7503 -0.7182  0.8888
  483TIP3   OH225643   6.710   6.473   8.431 -0.2951  0.2728  0.4083
  483TIP3    H125644   6.717   6.397   8.374  1.8192  0.5349  0.2326
  483TIP3    H225645   6.698   6.437   8.519  1.4484 -0.3206  0.4286
  484TIP3   OH225646   6.281   4.986   7.885  0.7241 -0.5171 -0.6235
  484TIP3    H125647   6.308   4.915   7.943 -0.1481 -0.5335 -0.2088
  484TIP3    H225648   6.362   5.026   7.854  1.2099 -1.2729 -0.3315
  485TIP3   OH225649   1.345   7.227   8.795 -0.0861  0.0430  0.0878
  485TIP3    H125650   1.402   7.229   8.718 -0.8615  0.2799 -0.5000
  485TIP3    H225651   1.304   7.313   8.796 -1.3481 -0.5257 -0.2305
  486TIP3   OH225652   0.878   1.918   7.401  0.3353  0.2319 -0.3802
  486TIP3    H125653   0.956   1.914   7.344  1.2026  1.7691  0.6253
  486TIP3    H225654   0.906   1.875   7.482 -0.0038  0.4278 -0.1604
  487TIP3   OH225655   3.865   0.012   9.090  0.0863 -0.6969  0.6776
  487TIP3    H125656   3.788   0.051   9.050  0.8148 -0.8119 -0.8946
  487TIP3    H225657   3.830  -0.061   9.143 -0.8578 -0.9584 -0.2744
  488TIP3   OH225658   2.970   4.420   7.893  0.1291  0.5318  0.3508
  488TIP3    H125659   2.982   4.397   7.801  0.0093 -0.5653  0.5990
  488TIP3    H225660   2.921   4.503   7.891  0.1120  0.5080 -0.5644
  489TIP3   OH225661   0.638   6.362   9.226  0.6943 -0.3641  0.2967
  489TIP3    H125662   0.664   6.275   9.256  0.1400 -1.2120 -1.5675
  489TIP3    H225663   0.576   6.345   9.155 -1.6579  1.5415  1.7131
  490TIP3   OH225664   5.063   5.194   7.315 -0.2000  0.1179  0.3329
  490TIP3    H125665   5.136   5.249   7.286 -0.9240  0.8705 -0.1254
  490TIP3    H225666   5.094   5.153   7.396  0.6532  0.5645  0.2473
  491TIP3   OH225667   7.513   3.510   7.897  0.2114 -0.1558 -0.6417
  491TIP3    H125668   7.519   3.549   7.984 -2.1290  0.2340 -0.6123
  491TIP3    H225669   7.511   3.584   7.837  1.1449 -0.4129 -1.0217
  492TIP3   OH225670   5.274   6.766   9.105  0.2861  0.1030  0.0401
  492TIP3    H125671   5.181   6.752   9.091  0.3969 -1.4655  0.6786
  492TIP3    H225672   5.294   6.719   9.186  1.3224  1.7615  0.8049
  493TIP3   OH225673   4.035   7.357   8.006  0.1710  0.1378 -0.1586
  493TIP3    H125674   3.952   7.312   8.024  0.1666  0.5587  0.9769
  493TIP3    H225675   4.033   7.374   7.912 -1.3526  0.7585 -0.0454
  494TIP3   OH225676   3.469   6.730   8.988 -0.1585 -0.3440  0.5843
  494TIP3    H125677   3.551   6.716   9.036 -0.1885  0.7826  0.9891
  494TIP3    H225678   3.409   6.665   9.025  0.3272 -0.6655  0.8284
  495TIP3   OH225679   5.361   3.363   8.927 -0.3186  0.3878 -0.2737
  495TIP3    H125680   5.282   3.309   8.918  0.3190 -0.4099 -1.3165
  495TIP3    H225681   5.427   3.318   8.874  0.8535  1.0315  0.5892
  496TIP3   OH225682   1.308   6.072   7.695  0.0870  0.6767  0.4831
  496TIP3    H125683   1.261   6.133   7.751  0.7325  1.1121  0.5696
  496TIP3    H225684   1.400   6.081   7.722  0.0676 -1.3224  1.4682
  497TIP3   OH225685   2.100   6.587   6.838  0.3750  0.3379 -0.3922
  497TIP3    H125686   2.156   6.661   6.861  1.0228  0.7920 -3.1289
  497TIP3    H225687   2.011   6.617   6.856  0.7266  1.1475  0.0345
  498TIP3   OH225688   3.507   7.128   7.345  0.5149 -0.0638 -0.1909
  498TIP3    H125689   3.490   7.085   7.261 -0.7509 -0.2576  0.1479
  498TIP3    H225690   3.538   7.057   7.402 -0.9391 -0.4384  0.1773
  499TIP3   OH225691   5.680   3.365   9.033  0.1118 -0.2907  0.0485
  499TIP3    H125692   5.655   3.297   8.970  0.5715 -0.4668  0.0525
  499TIP3    H225693   5.680   3.446   8.981 -1.8668 -0.0359  0.3617
  500TIP3   OH225694   0.483   6.221   8.076  0.0057 -0.1128  0.6495
  500TIP3    H125695   0.428   6.247   8.002 -0.2892  0.8207  1.1694
  500TIP3    H225696   0.437   6.147   8.115 -1.3529  1.1447  1.5521
  501TIP3   OH225697   6.841   2.775   8.072 -0.3063 -0.4041 -0.2457
  501TIP3    H125698   6.889   2.799   7.992 -0.0272 -0.6835 -0.1622
  501TIP3    H225699   6.844   2.854   8.126  0.1815 -0.4637 -0.1821
  502TIP3   OH225700   0.961   5.505   7.415  0.1777  0.2818 -0.2215
  502TIP3    H125701   0.925   5.518   7.502  2.6100 -0.2060  0.9300
  502TIP3    H225702   1.024   5.576   7.403  0.0328  0.2266 -1.5127
  503TIP3   OH225703   3.396   1.837   8.265 -0.1484  0.0057  0.2199
  503TIP3    H125704   3.436   1.868   8.345 -2.1893  1.6126  0.6838
  503TIP3    H225705   3.449   1.875   8.195  0.9272 -0.4382  0.7669
  504TIP3   OH225706   0.359   7.346   7.910 -0.2578  0.1784 -0.7372
  504TIP3    H125707   0.419   7.272   7.902 -1.4273 -0.6765 -2.2117
  504TIP3    H225708   0.320   7.336   7.997  0.8426  0.0771 -0.2388
  505TIP3   OH225709   4.758   6.738   9.516 -0.0870 -0.9257 -0.0980
  505TIP3    H125710   4.846   6.754   9.552 -0.1078 -0.8860 -0.0640
  505TIP3    H225711   4.727   6.824   9.489 -1.4105 -0.3706  2.8223
  506TIP3   OH225712   1.642   3.568   7.807 -0.2753  0.5197 -0.2278
  506TIP3    H125713   1.636   3.635   7.740  0.3636  1.4858  0.6427
  506TIP3    H225714   1.675   3.614   7.884  3.0924 -1.2978 -0.3944
  507TIP3   OH225715   4.436   6.050   9.658  0.1781  0.0770  0.5011
  507TIP3    H125716   4.514   6.105   9.649 -0.9466  1.9325  1.5406
  507TIP3    H225717   4.467   5.971   9.703  1.7784 -0.0485 -0.7490
  508TIP3   OH225718   6.299   6.001   9.467 -0.2876  0.1043  0.3382
  508TIP3    H125719   6.361   5.971   9.533  0.6412  0.4530 -0.3633
  508TIP3    H225720   6.215   6.004   9.513  0.0915 -0.9494  1.1401
  509TIP3   OH225721   4.610   2.017   8.397 -0.6511  0.2938  0.4232
  509TIP3    H125722   4.619   2.029   8.302  0.7524  0.7154  0.5973
  509TIP3    H225723   4.587   2.103   8.430 -2.3149 -0.0957  0.3592
  510TIP3   OH225724   0.960   1.761   7.642  0.3691  0.2570  0.1127
  510TIP3    H125725   0.881   1.717   7.675  0.3160  0.1872 -0.1071
  510TIP3    H225726   1.021   1.690   7.622  0.8165  0.3443  1.1031
  511TIP3   OH225727   3.736   5.993   6.916 -0.4421  0.7357 -0.5509
  511TIP3    H125728   3.771   6.070   6.961 -0.0130 -0.4760  1.2657
  511TIP3    H225729   3.810   5.933   6.909 -1.0485 -0.0014 -0.8667
  512TIP3   OH225730   1.302   0.230   7.820  0.4779 -0.1920 -0.3135
  512TIP3    H125731   1.296   0.308   7.764 -4.8420  0.9708  1.2489
  512TIP3    H225732   1.266   0.159   7.766 -1.3292  0.1555  0.3474
  513TIP3   OH225733   0.929   6.735   8.008 -0.1319  0.2990 -0.0231
  513TIP3    H125734   0.954   6.736   7.915 -1.7409 -0.7480 -0.5171
  513TIP3    H225735   0.857   6.798   8.014 -0.3805 -0.0194  0.3940
  514TIP3   OH225736   7.674   4.615   8.716  0.1303 -0.5255 -0.2571
  514TIP3    H125737   7.629   4.533   8.734 -2.1359  1.2666  3.7340
  514TIP3    H225738   7.609   4.668   8.670  0.8724 -0.3130 -1.0771
  515TIP3   OH225739   3.999   5.903   8.763  0.2816 -0.0835  0.0703
  515TIP3    H125740   4.051   5.944   8.832  0.8323 -0.7138  0.0336
  515TIP3    H225741   3.988   5.973   8.698 -0.6704  0.6741  1.0025
  516TIP3   OH225742   6.410   1.728   7.215  0.2928  0.0710 -0.0128
  516TIP3    H125743   6.417   1.654   7.276  3.8764  0.0561 -0.1983
  516TIP3    H225744   6.411   1.688   7.128  0.7903  0.2329 -0.0901
  517TIP3   OH225745   6.642   5.151   8.211  0.1631  0.5094 -0.2053
  517TIP3    H125746   6.676   5.074   8.166 -0.2171  1.4083 -2.1931
  517TIP3    H225747   6.547   5.136   8.216  0.3503 -0.2466  1.7344
  518TIP3   OH225748   2.564   3.561   8.897 -0.2916  1.0770  0.2480
  518TIP3    H125749   2.600   3.632   8.844 -1.1829  1.4963  0.1814
  518TIP3    H225750   2.584   3.585   8.988  2.0913 -0.1181  0.1124
  519TIP3   OH225751   5.725   4.985   8.377  0.2238  0.3991  0.2689
  519TIP3    H125752   5.688   4.941   8.454 -0.4633  0.6806  0.1108
  519TIP3    H225753   5.669   5.062   8.364  0.7808  0.7537 -0.0775
  520TIP3   OH225754   0.699   1.291   8.271  0.4653 -0.2240  0.0299
  520TIP3    H125755   0.709   1.279   8.366 -0.3689 -2.6717 -0.1277
  520TIP3    H225756   0.654   1.212   8.242  1.2656  0.1909 -2.5221
  521TIP3   OH225757   7.419   2.303   8.116 -0.3441  0.0599 -0.4520
  521TIP3    H125758   7.405   2.276   8.207  1.2343  0.6976  0.0175
  521TIP3    H225759   7.449   2.393   8.122 -1.8790  0.7155 -1.7527
  522TIP3   OH225760   5.730   6.937   6.788 -0.2302  0.3437 -0.2658
  522TIP3    H125761   5.710   6.929   6.695  0.8610  1.7234 -0.6627
  522TIP3    H225762   5.673   6.873   6.831  0.0516 -1.1318 -1.9649
  523TIP3   OH225763   0.332   4.193   6.645  0.3164 -0.6579 -0.0002
  523TIP3    H125764   0.261   4.137   6.676 -0.0175  0.0045  0.4465
  523TIP3    H225765   0.291   4.254   6.584  1.0416 -2.2634 -2.2279
  524TIP3   OH225766   5.985   1.491   8.317 -0.0479 -0.1189  0.2292
  524TIP3    H125767   6.074   1.493   8.353 -0.9724 -1.5536  2.8298
  524TIP3    H225768   5.952   1.404   8.340 -2.3188  0.5882 -0.1598
  525TIP3   OH225769   2.168   0.951   9.497 -0.5396  0.2808 -0.2537
  525TIP3    H125770   2.125   0.876   9.456 -2.5741  1.4758 -0.4714
  525TIP3    H225771   2.206   0.916   9.577 -0.5708 -1.1714 -0.8460
  526TIP3   OH225772   3.069   0.154   7.280 -0.4706  0.1112 -0.1056
  526TIP3    H125773   3.159   0.186   7.270 -0.6310 -0.0518 -2.8008
  526TIP3    H225774   3.064   0.077   7.223 -1.7000 -1.3595  1.8599
  527TIP3   OH225775   6.616   7.445   8.609 -0.2021 -0.1694 -0.2775
  527TIP3    H125776   6.543   7.388   8.585 -0.2789 -0.0881 -0.2408
  527TIP3    H225777   6.580   7.534   8.604 -1.0276 -0.2079  2.6596
  528TIP3   OH225778   5.841   5.287   7.514 -0.5175 -0.3925  0.2501
  528TIP3    H125779   5.826   5.372   7.473 -1.1623 -0.5500  0.1588
  528TIP3    H225780   5.835   5.304   7.608 -1.4034 -0.4728  0.2156
  529TIP3   OH225781   1.263   4.515   8.538  0.1479 -0.3361 -0.0812
  529TIP3    H125782   1.204   4.580   8.499 -1.5705 -1.1298  1.0646
  529TIP3    H225783   1.332   4.567   8.578  0.3567  0.6247 -1.5774
  530TIP3   OH225784   3.780   2.008   9.015  0.4084 -0.0653  0.3458
  530TIP3    H125785   3.739   2.092   9.036  0.9095  0.0412  0.9424
  530TIP3    H225786   3.874   2.027   9.015  0.6936 -1.1091  2.8877
  531TIP3   OH225787   6.141   3.197   7.624  0.6842 -0.9807 -0.0118
  531TIP3    H125788   6.190   3.266   7.669  1.5786  0.2054 -2.6123
  531TIP3    H225789   6.052   3.203   7.661  1.1319  0.5106  0.9205
  532TIP3   OH225790   4.885   0.425   7.522 -0.2187 -0.2765 -0.3008
  532TIP3    H125791   4.835   0.440   7.442  0.4355 -1.6032 -1.0003
  532TIP3    H225792   4.975   0.448   7.499 -0.1800  0.2607  0.3592
  533TIP3   OH225793   1.391   6.649   6.642 -0.1155  0.2288  0.3249
  533TIP3    H125794   1.460   6.640   6.576 -0.2698 -1.1977  0.3343
  533TIP3    H225795   1.348   6.564   6.644 -2.4585  1.3225 -0.2834
  534TIP3   OH225796   3.786   6.249   8.969  0.0467 -0.0868 -0.2283
  534TIP3    H125797   3.817   6.195   9.042 -0.6473 -0.6615 -0.3512
  534TIP3    H225798   3.750   6.187   8.906  1.0416  0.3706 -1.2811
  535TIP3   OH225799   5.936   3.983   8.174 -0.4487 -0.6163 -0.2712
  535TIP3    H125800   5.934   4.064   8.225  3.2146 -0.1730 -0.5364
  535TIP3    H225801   5.936   4.012   8.083 -0.3042 -0.9713 -0.3875
  536TIP3   OH225802   5.754   1.234   7.523  0.1461  0.3365  0.2203
  536TIP3    H125803   5.775   1.319   7.485  0.9070  0.0934  0.1009
  536TIP3    H225804   5.659   1.239   7.539  0.1647  1.1721  0.1382
  537TIP3   OH225805   5.776   4.702   8.928  0.4722 -0.2506  0.1415
  537TIP3    H125806   5.802   4.754   8.852 -0.8400  0.9683  0.4785
  537TIP3    H225807   5.852   4.648   8.948  1.8605  1.4370 -0.3422
  538TIP3   OH225808   0.146   0.012   7.378  0.4549 -1.0566 -0.4350
  538TIP3    H125809   0.196  -0.049   7.431  0.6003 -0.6763 -0.1288
  538TIP3    H225810   0.164  -0.013   7.288  1.2603 -0.8654 -0.3282
  539TIP3   OH225811   7.470   4.729   7.439 -0.5078 -0.1075  0.1161
  539TIP3    H125812   7.400   4.689   7.387 -1.0616  0.0496  0.7276
  539TIP3    H225813   7.524   4.655   7.467  0.1885 -0.1338 -1.2244
  540TIP3   OH225814   3.098   6.007   9.094  0.2638 -0.4449  0.3955
  540TIP3    H125815   3.177   6.026   9.043  0.0719 -0.7283 -0.0120
  540TIP3    H225816   3.090   5.912   9.092 -0.1214 -0.4142  0.3851
  541TIP3   OH225817   3.397   3.673   8.334 -0.5093 -0.1494  0.2830
  541TIP3    H125818   3.403   3.749   8.276 -1.8427 -1.0918 -1.1827
  541TIP3    H225819   3.419   3.707   8.421 -1.0575  1.8996 -0.3252
  542TIP3   OH225820   2.851   1.441   9.135 -0.1540  0.3144 -0.3207
  542TIP3    H125821   2.793   1.433   9.059  1.4914  1.7246 -1.8100
  542TIP3    H225822   2.939   1.438   9.099  0.6841  1.3700  1.4940
  543TIP3   OH225823   1.539   4.747   7.094  0.5178 -0.0275 -0.9610
  543TIP3    H125824   1.504   4.701   7.017  0.6165  2.3081 -2.5210
  543TIP3    H225825   1.613   4.693   7.122 -1.6274 -2.8533 -0.1597
  544TIP3   OH225826   1.673   0.860   8.712  0.1335 -0.2123  0.0275
  544TIP3    H125827   1.641   0.831   8.797  0.9716  0.6259  0.6530
  544TIP3    H225828   1.695   0.952   8.725 -0.5506  0.1806 -1.3444
  545TIP3   OH225829   6.904   1.656   6.497 -0.1049 -0.9298 -0.6448
  545TIP3    H125830   6.905   1.743   6.538 -2.8335  1.4437 -4.8594
  545TIP3    H225831   6.933   1.671   6.407 -2.2437 -4.0189 -2.0363
  546TIP3   OH225832   5.901   3.209   7.751  0.3295 -0.0275 -0.0289
  546TIP3    H125833   5.899   3.303   7.769 -0.2110 -0.2583  1.2918
  546TIP3    H225834   5.809   3.186   7.740  0.3738 -0.5710  0.6903
  547TIP3   OH225835   3.335   5.417   6.712 -0.0848  0.3104  0.5416
  547TIP3    H125836   3.392   5.493   6.724  0.1466  0.2862 -0.3666
  547TIP3    H225837   3.270   5.426   6.782  2.3405 -0.9459  3.1636
  548TIP3   OH225838   7.360   1.739   8.479 -0.0597  0.2396  0.3271
  548TIP3    H125839   7.356   1.822   8.527  0.8007  0.0685  0.7252
  548TIP3    H225840   7.441   1.698   8.511  1.4606  0.8323 -2.4450
  549TIP3   OH225841   4.578   1.779   8.174  0.4412  0.0598  0.2617
  549TIP3    H125842   4.498   1.760   8.222 -0.3882  0.3248 -0.9775
  549TIP3    H225843   4.642   1.716   8.208 -0.3676 -0.3507  1.0528
  550TIP3   OH225844   0.366   5.001   9.552 -0.5770 -0.2114  0.6604
  550TIP3    H125845   0.417   4.951   9.616  1.5464  0.5438 -0.3507
  550TIP3    H225846   0.430   5.033   9.490 -2.3042  0.9612 -0.6179
  551TIP3   OH225847   6.307   4.226   8.186 -0.2484  0.1945 -0.1139
  551TIP3    H125848   6.381   4.228   8.247 -0.7709 -1.3526  0.6158
  551TIP3    H225849   6.347   4.214   8.100  0.3575 -1.6814  0.3740
  552TIP3   OH225850   0.686   7.416   7.423  0.2411  0.2124 -0.1249
  552TIP3    H125851   0.765   7.433   7.372 -0.1476 -1.2270 -1.2781
  552TIP3    H225852   0.618   7.466   7.377 -0.0569 -0.8752 -0.9203
  553TIP3   OH225853   0.427   3.143   6.669 -0.1217 -0.3602  0.0401
  553TIP3    H125854   0.418   3.071   6.732 -2.5752 -0.3504 -0.2162
  553TIP3    H225855   0.426   3.222   6.723 -0.6455 -0.4126  0.1121
  554TIP3   OH225856   3.805   7.050   7.372 -0.0301 -0.1221  0.4935
  554TIP3    H125857   3.797   7.026   7.280  0.9725 -1.5932  0.7436
  554TIP3    H225858   3.733   7.005   7.415  0.2150 -0.4341  0.5833
  555TIP3   OH225859   6.461   4.084   7.600 -1.2767  0.1250  0.1998
  555TIP3    H125860   6.495   4.133   7.526 -2.6915  2.5304  1.0132
  555TIP3    H225861   6.532   4.084   7.664 -0.6679 -0.4304 -0.4651
  556TIP3   OH225862   6.771   3.751   7.533 -0.0976 -0.2256  0.0768
  556TIP3    H125863   6.835   3.681   7.539  0.6067  0.4450  0.6839
  556TIP3    H225864   6.824   3.830   7.518 -0.9119  0.0913 -1.2183
  557TIP3   OH225865   2.859   5.538   7.240 -0.4716 -0.0088  0.0185
  557TIP3    H125866   2.940   5.581   7.210 -1.0335  0.4663 -0.8616
  557TIP3    H225867   2.883   5.500   7.325  0.8294 -0.3490 -0.4710
  558TIP3   OH225868   2.650   0.282   6.935  0.6422 -0.1582 -0.2628
  558TIP3    H125869   2.657   0.338   6.858  1.3265 -0.2297 -0.2644
  558TIP3    H225870   2.741   0.257   6.954  0.4056 -0.7434  0.1200
  559TIP3   OH225871   5.202   0.062   8.139  0.4343  0.7649  0.3303
  559TIP3    H125872   5.287   0.107   8.133  2.1017 -1.7939  2.2955
  559TIP3    H225873   5.164   0.095   8.220  0.5406  0.4377  0.5166
  560TIP3   OH225874   1.322   6.596   9.610  0.3392  0.0319  0.2889
  560TIP3    H125875   1.269   6.675   9.597 -0.4821 -0.5154  0.2431
  560TIP3    H225876   1.323   6.583   9.705 -1.3648 -1.1070  0.1886
  561TIP3   OH225877   0.429   7.633   9.248 -0.0575  0.3609  0.0773
  561TIP3    H125878   0.462   7.665   9.333  0.0670 -0.2846  0.2776
  561TIP3    H225879   0.336   7.656   9.249  0.4255  2.6048 -0.6864
  562TIP3   OH225880   7.498   2.228   7.594 -0.4931  0.2626 -0.4710
  562TIP3    H125881   7.465   2.165   7.530 -1.6652 -0.4211  0.7412
  562TIP3    H225882   7.559   2.179   7.648 -0.4542  0.4928 -0.3012
  563TIP3   OH225883   6.479   7.367   8.285 -0.1599 -0.2431 -0.0794
  563TIP3    H125884   6.434   7.450   8.301 -2.1631 -1.5683  1.8669
  563TIP3    H225885   6.570   7.385   8.307 -0.8898  1.0098  2.3394
  564TIP3   OH225886   3.253   3.340   8.412  0.1096 -0.0860  0.0248
  564TIP3    H125887   3.180   3.290   8.450 -0.1967  0.1461 -0.2502
  564TIP3    H225888   3.324   3.331   8.476  0.1227 -1.0348 -0.1160
  565TIP3   OH225889   4.988   5.467   7.664  0.0594 -0.4177  0.0665
  565TIP3    H125890   4.905   5.511   7.644 -0.6681 -0.5561  2.4780
  565TIP3    H225891   5.034   5.465   7.580 -1.4438  1.5947 -0.9072
  566TIP3   OH225892   2.300   1.390   9.173  0.7153 -0.4717  0.1349
  566TIP3    H125893   2.321   1.458   9.237 -0.7444  0.0451  0.0876
  566TIP3    H225894   2.303   1.309   9.223  3.7572 -0.6119 -0.0709
  567TIP3   OH225895   0.324   4.418   7.435 -0.0873  0.4707 -0.5778
  567TIP3    H125896   0.317   4.338   7.486 -0.8191 -0.2282 -1.7303
  567TIP3    H225897   0.352   4.389   7.348 -0.5152  1.4403 -1.0594
  568TIP3   OH225898   3.185   3.812   9.183  0.5043 -0.2735  0.1975
  568TIP3    H125899   3.141   3.896   9.171 -0.5655 -0.6617  1.2279
  568TIP3    H225900   3.214   3.788   9.095  0.0459  0.7490 -0.2473
  569TIP3   OH225901   4.603   1.629   7.314 -0.3064 -0.1846  0.4156
  569TIP3    H125902   4.617   1.702   7.254  0.5536 -1.1401 -0.5797
  569TIP3    H225903   4.686   1.582   7.314 -1.1429 -1.7039  0.2815
  570TIP3   OH225904   6.170   3.784   7.869  0.5345 -0.0388  0.2918
  570TIP3    H125905   6.258   3.764   7.839  0.1877 -0.8403 -0.2194
  570TIP3    H225906   6.149   3.714   7.932  1.1848  1.5115  2.3361
  571TIP3   OH225907   2.149   0.480   9.342 -0.1994  0.5178 -0.2903
  571TIP3    H125908   2.077   0.426   9.308  0.2334  0.1264 -0.5923
  571TIP3    H225909   2.227   0.447   9.298  0.0472  1.5437 -0.6449
  572TIP3   OH225910   1.446   6.196   9.381 -0.3302  0.1543 -0.2252
  572TIP3    H125911   1.402   6.277   9.353  2.2968  2.0592  0.7633
  572TIP3    H225912   1.422   6.187   9.473 -0.1903  0.1260 -0.1913
  573TIP3   OH225913   5.065   0.861   9.431  0.2981  0.3107 -0.3800
  573TIP3    H125914   5.122   0.935   9.409  0.1941  0.7943  0.8935
  573TIP3    H225915   5.125   0.793   9.461  0.3814 -0.0850 -1.4082
  574TIP3   OH225916   1.435   1.770   9.268 -0.5259 -0.3557  0.2173
  574TIP3    H125917   1.387   1.766   9.351 -1.8299 -0.2302 -0.5085
  574TIP3    H225918   1.415   1.687   9.224  2.1029 -1.5142  1.0155
  575TIP3   OH225919   4.254   1.426   8.310 -0.0074  0.1342 -0.1946
  575TIP3    H125920   4.263   1.357   8.244  2.0044  0.1814 -0.0349
  575TIP3    H225921   4.170   1.467   8.290 -1.1623 -2.1698 -0.4525
  576TIP3   OH225922   7.606   6.016   7.888 -0.3592  0.1002  0.3605
  576TIP3    H125923   7.589   5.939   7.943  2.1433 -2.1739 -1.7623
  576TIP3    H225924   7.638   6.082   7.950 -0.8844 -1.1618  2.0582
  577TIP3   OH225925   3.303   5.582   9.072  0.1100 -0.2453 -0.0624
  577TIP3    H125926   3.237   5.651   9.081 -0.4374 -0.7127 -0.3688
  577TIP3    H225927   3.360   5.612   9.001  0.3740  0.2778  0.3697
  578TIP3   OH225928   7.587   1.174   8.179 -0.0102  0.5001 -0.2041
  578TIP3    H125929   7.555   1.254   8.221 -0.2790 -0.7243  2.1217
  578TIP3    H225930   7.526   1.106   8.207  0.9980 -0.7810 -0.9628
  579TIP3   OH225931   5.561   2.339   8.553 -0.0277 -0.3648 -0.0665
  579TIP3    H125932   5.467   2.353   8.564 -0.0546 -0.8700  0.3527
  579TIP3    H225933   5.601   2.422   8.582 -0.3730  0.1289 -0.9584
  580TIP3   OH225934   1.473   0.133   8.326 -0.5197  0.1104 -0.2243
  580TIP3    H125935   1.386   0.105   8.356 -0.3020  0.6028  0.8997
  580TIP3    H225936   1.521   0.153   8.406  0.2565  0.9781 -0.8867
  581TIP3   OH225937   4.655   0.661   7.054  0.4586 -0.3569 -0.0052
  581TIP3    H125938   4.568   0.668   7.095  0.4255  1.5182 -0.3020
  581TIP3    H225939   4.643   0.600   6.982 -0.0331 -1.9383  1.3582
  582TIP3   OH225940   0.517   3.050   7.826  0.5073  0.9950  0.0915
  582TIP3    H125941   0.584   2.998   7.870  1.4177  0.5222 -1.7344
  582TIP3    H225942   0.526   3.138   7.863 -0.3859  0.1525  2.5080
  583TIP3   OH225943   1.135   1.173   7.578 -0.1793 -0.7925 -0.0688
  583TIP3    H125944   1.041   1.162   7.586 -0.6389  1.7311 -1.1144
  583TIP3    H225945   1.156   1.246   7.635  0.9377 -0.5167 -0.7996
  584TIP3   OH225946   6.306   1.634   8.123 -0.6295 -0.6868 -0.0848
  584TIP3    H125947   6.389   1.588   8.132 -0.1141 -0.2938 -2.1386
  584TIP3    H225948   6.323   1.722   8.156 -0.5748 -0.9342  0.5521
  585TIP3   OH225949   7.638   6.803   7.019 -0.6952  0.1959 -0.3230
  585TIP3    H125950   7.593   6.720   7.032  1.0582 -0.9656 -1.2839
  585TIP3    H225951   7.594   6.842   6.943 -1.4495  0.1250  0.0611
  586TIP3   OH225952   1.914   7.514   8.007  0.0981 -0.0489  0.1332
  586TIP3    H125953   1.899   7.540   8.098 -0.1388  0.0187  0.0769
  586TIP3    H225954   1.859   7.437   7.995 -2.7786  1.9946 -0.9800
  587TIP3   OH225955   5.571   1.173   7.860  0.0916  0.2526  0.1702
  587TIP3    H125956   5.504   1.110   7.831 -0.5070  0.5825  0.8039
  587TIP3    H225957   5.652   1.140   7.823 -0.6610  0.7835 -2.1168
  588TIP3   OH225958   2.643   4.106   8.612  0.7649 -0.0251  0.2815
  588TIP3    H125959   2.729   4.143   8.593  0.4740  1.4466  1.6156
  588TIP3    H225960   2.634   4.112   8.707  0.1664 -2.4643  0.4627
  589TIP3   OH225961   1.546   0.592   6.894 -0.2304  0.3215  0.1537
  589TIP3    H125962   1.620   0.555   6.943 -0.7625 -0.9605  0.0367
  589TIP3    H225963   1.537   0.681   6.927 -0.4197 -0.4228  2.2425
  590TIP3   OH225964   3.128   7.055   8.988 -0.2097  0.3264 -0.0248
  590TIP3    H125965   3.127   7.134   9.041 -0.0088 -1.0379  2.1463
  590TIP3    H225966   3.218   7.022   8.996  0.0916  0.5116 -1.9979
  591TIP3   OH225967   2.987   0.516   8.755  0.4725 -0.2096  0.1476
  591TIP3    H125968   2.914   0.535   8.697 -1.2507  2.5766  2.9381
  591TIP3    H225969   2.959   0.440   8.806 -0.3905  0.6633  0.9967
  592TIP3   OH225970   1.934   3.577   9.481 -0.5111 -0.3147  0.1843
  592TIP3    H125971   1.996   3.504   9.479 -0.7126 -0.5106  0.8414
  592TIP3    H225972   1.853   3.540   9.448 -0.2658 -0.0359 -0.7582
  593TIP3   OH225973   2.467   4.946   9.093  0.5211 -0.0849 -0.4704
  593TIP3    H125974   2.394   4.942   9.031  0.8819  0.8858 -0.9847
  593TIP3    H225975   2.487   5.040   9.099 -0.9068  0.1364  2.7583
  594TIP3   OH225976   3.864   1.676   7.996  0.8637 -0.1299  0.2194
  594TIP3    H125977   3.776   1.656   7.963  0.5392 -2.3768  2.1740
  594TIP3    H225978   3.922   1.654   7.923 -0.1323  2.2603 -1.4431
  595TIP3   OH225979   0.273   5.285   8.728  0.5371 -0.0482 -0.5095
  595TIP3    H125980   0.280   5.307   8.821  0.6290  2.7453 -1.0692
  595TIP3    H225981   0.326   5.207   8.717 -1.5464 -2.0229  2.1994
  596TIP3   OH225982   4.709   5.751   9.083 -0.1830 -0.7899  0.4934
  596TIP3    H125983   4.731   5.694   9.156 -0.8283 -1.5995  0.0703
  596TIP3    H225984   4.679   5.692   9.014 -0.2687  0.0149 -0.1764
  597TIP3   OH225985   4.233   5.583   9.123  0.5462  0.1733 -0.0849
  597TIP3    H125986   4.255   5.519   9.190  1.9436  1.7835  1.0628
  597TIP3    H225987   4.194   5.656   9.170 -0.9677  0.2545 -1.3626
  598TIP3   OH225988   2.122   0.458   8.210  0.1846  0.0885  0.2603
  598TIP3    H125989   2.216   0.451   8.227 -0.1070 -1.8225  1.3477
  598TIP3    H225990   2.112   0.425   8.120  0.6099  0.9457 -0.1143
  599TIP3   OH225991   2.611   4.790   6.896  0.3069 -0.0835 -0.1560
  599TIP3    H125992   2.684   4.843   6.863 -1.0079  1.0648 -1.3569
  599TIP3    H225993   2.536   4.849   6.893 -0.9992 -1.6911 -0.4614
  600TIP3   OH225994   2.610   6.497   7.799  0.0785  0.4453  0.5680
  600TIP3    H125995   2.553   6.510   7.723  2.4844  0.0908 -1.4208
  600TIP3    H225996   2.665   6.576   7.801 -0.5884  0.9140  2.6048
  601TIP3   OH225997   2.887   6.231   8.378  0.6637 -0.5261  0.0090
  601TIP3    H125998   2.829   6.271   8.444  0.2905 -1.4555  0.2581
  601TIP3    H225999   2.829   6.180   8.322  1.1275 -0.6921 -0.3310
  602TIP3   OH226000   5.799   7.449   7.341 -0.6416 -0.1540  0.3786
  602TIP3    H126001   5.891   7.435   7.362 -0.4584 -0.5521 -0.6295
  602TIP3    H226002   5.762   7.490   7.420  1.1106  3.2034 -0.3549
  603TIP3   OH226003   4.149   5.109   7.135  0.5143 -0.5637  0.5282
  603TIP3    H126004   4.136   5.038   7.071  1.2386  0.7262 -1.0960
  603TIP3    H226005   4.224   5.158   7.102  0.9376  0.1308  2.4211
  604TIP3   OH226006   4.117   0.343   7.986  0.2786  0.0876 -0.4099
  604TIP3    H126007   4.195   0.398   7.987  0.6731 -0.4119  1.7027
  604TIP3    H226008   4.086   0.342   8.077 -3.1699  1.5736 -1.3821
  605TIP3   OH226009   6.926   2.693   9.008 -0.5223 -0.4390  0.4100
  605TIP3    H126010   6.841   2.652   8.993  1.0353 -3.2416 -1.7903
  605TIP3    H226011   6.979   2.624   9.048  1.3332  0.4778 -0.3367
  606TIP3   OH226012   5.962   4.549   8.370 -0.3806  0.2000 -0.0021
  606TIP3    H126013   5.945   4.471   8.317  0.9877 -0.5837  0.6655
  606TIP3    H226014   5.967   4.517   8.460  2.6604  0.5507  0.0769
  607TIP3   OH226015   5.754   6.042   7.302  0.4867  0.2362 -0.1465
  607TIP3    H126016   5.834   6.094   7.289  0.4971  0.0268 -0.9394
  607TIP3    H226017   5.785   5.955   7.326  0.5545 -0.3429 -2.2149
  608TIP3   OH226018   6.183   5.235   7.237 -0.6904 -0.4976  0.2489
  608TIP3    H126019   6.147   5.316   7.201  1.2690 -0.1829 -1.1925
  608TIP3    H226020   6.129   5.217   7.314 -3.3519  0.3084 -1.2950
  609TIP3   OH226021   1.403   1.542   9.135 -0.4149  0.2080 -1.1345
  609TIP3    H126022   1.414   1.490   9.055  0.0111  0.2348 -1.0959
  609TIP3    H226023   1.368   1.480   9.199 -1.5788  0.3916 -1.5777
  610TIP3   OH226024   2.432   6.621   8.281 -0.1655 -0.0913 -0.0156
  610TIP3    H126025   2.457   6.569   8.204 -1.5663 -0.3094 -0.3585
  610TIP3    H226026   2.475   6.578   8.354 -1.5148 -1.9757 -0.2412
  611TIP3   OH226027   1.042   6.655   9.121  0.1165  0.2989 -0.2308
  611TIP3    H126028   0.950   6.670   9.145  0.2701 -0.1211  0.6798
  611TIP3    H226029   1.040   6.585   9.056 -0.2833  1.1125 -1.1123
  612TIP3   OH226030   4.742   0.777   7.792  0.0934  0.6616 -0.4329
  612TIP3    H126031   4.649   0.770   7.772 -0.1782  3.3002 -0.4444
  612TIP3    H226032   4.786   0.773   7.707 -0.0383  0.0317 -0.4776
  613TIP3   OH226033   2.425   2.285   8.597  0.0642 -0.1857  0.1532
  613TIP3    H126034   2.428   2.328   8.682  0.1826  0.5512 -0.2050
  613TIP3    H226035   2.452   2.195   8.613  0.0897 -0.0468  0.8877
  614TIP3   OH226036   2.205   7.489   8.662  0.1823  0.2504  0.3498
  614TIP3    H126037   2.225   7.408   8.616  0.4318  0.4515  0.1008
  614TIP3    H226038   2.110   7.498   8.656  0.1111 -0.2109  0.7015
  615TIP3   OH226039   1.957   6.697   8.729 -0.0014  0.3485  0.0458
  615TIP3    H126040   1.893   6.642   8.774 -1.9476  1.8085 -0.8023
  615TIP3    H226041   1.993   6.753   8.798  0.4341 -0.5216  0.5408
  616TIP3   OH226042   1.972   4.491   8.941  0.0494 -0.2349  0.0999
  616TIP3    H126043   2.042   4.491   8.876  0.1783  1.7528  0.1514
  616TIP3    H226044   2.007   4.439   9.014  0.3379 -1.5560 -0.9503
  617TIP3   OH226045   0.740   2.819   7.292 -0.1511 -0.3492  0.0322
  617TIP3    H126046   0.834   2.833   7.308  0.4512  0.0763 -3.2337
  617TIP3    H226047   0.728   2.725   7.304  1.4765 -0.9853 -2.5136
  618TIP3   OH226048   5.140   7.319   6.755 -0.4652  0.4427  0.7879
  618TIP3    H126049   5.230   7.345   6.736 -0.2469 -1.6882 -1.7460
  618TIP3    H226050   5.091   7.340   6.676 -1.4992 -1.1398  0.9401
  619TIP3   OH226051   1.830   3.223   7.523  0.4458  0.1547  0.2595
  619TIP3    H126052   1.851   3.252   7.434  0.8679 -0.5078  0.1360
  619TIP3    H226053   1.742   3.258   7.539  0.1815 -0.0884 -0.5913
  620TIP3   OH226054   1.464   5.695   9.383 -0.0101  0.1356 -0.0077
  620TIP3    H126055   1.480   5.628   9.317 -1.8076  1.2021 -1.6513
  620TIP3    H226056   1.539   5.754   9.376 -0.2299  0.2911 -1.2031
  621TIP3   OH226057   2.192   2.836   7.546 -0.1759 -0.1965 -0.5632
  621TIP3    H126058   2.263   2.798   7.494  0.2507 -0.7599  0.3972
  621TIP3    H226059   2.236   2.872   7.623 -0.7660  0.8431 -0.6962
  622TIP3   OH226060   4.807   6.760   8.694  0.0498 -0.0700 -0.3874
  622TIP3    H126061   4.791   6.674   8.734 -0.5564  0.4414  0.5196
  622TIP3    H226062   4.771   6.822   8.758  1.2352  0.8969 -0.6425
  623TIP3   OH226063   2.715   7.113   9.466 -0.3561  0.2913 -0.2771
  623TIP3    H126064   2.639   7.158   9.503 -1.8148 -1.3609 -1.0638
  623TIP3    H226065   2.767   7.086   9.542 -0.7234  1.1639  0.2958
  624TIP3   OH226066   7.194   0.221   8.950 -0.3963  0.2386 -0.0086
  624TIP3    H126067   7.280   0.247   8.916 -0.2421  0.1199  0.2822
  624TIP3    H226068   7.182   0.131   8.921 -0.1599  0.0573  0.4413
  625TIP3   OH226069   0.046   1.774   7.755  0.0889  1.1439  0.2707
  625TIP3    H126070   0.034   1.752   7.847  0.2766  0.2577  0.0949
  625TIP3    H226071   0.140   1.767   7.740 -0.1120 -0.7058 -0.4377
  626TIP3   OH226072   1.793   2.751   8.050 -0.1231 -0.7109  0.2078
  626TIP3    H126073   1.884   2.780   8.063  0.0048 -0.0921 -1.7253
  626TIP3    H226074   1.766   2.795   7.969 -2.5598  0.0633  1.3624
  627TIP3   OH226075   7.237   3.641   9.316 -0.8964 -0.1212  0.0152
  627TIP3    H126076   7.329   3.666   9.329 -0.8035  0.3885 -1.4247
  627TIP3    H226077   7.190   3.683   9.387 -0.3076  1.6186 -0.5702
  628TIP3   OH226078   3.977   1.336   9.089 -0.4679 -0.3701 -0.3571
  628TIP3    H126079   3.886   1.317   9.111 -0.6626 -1.2535 -1.8146
  628TIP3    H226080   3.975   1.424   9.052 -0.3139  0.6445  1.9263
  629TIP3   OH226081   2.574   4.061   8.226  0.3183  0.5290 -0.7895
  629TIP3    H126082   2.510   4.130   8.212 -0.8130 -0.2006  0.5668
  629TIP3    H226083   2.590   4.025   8.139  0.0049  1.6794 -1.3400
  630TIP3   OH226084   6.244   5.812   9.691 -0.0860  0.5181  0.4398
  630TIP3    H126085   6.190   5.872   9.743 -0.1061 -0.4326  1.5561
  630TIP3    H226086   6.189   5.735   9.679  1.0235 -0.4849  1.6331
  631TIP3   OH226087   4.832   0.139   8.697  0.6209 -0.6288  0.7540
  631TIP3    H126088   4.900   0.203   8.677  1.3976 -1.7970 -0.5072
  631TIP3    H226089   4.802   0.108   8.611  0.4413 -2.1154  1.3146
  632TIP3   OH226090   1.285   3.329   7.388  0.0259 -0.1058  0.1318
  632TIP3    H126091   1.234   3.397   7.343 -0.1832 -1.4091 -1.6969
  632TIP3    H226092   1.356   3.377   7.430  1.6476  1.0860 -3.5757
  633TIP3   OH226093   2.785   3.279   8.419 -0.0632 -0.4137  0.7425
  633TIP3    H126094   2.821   3.215   8.480 -1.5361 -1.2690  0.7696
  633TIP3    H226095   2.852   3.287   8.351  0.6182 -1.1709  1.3024
  634TIP3   OH226096   4.794   2.374   7.615  0.0385 -0.4214 -0.7754
  634TIP3    H126097   4.737   2.330   7.552  1.7905 -0.4856 -2.4039
  634TIP3    H226098   4.771   2.467   7.608  0.6797 -0.3296 -2.0933
  635TIP3   OH226099   5.291   1.214   8.247  0.6052  0.0441 -0.6058
  635TIP3    H126100   5.308   1.301   8.212 -3.4649  1.9643  1.4961
  635TIP3    H226101   5.261   1.164   8.171  0.7723  1.1924 -1.4570
  636TIP3   OH226102   6.314   4.537   7.797 -0.1269 -0.2760 -0.3560
  636TIP3    H126103   6.266   4.489   7.729 -1.0782 -1.3246  1.0069
  636TIP3    H226104   6.245   4.577   7.850  0.6204  1.0203 -0.3116
  637TIP3   OH226105   1.907   5.282   6.706 -0.3870 -0.3860 -0.0449
  637TIP3    H126106   1.980   5.223   6.728  0.8382  0.9542 -0.4012
  637TIP3    H226107   1.858   5.289   6.788  0.5352 -0.4114  0.5324
  638TIP3   OH226108   2.208   7.089   7.650 -0.0947 -0.7511 -0.1015
  638TIP3    H126109   2.191   6.996   7.633  1.4790 -1.1350  0.3028
  638TIP3    H226110   2.255   7.120   7.572 -0.7133 -0.2532 -0.2864
  639TIP3   OH226111   6.549   2.831   8.248 -0.6827 -0.1658  0.1478
  639TIP3    H126112   6.511   2.814   8.335 -1.8104  0.8597 -0.1173
  639TIP3    H226113   6.499   2.905   8.214  1.7131  1.4446 -0.1416
  640TIP3   OH226114   6.817   6.885   8.959 -0.4120  0.0026  0.7690
  640TIP3    H126115   6.796   6.957   9.018  0.3874 -0.7589  2.0234
  640TIP3    H226116   6.868   6.824   9.012 -0.4544 -1.1545 -0.4559
  641TIP3   OH226117   0.405   3.526   8.112 -0.4151  0.0190 -0.3173
  641TIP3    H126118   0.493   3.490   8.101 -0.3160  0.2869 -0.4019
  641TIP3    H226119   0.420   3.617   8.138 -0.6490 -0.2765  0.9125
  642TIP3   OH226120   1.124   1.867   7.929 -0.0599 -0.5062 -0.4368
  642TIP3    H126121   1.110   1.889   7.837 -1.9857 -1.2271 -0.3765
  642TIP3    H226122   1.196   1.805   7.928  2.5436  2.3285 -1.0047
  643TIP3   OH226123   2.230   4.526   9.289  0.3871  0.2240 -0.0372
  643TIP3    H126124   2.274   4.599   9.245 -0.5905  1.8392  1.5302
  643TIP3    H226125   2.191   4.565   9.367 -0.8439 -1.8437  0.4572
  644TIP3   OH226126   5.244   4.145   8.868 -0.2771  0.0052 -0.1287
  644TIP3    H126127   5.314   4.184   8.815  0.1177 -0.3603  0.1184
  644TIP3    H226128   5.264   4.171   8.958 -1.1022  0.8598 -0.1733
  645TIP3   OH226129   3.840   5.278   7.592  0.1758 -0.7293  0.3785
  645TIP3    H126130   3.802   5.192   7.610  0.1339 -0.6197  0.8022
  645TIP3    H226131   3.781   5.340   7.634  0.9309 -0.5651  1.2286
  646TIP3   OH226132   5.704   5.306   7.768 -0.1704 -0.1160  0.4572
  646TIP3    H126133   5.756   5.240   7.814 -0.0308  0.2417  0.8211
  646TIP3    H226134   5.625   5.260   7.740  0.3320 -0.6630 -0.0908
  647TIP3   OH226135   0.440   5.700   6.644  0.4359 -0.3590 -0.3296
  647TIP3    H126136   0.444   5.782   6.694  1.6678 -0.2085 -0.6375
  647TIP3    H226137   0.511   5.708   6.579  1.0139 -1.9351  0.0541
  648TIP3   OH226138   3.510   2.096   7.833  0.1552 -0.2508  0.3059
  648TIP3    H126139   3.515   2.190   7.851 -0.0704  0.0160 -0.9818
  648TIP3    H226140   3.511   2.056   7.920  0.8426  0.9030  0.8574
  649TIP3   OH226141   3.419   4.019   8.861 -0.1090  0.4374  0.2323
  649TIP3    H126142   3.348   4.081   8.879  0.2147  0.2503  2.3272
  649TIP3    H226143   3.452   4.046   8.775 -2.0750  1.1066 -0.3826
  650TIP3   OH226144   0.431   1.608   9.314  0.9241  0.2485  0.0052
  650TIP3    H126145   0.471   1.530   9.352 -1.9396 -1.0645  0.5782
  650TIP3    H226146   0.475   1.618   9.229  1.2421 -2.1057 -0.1720
  651TIP3   OH226147   2.441   6.547   7.586  0.2888  0.4782 -0.0884
  651TIP3    H126148   2.480   6.634   7.591 -0.1273  0.6142  0.8215
  651TIP3    H226149   2.408   6.541   7.496  0.8836  1.0068 -0.3495
  652TIP3   OH226150   2.834   4.809   7.929 -0.4842 -0.3471  0.1178
  652TIP3    H126151   2.800   4.894   7.957  0.3637 -0.3300  1.1347
  652TIP3    H226152   2.778   4.744   7.972 -0.5736 -0.3078  0.0603
  653TIP3   OH226153   5.734   1.614   8.474  0.2205  0.4762 -0.0334
  653TIP3    H126154   5.691   1.677   8.532  0.5050 -2.5876  3.8880
  653TIP3    H226155   5.671   1.544   8.463  1.1270 -0.1703 -1.4686
  654TIP3   OH226156   6.992   5.144   8.351 -0.0314 -0.1599  0.4389
  654TIP3    H126157   6.920   5.115   8.408 -1.0122  0.1928 -0.5862
  654TIP3    H226158   6.988   5.087   8.275  3.2247 -2.7261  1.9458
  655TIP3   OH226159   4.825   6.578   8.329  0.1871  0.0209 -0.0196
  655TIP3    H126160   4.783   6.521   8.264 -0.3858 -1.0433  1.2390
  655TIP3    H226161   4.882   6.520   8.379  1.4598  1.0321 -0.2398
  656TIP3   OH226162   3.084   5.928   8.536 -0.6233 -0.2143 -0.2066
  656TIP3    H126163   3.175   5.899   8.538  0.2769  2.2021 -1.5461
  656TIP3    H226164   3.047   5.884   8.459 -0.2090 -0.2201 -0.4062
  657TIP3   OH226165   0.986   6.848   6.820  0.0020  0.7366 -0.0975
  657TIP3    H126166   0.996   6.931   6.866 -0.9209  1.9307 -1.9320
  657TIP3    H226167   1.075   6.827   6.790  0.2057  1.1455  0.2091
  658TIP3   OH226168   2.502   5.577   9.553  0.0321 -0.0193  1.0345
  658TIP3    H126169   2.432   5.622   9.506  1.0021 -1.2339 -1.8306
  658TIP3    H226170   2.582   5.625   9.529  0.6784 -1.2874  0.5324
  659TIP3   OH226171   7.413   0.723   8.740  0.5517  0.1606  0.3230
  659TIP3    H126172   7.403   0.648   8.799  1.6133  0.6424  1.1437
  659TIP3    H226173   7.432   0.683   8.655  1.7408 -0.5390  0.8753
  660TIP3   OH226174   4.823   0.831   7.165  0.0227  0.3353 -0.1472
  660TIP3    H126175   4.744   0.777   7.174 -1.0416  1.6240 -1.2929
  660TIP3    H226176   4.801   0.912   7.211  1.8044 -0.3044  2.0382
  661TIP3   OH226177   1.619   6.765   8.731 -0.1042 -0.2103 -0.3684
  661TIP3    H126178   1.624   6.681   8.778  0.8564 -0.9374 -1.6938
  661TIP3    H226179   1.541   6.757   8.677 -0.4616  0.0863  0.0981
  662TIP3   OH226180   0.463   1.833   8.238  0.2133 -0.1434 -0.2251
  662TIP3    H126181   0.520   1.761   8.264  0.2934  1.2095  4.0946
  662TIP3    H226182   0.383   1.791   8.209  0.3608 -2.0960  1.8991
  663TIP3   OH226183   5.086   2.732   8.799  0.0703  0.1151 -0.1248
  663TIP3    H126184   5.098   2.724   8.893 -3.0547 -0.7377  0.3148
  663TIP3    H226185   5.154   2.676   8.761  0.9036 -0.1236  1.6184
  664TIP3   OH226186   5.691   3.022   9.783  0.0293 -0.8460 -0.3353
  664TIP3    H126187   5.784   3.013   9.803  0.5268  1.8454 -1.0367
  664TIP3    H226188   5.682   2.983   9.696  0.7105 -0.3510 -0.6432
  665TIP3   OH226189   3.246   4.963   8.778  0.1882  0.6649  0.6101
  665TIP3    H126190   3.166   4.913   8.767  0.3583  0.2541  1.1670
  665TIP3    H226191   3.281   4.934   8.862  1.7724 -0.3797 -0.3560
  666TIP3   OH226192   3.456   5.690   8.820  0.1039 -0.0343  0.1313
  666TIP3    H126193   3.378   5.703   8.766 -0.2896  1.0821  0.9250
  666TIP3    H226194   3.499   5.613   8.783 -1.2043 -0.4723 -0.5175
  667TIP3   OH226195   2.001   4.226   8.459  0.5172  0.3607 -0.0937
  667TIP3    H126196   2.014   4.228   8.554  1.8469 -0.4590 -0.2372
  667TIP3    H226197   2.066   4.164   8.427  1.0310  1.6398 -1.6934
  668TIP3   OH226198   7.285   6.452   7.937  0.6058  0.3377 -0.1639
  668TIP3    H126199   7.274   6.481   7.846  0.6858  1.4180  0.1574
  668TIP3    H226200   7.377   6.467   7.956  0.0914  2.6100  0.8866
  669TIP3   OH226201   1.720   7.301   7.954 -0.4469 -0.5354 -0.0809
  669TIP3    H126202   1.681   7.240   7.892 -1.3968  0.2025 -0.2185
  669TIP3    H226203   1.676   7.281   8.037 -1.2401  0.3911 -0.2671
  670TIP3   OH226204   4.782   7.275   7.439  0.0990  0.8350 -0.3208
  670TIP3    H126205   4.868   7.275   7.483  0.1120  0.1730 -0.3474
  670TIP3    H226206   4.789   7.208   7.372 -0.0641  1.5568 -1.0816
  671TIP3   OH226207   2.630   2.668   9.345  0.3615 -0.5472  0.0122
  671TIP3    H126208   2.697   2.719   9.299 -1.6651  0.5380 -1.9300
  671TIP3    H226209   2.628   2.584   9.299  0.5634 -0.6657  0.2220
  672TIP3   OH226210   1.075   1.162   8.899 -0.2685 -0.3823 -0.0512
  672TIP3    H126211   1.102   1.252   8.918 -1.7225  0.6777 -2.5303
  672TIP3    H226212   1.083   1.154   8.804 -1.4466 -2.4479 -0.0335
  673TIP3   OH226213   0.394   0.560   9.115 -0.0825 -0.6131 -0.5081
  673TIP3    H126214   0.430   0.515   9.192  0.2164 -0.4355 -0.5437
  673TIP3    H226215   0.411   0.652   9.132 -0.0585 -0.5704 -0.7672
  674TIP3   OH226216   1.900   5.616   6.367  0.6586 -0.4932 -0.2107
  674TIP3    H126217   1.866   5.674   6.299  0.4820 -1.3073 -0.8149
  674TIP3    H226218   1.958   5.673   6.419 -1.5357  0.9357  0.8566
  675TIP3   OH226219   5.973   4.455   8.625  0.0525  0.2889  0.3888
  675TIP3    H126220   5.947   4.364   8.613  2.3688 -0.2837 -0.7779
  675TIP3    H226221   5.946   4.477   8.714 -0.6624 -1.4731  0.6302
  676TIP3   OH226222   3.867   2.639   8.139  0.0414 -0.3243  0.1838
  676TIP3    H126223   3.889   2.710   8.079  2.6846 -2.7945 -2.0766
  676TIP3    H226224   3.936   2.643   8.206 -0.8014  0.2189  1.0435
  677TIP3   OH226225   4.801   5.532   9.257  0.6724  0.4695 -0.3240
  677TIP3    H126226   4.845   5.472   9.318  1.1461  1.0489 -0.0788
  677TIP3    H226227   4.811   5.491   9.171 -0.7873 -0.8111  0.0799
  678TIP3   OH226228   5.137   0.843   7.857 -0.2592 -0.0594 -0.0337
  678TIP3    H126229   5.086   0.840   7.939  2.4933 -0.8207  1.7940
  678TIP3    H226230   5.178   0.930   7.858 -0.7401  0.1860 -0.9803
  679TIP3   OH226231   4.674   3.981   7.289  0.2917  0.6733  0.4555
  679TIP3    H126232   4.639   3.978   7.379  2.0903 -0.1601  1.1700
  679TIP3    H226233   4.665   4.072   7.263 -1.1646  0.7480  1.0918
  680TIP3   OH226234   5.021   4.095   9.510 -0.0260 -0.4036 -0.6702
  680TIP3    H126235   4.938   4.132   9.539  0.1640 -0.2706 -0.2832
  680TIP3    H226236   5.033   4.129   9.422 -0.7271 -0.9983 -1.0045
  681TIP3   OH226237   1.768   4.617   7.380 -0.5145 -0.1053 -0.1615
  681TIP3    H126238   1.766   4.616   7.284  0.3882  0.5093 -0.1854
  681TIP3    H226239   1.675   4.617   7.405 -0.7871  1.3587 -1.0506
  682TIP3   OH226240   2.043   4.187   8.731 -0.0252 -0.0429  0.5877
  682TIP3    H126241   1.974   4.126   8.705  0.3861 -0.2446 -0.0390
  682TIP3    H226242   2.098   4.136   8.791  0.8433 -0.6024 -0.6457
  683TIP3   OH226243   1.364   2.030   7.682 -0.0012  0.3312  0.0275
  683TIP3    H126244   1.411   2.023   7.599  2.1891 -2.3972  1.3411
  683TIP3    H226245   1.278   1.992   7.664  0.8754 -1.3905 -0.7378
  684TIP3   OH226246   0.223   0.707   8.535 -0.1782 -0.7469 -0.6886
  684TIP3    H126247   0.177   0.789   8.515 -0.9242 -1.0906 -0.4377
  684TIP3    H226248   0.241   0.713   8.629  0.6006 -0.4638 -0.8548
  685TIP3   OH226249   3.471   1.035   7.738 -0.6602  0.4009  0.0327
  685TIP3    H126250   3.418   1.008   7.813 -1.4942  2.3687  0.2197
  685TIP3    H226251   3.485   1.129   7.752  1.6091  0.2403 -0.8050
  686TIP3   OH226252   4.064   5.817   9.728 -0.0485 -0.4116 -0.0786
  686TIP3    H126253   4.014   5.736   9.714 -0.2814 -0.1192 -0.9527
  686TIP3    H226254   4.145   5.804   9.678  0.1216 -0.2906  0.1617
  687TIP3   OH226255   1.757   1.478   7.876 -0.4381  0.1617  0.5684
  687TIP3    H126256   1.801   1.401   7.912 -0.2804  0.9205  2.0811
  687TIP3    H226257   1.804   1.553   7.915 -1.2747  1.0071 -0.0067
  688TIP3   OH226258   4.976   4.927   9.510  0.3705 -0.4215  0.2442
  688TIP3    H126259   4.907   4.928   9.444  1.6558  0.6508 -1.1415
  688TIP3    H226260   4.956   4.851   9.565  0.0885 -2.2657 -2.2735
  689TIP3   OH226261   1.580   7.363   7.520  0.8454  0.0155 -0.0963
  689TIP3    H126262   1.488   7.380   7.501  0.1675 -1.3451  1.6793
  689TIP3    H226263   1.627   7.409   7.451 -1.2349 -2.0768 -3.2240
  690TIP3   OH226264   2.460   5.090   7.300 -0.3014  0.3477  0.1069
  690TIP3    H126265   2.395   5.023   7.324 -0.0902  0.0254 -0.2134
  690TIP3    H226266   2.450   5.100   7.206 -0.6085  1.0646  0.2131
  691TIP3   OH226267   7.215   2.040   7.684 -0.1034 -0.2888 -0.4226
  691TIP3    H126268   7.175   2.081   7.607 -1.5091 -0.0681  0.3966
  691TIP3    H226269   7.257   2.113   7.730  1.0905 -0.4841 -1.1612
  692TIP3   OH226270   1.740   4.248   9.412  0.1326 -0.2518  0.0673
  692TIP3    H126271   1.806   4.178   9.412 -0.8825 -1.3828  3.5143
  692TIP3    H226272   1.787   4.324   9.446  0.6628  0.2319 -1.6107
  693TIP3   OH226273   4.546   1.016   8.908  0.7125 -0.4662 -0.1332
  693TIP3    H126274   4.559   0.976   8.994  0.0516  0.3976  0.3864
  693TIP3    H226275   4.621   1.074   8.898  1.1396 -1.0620 -0.4420
  694TIP3   OH226276   5.640   4.063   7.715  0.1042 -0.0383 -0.1285
  694TIP3    H126277   5.700   4.098   7.649 -0.2779  0.1408 -0.3850
  694TIP3    H226278   5.625   4.137   7.774 -0.2905  0.0805 -0.3739
  695TIP3   OH226279   0.189   4.809   8.905 -0.3207 -0.5261  0.5146
  695TIP3    H126280   0.243   4.736   8.874 -1.4481 -1.5849  0.9587
  695TIP3    H226281   0.182   4.795   8.999  0.8341  1.1358  0.8948
  696TIP3   OH226282   6.825   2.415   7.691 -0.1262 -0.3122  0.5724
  696TIP3    H126283   6.832   2.459   7.775  1.6912  0.8465 -0.0997
  696TIP3    H226284   6.915   2.412   7.659 -0.8228 -0.1470 -1.5807
  697TIP3   OH226285   1.262   1.621   7.896  0.5474  0.0928  0.2636
  697TIP3    H126286   1.339   1.641   7.843  0.9363 -0.6514  0.5307
  697TIP3    H226287   1.198   1.587   7.834  0.7992 -0.2334  0.1779
  698TIP3   OH226288   1.517   0.625   8.129  0.4234 -0.5009 -0.4297
  698TIP3    H126289   1.500   0.573   8.207  0.7188  0.4065  0.2554
  698TIP3    H226290   1.598   0.673   8.148 -1.3198  2.4853  0.2359
  699TIP3   OH226291   7.292   1.619   6.582  0.3158  0.0270  0.1134
  699TIP3    H126292   7.337   1.587   6.503 -1.2260 -1.0803 -0.3877
  699TIP3    H226293   7.275   1.539   6.633 -1.3140  0.3233  0.1039
  700TIP3   OH226294   3.388   6.729   9.365 -0.2127 -0.0445 -0.5003
  700TIP3    H126295   3.468   6.779   9.349 -0.6120  1.5158  1.8216
  700TIP3    H226296   3.331   6.791   9.411 -1.8439 -1.8237 -0.0337
  701TIP3   OH226297   3.529   1.541   7.575 -0.2391  0.4882 -1.1762
  701TIP3    H126298   3.613   1.580   7.602 -0.7234  0.8792 -0.1927
  701TIP3    H226299   3.504   1.592   7.497  1.0726 -0.5214 -2.3075
  702TIP3   OH226300   0.612   4.437   7.935 -0.1611 -0.1530 -0.2343
  702TIP3    H126301   0.535   4.381   7.923  0.1997 -0.5845 -0.5667
  702TIP3    H226302   0.593   4.486   8.015 -1.1695  0.3866 -0.7831
  703TIP3   OH226303   0.889   4.412   7.891 -0.4427 -0.6264  0.6711
  703TIP3    H126304   0.900   4.472   7.964 -1.4939  1.0381 -0.4520
  703TIP3    H226305   0.794   4.400   7.884 -0.4071 -0.2601 -0.7590
  704TIP3   OH226306   3.685   6.720   9.173 -0.2157  0.0071 -0.0393
  704TIP3    H126307   3.665   6.809   9.204 -2.1261 -0.6868  0.8818
  704TIP3    H226308   3.758   6.691   9.228  1.2696  1.3902 -1.1683
  705TIP3   OH226309   6.324   2.330   8.396  0.5053 -0.1124 -0.7008
  705TIP3    H126310   6.281   2.313   8.313 -0.9861 -0.1414  0.0435
  705TIP3    H226311   6.260   2.303   8.462  1.9674 -0.8576  0.4634
  706TIP3   OH226312   5.109   0.198   7.454  0.3367  0.4025  0.1976
  706TIP3    H126313   5.133   0.267   7.393  0.2750 -0.3878 -0.7490
  706TIP3    H226314   5.139   0.230   7.539  2.2253  0.6858 -0.5192
  707TIP3   OH226315   1.741   4.227   6.758  0.8575 -0.0647  0.3844
  707TIP3    H126316   1.776   4.316   6.759  0.6072  0.0306  0.6350
  707TIP3    H226317   1.725   4.207   6.850 -2.6221  1.0100  0.1341
  708TIP3   OH226318   0.324   7.616   8.250 -0.0350  0.6805  0.0550
  708TIP3    H126319   0.235   7.606   8.285  0.4576 -2.3378  0.6687
  708TIP3    H226320   0.371   7.539   8.280  2.3202  1.2581 -1.8205
  709TIP3   OH226321   2.480   6.114   8.579 -0.1714 -0.3912  0.3700
  709TIP3    H126322   2.412   6.089   8.641 -0.5536 -1.2750 -0.3843
  709TIP3    H226323   2.543   6.042   8.581 -1.0180 -1.2658 -1.4339
  710TIP3   OH226324   6.645   5.582   7.764 -0.4516 -0.4985  0.1348
  710TIP3    H126325   6.700   5.574   7.842 -0.6622 -0.4029  0.2925
  710TIP3    H226326   6.668   5.505   7.711  0.5837  0.0692 -0.2809
  711TIP3   OH226327   1.422   2.572   9.516 -0.8020  0.1368  0.3473
  711TIP3    H126328   1.479   2.523   9.456 -1.6952  0.8756 -1.1810
  711TIP3    H226329   1.379   2.637   9.460 -3.1073 -0.3626  1.4136
  712TIP3   OH226330   6.119   3.984   8.959 -0.5835  0.8873  0.2276
  712TIP3    H126331   6.184   3.991   9.028  1.5494  0.8213 -1.6433
  712TIP3    H226332   6.170   3.980   8.878 -2.9419  1.2981 -1.4053
  713TIP3   OH226333   0.656   5.010   9.649  0.0380 -0.0037 -0.2098
  713TIP3    H126334   0.725   5.075   9.657  1.4044 -1.2205 -1.4556
  713TIP3    H226335   0.702   4.926   9.648 -1.3137 -0.7998 -2.2394
  714TIP3   OH226336   6.980   4.421   7.462  0.0696 -0.3302  0.2919
  714TIP3    H126337   7.044   4.389   7.398  1.7654  1.1938  1.0992
  714TIP3    H226338   6.896   4.388   7.431  1.1558 -1.9199 -1.1827
  715TIP3   OH226339   2.262   0.084   7.458 -0.3203  0.3304 -0.1603
  715TIP3    H126340   2.331   0.041   7.406  2.5762  2.7851  1.3262
  715TIP3    H226341   2.239   0.162   7.408  1.0312  1.6465  1.1630
  716TIP3   OH226342   7.111   1.610   6.876  0.0633 -0.0154  0.4106
  716TIP3    H126343   7.168   1.571   6.810  0.3254 -0.4884  0.9019
  716TIP3    H226344   7.114   1.548   6.949  0.0308  0.6465  0.9877
  717TIP3   OH226345   6.492   4.131   8.415  0.5835  0.3428 -0.4445
  717TIP3    H126346   6.545   4.060   8.378 -0.0255  0.2402 -1.1370
  717TIP3    H226347   6.404   4.095   8.421  0.3836  0.8536 -0.2674
  718TIP3   OH226348   0.475   1.708   9.593  0.0158  0.4645 -0.2915
  718TIP3    H126349   0.454   1.658   9.514  0.3506  0.9116 -0.6731
  718TIP3    H226350   0.462   1.646   9.665 -1.3871  0.3795 -0.6023
  719TIP3   OH226351   2.482   0.083   9.152 -0.3174 -0.3829  0.1374
  719TIP3    H126352   2.496  -0.007   9.181 -1.2882 -0.6282 -0.1370
  719TIP3    H226353   2.493   0.080   9.057 -0.7811 -0.3003  0.0796
  720TIP3   OH226354   4.506   1.590   9.170 -0.2494 -0.1423  0.1097
  720TIP3    H126355   4.487   1.663   9.230 -0.0120  0.5949 -0.6936
  720TIP3    H226356   4.600   1.574   9.182 -0.4929 -1.0293  1.0404
  721TIP3   OH226357   4.061   5.381   8.336 -0.1732 -0.0718  0.3884
  721TIP3    H126358   4.143   5.354   8.296 -0.5001 -0.3955 -0.0722
  721TIP3    H226359   3.993   5.353   8.274 -0.6518 -0.1180  0.9250
  722TIP3   OH226360   5.956   6.377   7.490 -0.8366 -0.7986 -0.4719
  722TIP3    H126361   6.036   6.421   7.518 -1.5105 -0.4879  1.0993
  722TIP3    H226362   5.957   6.293   7.536 -0.9195 -1.2379 -1.2551
  723TIP3   OH226363   1.719   3.974   9.244  0.0783  0.3874 -0.4694
  723TIP3    H126364   1.795   3.994   9.188 -1.2348  1.9755 -1.7768
  723TIP3    H226365   1.758   3.937   9.324  2.4150  3.0180 -0.2257
  724TIP3   OH226366   1.827   6.134   8.887 -0.5863 -0.1374  0.1462
  724TIP3    H126367   1.872   6.140   8.971 -1.7693  1.7645  0.6968
  724TIP3    H226368   1.737   6.161   8.905 -1.8539 -3.1645 -1.0606
  725TIP3   OH226369   2.114   7.010   8.587 -0.0697  0.1439  0.1019
  725TIP3    H126370   2.160   6.973   8.661 -0.8892  0.0247  0.5605
  725TIP3    H226371   2.029   7.036   8.621  0.5857  2.8924 -0.0529
  726TIP3   OH226372   2.050   1.842   8.767  0.1057 -0.9878  0.1833
  726TIP3    H126373   2.099   1.801   8.838  0.1222 -1.3212 -0.0215
  726TIP3    H226374   2.040   1.933   8.795  1.8829 -0.5957 -0.3303
  727TIP3   OH226375   1.752   0.057   8.208  0.3070 -0.1051  0.1629
  727TIP3    H126376   1.662   0.087   8.216  0.5520  0.2007  2.4619
  727TIP3    H226377   1.790   0.113   8.141 -1.2871 -0.5151 -1.1584
  728TIP3   OH226378   2.480   6.832   7.536 -0.1883  0.3875 -0.3452
  728TIP3    H126379   2.457   6.855   7.446 -0.5730  0.4835 -0.2228
  728TIP3    H226380   2.568   6.868   7.548 -0.2196  0.5581 -0.6142
  729TIP3   OH226381   7.333   1.526   8.073  0.4400 -0.6374 -0.1701
  729TIP3    H126382   7.387   1.591   8.117  0.5022 -1.4169  0.9534
  729TIP3    H226383   7.372   1.518   7.986  0.0942  1.1977 -0.5429
  730TIP3   OH226384   5.317   5.488   9.480  0.1484  0.0492  0.3590
  730TIP3    H126385   5.331   5.497   9.574  1.1525 -1.1169  0.3442
  730TIP3    H226386   5.389   5.432   9.450 -0.5598 -0.1854 -0.9838
  731TIP3   OH226387   0.971   2.301   7.749 -0.3819  0.1364  0.2943
  731TIP3    H126388   0.916   2.238   7.701 -0.4808 -1.1184  1.9720
  731TIP3    H226389   1.025   2.247   7.806  0.9579  1.4946  0.3696
  732TIP3   OH226390   5.688   2.684   8.407  0.4583 -0.2073  0.8385
  732TIP3    H126391   5.668   2.606   8.354  0.2513 -0.3201  1.0791
  732TIP3    H226392   5.770   2.717   8.370 -0.1598  0.2682 -0.1653
  733TIP3   OH226393   6.137   3.651   8.846  0.3545 -0.4801 -0.0907
  733TIP3    H126394   6.195   3.696   8.785  3.6065 -3.0884  0.7575
  733TIP3    H226395   6.079   3.599   8.791 -0.6224  1.4537 -0.9600
  734TIP3   OH226396   7.554   5.795   9.144 -0.4303 -0.2214 -0.0216
  734TIP3    H126397   7.459   5.791   9.135 -0.4635  0.2544  0.1366
  734TIP3    H226398   7.587   5.772   9.057 -0.6769 -0.8245  0.0332
  735TIP3   OH226399   2.732   3.065   7.631 -1.0251  0.1380 -0.2972
  735TIP3    H126400   2.792   3.047   7.559  0.5022  1.1159  0.6702
  735TIP3    H226401   2.745   3.157   7.651 -2.7013  0.3174  0.1217
  736TIP3   OH226402   0.579   6.613   7.473  0.2740 -0.3974 -0.0411
  736TIP3    H126403   0.577   6.688   7.414  0.0142  0.4938  1.0591
  736TIP3    H226404   0.559   6.538   7.417  2.4918  0.0557 -1.5519
  737TIP3   OH226405   2.218   0.299   7.274  0.0580 -0.0100  0.1347
  737TIP3    H126406   2.282   0.352   7.226  0.8636 -1.1259 -0.0386
  737TIP3    H226407   2.190   0.232   7.212  1.6959 -1.9615  1.3919
  738TIP3   OH226408   0.803   2.738   7.883  0.1619 -0.0081 -0.7539
  738TIP3    H126409   0.874   2.799   7.905  0.1840 -0.4800  0.5767
  738TIP3    H226410   0.820   2.714   7.792  1.7357 -0.1130 -0.4608
  739TIP3   OH226411   2.107   2.114   8.371  0.2048  0.3394  0.7878
  739TIP3    H126412   2.098   2.133   8.464  0.6280 -0.9790  1.1282
  739TIP3    H226413   2.036   2.163   8.329 -1.4929 -0.9013  2.0758
  740TIP3   OH226414   5.244   0.918   6.788 -0.0373 -0.0761  0.2131
  740TIP3    H126415   5.247   1.002   6.743  1.0615 -0.6140 -0.7673
  740TIP3    H226416   5.336   0.893   6.798 -0.2815 -0.4184  1.9515
  741TIP3   OH226417   7.292   0.502   7.687 -0.3578 -0.0284 -0.2186
  741TIP3    H126418   7.284   0.477   7.779  0.3822  0.0508 -0.1253
  741TIP3    H226419   7.246   0.586   7.681 -1.6713 -0.7276 -0.2474
  742TIP3   OH226420   5.305   4.151   7.425  0.0104 -0.8484 -0.5718
  742TIP3    H126421   5.246   4.169   7.352  1.7625 -0.3169 -1.9178
  742TIP3    H226422   5.331   4.060   7.412 -0.7626 -1.1990  0.2370
  743TIP3   OH226423   1.887   6.582   7.416 -0.0892 -0.2113  0.3120
  743TIP3    H126424   1.898   6.675   7.434  0.2613 -0.2937  0.5219
  743TIP3    H226425   1.798   6.562   7.444 -0.3610  0.1811 -0.2454
  744TIP3   OH226426   5.897   7.413   6.652  0.0427  0.1300  0.1326
  744TIP3    H126427   5.821   7.394   6.706  0.6808 -0.5474  0.8186
  744TIP3    H226428   5.901   7.509   6.648 -1.2191  0.1703 -0.4808
  745TIP3   OH226429   3.411   2.512   9.088 -0.2267 -0.0667 -0.4522
  745TIP3    H126430   3.364   2.442   9.133 -2.8649  2.0952  0.3822
  745TIP3    H226431   3.461   2.556   9.157  0.3464 -0.2622 -0.7332
  746TIP3   OH226432   1.887   1.331   9.043 -0.2377 -0.6705 -0.1830
  746TIP3    H126433   1.845   1.381   8.973  1.3958 -0.6457 -1.1931
  746TIP3    H226434   1.934   1.261   8.997 -1.2427 -2.2400  1.0885
  747TIP3   OH226435   2.104   1.081   7.881  0.3285  0.7031  0.0810
  747TIP3    H126436   2.079   0.991   7.900 -0.5431  1.2141  1.5035
  747TIP3    H226437   2.142   1.077   7.793 -1.0666 -0.7946 -0.5040
  748TIP3   OH226438   2.031   0.729   9.374 -0.7068  0.2731  0.5129
  748TIP3    H126439   2.081   0.650   9.352  1.4152  1.4591  0.9170
  748TIP3    H226440   1.950   0.695   9.413 -0.6614 -1.7162 -0.9432
  749TIP3   OH226441   5.129   2.143   8.459  0.0669 -0.7599  0.3481
  749TIP3    H126442   5.063   2.085   8.498  1.3210 -1.5476  1.3729
  749TIP3    H226443   5.079   2.199   8.399 -1.4766 -1.5425  0.8470
  750TIP3   OH226444   0.268   3.001   7.979 -0.1688  0.1045  0.2890
  750TIP3    H126445   0.350   2.951   7.975 -0.7191 -0.7537 -0.6576
  750TIP3    H226446   0.292   3.083   8.023  1.3900  0.2404 -0.7570
  751TIP3   OH226447   2.517   5.026   6.607 -0.1867  0.0122 -0.3219
  751TIP3    H126448   2.595   4.972   6.602 -0.4635 -0.5414  1.1173
  751TIP3    H226449   2.511   5.067   6.520  1.5018 -0.1807 -0.5561
  752TIP3   OH226450   0.771   5.256   9.506  0.9034 -0.1781 -0.0769
  752TIP3    H126451   0.845   5.284   9.560  0.0830  1.8343  0.0964
  752TIP3    H226452   0.714   5.333   9.502 -0.8009 -1.4184 -0.8603
  753TIP3   OH226453   6.406   3.368   9.431 -0.3490  0.6877 -0.2289
  753TIP3    H126454   6.443   3.455   9.440 -1.8089  1.1608  1.7633
  753TIP3    H226455   6.481   3.309   9.434  0.6648  1.8419 -1.7485
  754TIP3   OH226456   2.136   1.617   9.323  0.0884 -0.0307 -0.4024
  754TIP3    H126457   2.187   1.624   9.242 -0.2997 -0.2625 -0.6718
  754TIP3    H226458   2.104   1.527   9.323 -0.1938  0.0669 -0.1630
  755TIP3   OH226459   4.846   6.336   7.424 -0.1727 -0.1695  0.2417
  755TIP3    H126460   4.875   6.294   7.343  0.4067  1.2633 -0.3258
  755TIP3    H226461   4.915   6.316   7.487  1.5455  2.1513 -0.7646
  756TIP3   OH226462   1.761   1.841   7.483 -0.2979  0.1589  0.3957
  756TIP3    H126463   1.844   1.879   7.455 -0.1020 -0.7543 -0.2956
  756TIP3    H226464   1.743   1.884   7.567 -0.2136  1.9373 -0.4358
  757TIP3   OH226465   4.695   7.097   8.574  0.1508  0.0455  0.2891
  757TIP3    H126466   4.637   7.070   8.503  1.6986  0.7228 -1.2887
  757TIP3    H226467   4.675   7.190   8.587  0.3933  0.1021  0.2470
  758TIP3   OH226468   1.849   2.934   8.374 -0.1067  0.5259 -0.4782
  758TIP3    H126469   1.926   2.878   8.360  1.3804  2.2496  0.4573
  758TIP3    H226470   1.774   2.875   8.361  1.3457 -1.9295  1.3634
  759TIP3   OH226471   2.231   5.978   9.419  0.6377  0.1421 -0.8643
  759TIP3    H126472   2.144   5.937   9.419  0.8102 -0.2555  0.0489
  759TIP3    H226473   2.215   6.068   9.391  0.0084 -0.0719 -1.2219
  760TIP3   OH226474   5.220   7.306   7.812  0.5404  0.7717 -0.7771
  760TIP3    H126475   5.183   7.364   7.878  0.5460 -1.9793  1.8974
  760TIP3    H226476   5.286   7.255   7.860  0.6523 -1.2704 -2.9146
  761TIP3   OH226477   2.569   6.301   8.407 -0.2958  0.2352  0.4528
  761TIP3    H126478   2.603   6.257   8.330 -1.3682 -0.8714  0.5971
  761TIP3    H226479   2.525   6.233   8.458 -0.3702  1.1034  1.6141
  762TIP3   OH226480   6.924   0.656   6.800 -0.5030 -0.7638 -0.0059
  762TIP3    H126481   7.014   0.652   6.834  0.1784  0.7783 -1.4492
  762TIP3    H226482   6.910   0.571   6.761  0.5447 -0.8595 -0.2151
  763TIP3   OH226483   1.526   0.917   7.844  0.2191 -0.6088  0.3875
  763TIP3    H126484   1.571   0.833   7.839 -0.0160 -0.8637  1.9113
  763TIP3    H226485   1.434   0.897   7.828  0.6039  0.0090 -3.4082
  764TIP3   OH226486   4.131   3.558   7.386  0.2316 -0.0788 -0.1908
  764TIP3    H126487   4.085   3.501   7.447  1.1390 -0.4196  0.1762
  764TIP3    H226488   4.223   3.545   7.405  0.4914  0.5377 -0.9857
  765TIP3   OH226489   5.448   1.720   8.130  0.2347  0.1821 -0.5593
  765TIP3    H126490   5.525   1.748   8.180  1.2982 -0.5639 -1.7063
  765TIP3    H226491   5.439   1.786   8.061 -0.5639  0.6198 -0.0475
  766TIP3   OH226492   0.005   7.501   7.764 -0.0430  0.0532 -0.6058
  766TIP3    H126493   0.006   7.515   7.859 -0.9438  0.8068 -0.6980
  766TIP3    H226494  -0.007   7.588   7.727 -2.4576 -0.4947 -1.3172
  767TIP3   OH226495   2.534   4.649   8.874  0.3270 -0.0881 -0.1895
  767TIP3    H126496   2.490   4.659   8.959 -0.5191 -1.5521 -0.4230
  767TIP3    H226497   2.518   4.732   8.829 -3.2314 -0.8653 -0.6846
  768TIP3   OH226498   0.495   0.240   9.424  0.0061 -0.0253  0.5250
  768TIP3    H126499   0.520   0.152   9.453  0.1234 -0.4105 -0.6889
  768TIP3    H226500   0.529   0.246   9.335 -1.9801  0.3822 -0.2555
  769TIP3   OH226501   4.514   5.102   7.557 -0.7457 -0.6527 -0.5032
  769TIP3    H126502   4.475   5.146   7.633 -1.2423 -1.3880 -0.3246
  769TIP3    H226503   4.495   5.159   7.483 -0.1218  0.1534 -0.0632
  770TIP3   OH226504   2.525   5.060   7.851 -0.1140  0.0558  0.2482
  770TIP3    H126505   2.603   5.104   7.819  1.3214 -1.2741  1.7561
  770TIP3    H226506   2.545   5.037   7.942 -1.5833 -1.8537  0.1660
  771TIP3   OH226507   7.471   6.440   9.084  0.2181  0.6660  0.0108
  771TIP3    H126508   7.559   6.411   9.059  0.2512  0.9050 -0.1530
  771TIP3    H226509   7.414   6.368   9.058  0.5806 -0.4063  1.9702
  772TIP3   OH226510   1.759   6.872   9.049  0.2415 -0.1659  0.2983
  772TIP3    H126511   1.688   6.922   9.011 -0.2319 -0.6758  0.4927
  772TIP3    H226512   1.749   6.883   9.143 -0.4207 -1.3500  0.3806
  773TIP3   OH226513   1.409   5.689   7.409 -0.3471  0.2259  0.1628
  773TIP3    H126514   1.392   5.780   7.433  0.2848  0.3549  0.1527
  773TIP3    H226515   1.426   5.692   7.315 -1.0378 -0.0098  0.0307
  774TIP3   OH226516   4.613   0.286   8.644  0.0078  0.4166  0.5805
  774TIP3    H126517   4.596   0.259   8.554  0.5673 -0.1875  0.6417
  774TIP3    H226518   4.701   0.252   8.662  0.2025  1.1825  1.1058
  775TIP3   OH226519   2.343   1.978   8.589 -0.0736  0.2809 -0.2828
  775TIP3    H126520   2.314   2.052   8.536  0.4551  1.0501  0.4919
  775TIP3    H226521   2.322   1.901   8.535  0.2981  1.0284 -1.5333
  776TIP3   OH226522   6.783   0.490   7.675 -0.7510  0.4387 -0.1251
  776TIP3    H126523   6.812   0.573   7.636  1.0602  0.9150  1.9907
  776TIP3    H226524   6.864   0.443   7.694 -1.6371 -0.7027  1.0058
  777TIP3   OH226525   5.859   7.475   9.281  0.2893  0.3754 -0.1783
  777TIP3    H126526   5.928   7.413   9.258  1.9711  2.5208 -1.3217
  777TIP3    H226527   5.902   7.539   9.338 -1.1424  1.0262  0.2315
  778TIP3   OH226528   1.608   0.219   8.975 -0.6014 -0.0711  0.4472
  778TIP3    H126529   1.591   0.184   8.888 -0.5418 -0.3779  0.5599
  778TIP3    H226530   1.616   0.314   8.961  1.9713 -0.3137 -0.3159
  779TIP3   OH226531   5.446   3.553   8.241 -0.5765 -0.2642 -0.1636
  779TIP3    H126532   5.455   3.587   8.330  0.0262 -1.2731  0.1744
  779TIP3    H226533   5.441   3.458   8.252  3.3079 -0.7670 -1.4233
  780TIP3   OH226534   3.288   0.396   7.575 -0.4728  0.2247 -0.2399
  780TIP3    H126535   3.286   0.480   7.621 -0.1484 -0.2009  0.5717
  780TIP3    H226536   3.343   0.340   7.630 -0.3708 -0.4096 -0.9686
  781TIP3   OH226537   6.229   6.905   8.306 -0.2812  0.5261 -0.5594
  781TIP3    H126538   6.217   6.965   8.379 -1.2624 -1.2997  0.8740
  781TIP3    H226539   6.153   6.847   8.310  1.1265 -1.4671 -1.1824
  782TIP3   OH226540   6.279   5.193   8.317  0.1212 -0.2632  0.6164
  782TIP3    H126541   6.191   5.169   8.348 -0.0619 -2.0323 -1.0943
  782TIP3    H226542   6.319   5.110   8.291  1.0082  0.8407 -1.8577
  783TIP3   OH226543   7.255   6.647   9.027  0.1801  0.3560 -0.3256
  783TIP3    H126544   7.309   6.571   9.047 -1.6898 -0.8625  0.3229
  783TIP3    H226545   7.296   6.686   8.950  1.7873 -0.6732 -0.0323
  784TIP3   OH226546   3.593   2.620   8.171  0.3360  0.3100 -0.2612
  784TIP3    H126547   3.550   2.544   8.211 -0.0206  1.6188  1.9855
  784TIP3    H226548   3.676   2.585   8.137 -0.0997 -1.2060  0.1468
  785TIP3   OH226549   5.861   2.440   7.413  0.1408  0.7364 -0.2085
  785TIP3    H126550   5.935   2.380   7.408 -0.6102 -0.3156  0.6543
  785TIP3    H226551   5.831   2.449   7.323 -1.3538 -2.3570 -0.1658
  786TIP3   OH226552   6.981   2.589   9.326  0.1537  0.1415  0.4212
  786TIP3    H126553   7.064   2.548   9.351 -0.1441  0.0354  1.2727
  786TIP3    H226554   6.996   2.683   9.336  0.9639  0.3238 -1.9149
  787TIP3   OH226555   0.112   6.646   9.466 -0.3583  0.6882  0.2518
  787TIP3    H126556   0.166   6.568   9.476  1.1437  1.5315 -0.8146
  787TIP3    H226557   0.041   6.619   9.409  0.4629  0.2235 -0.5754
  788TIP3   OH226558   3.946   3.737   8.211 -0.5797  0.4477 -0.6268
  788TIP3    H126559   3.982   3.818   8.246  0.4557 -0.3927  0.3082
  788TIP3    H226560   3.870   3.718   8.266 -1.0240  0.9227 -1.0535
  789TIP3   OH226561   1.791   2.243   7.492 -0.0548  0.6587 -0.9510
  789TIP3    H126562   1.796   2.334   7.464  2.4900  0.8187 -0.2641
  789TIP3    H226563   1.796   2.193   7.410  0.7589  1.1492 -1.2164
  790TIP3   OH226564   2.159   3.839   7.833 -0.2697  0.6193 -0.7088
  790TIP3    H126565   2.228   3.821   7.897 -1.7855 -0.9014  0.5963
  790TIP3    H226566   2.094   3.890   7.881 -0.8029  0.6503 -1.4375
  791TIP3   OH226567   2.589   1.837   8.343  0.0082  0.1652  0.1062
  791TIP3    H126568   2.605   1.901   8.412 -0.5098  0.3504  0.0634
  791TIP3    H226569   2.504   1.862   8.307  0.0409 -0.2351 -0.2605
  792TIP3   OH226570   3.192   2.953   7.862  0.4393  0.1056 -0.1728
  792TIP3    H126571   3.270   3.001   7.832 -0.3830  1.6230  0.0293
  792TIP3    H226572   3.124   3.020   7.868 -1.0535 -1.2968 -0.9097
  793TIP3   OH226573   3.177   5.113   8.066 -0.3532  0.1995  0.0822
  793TIP3    H126574   3.266   5.148   8.080  0.3052 -1.0260 -0.8704
  793TIP3    H226575   3.162   5.055   8.140  0.3153 -0.8364 -0.5608
  794TIP3   OH226576   5.020   6.840   7.543  0.4563 -0.2589 -0.4478
  794TIP3    H126577   4.929   6.824   7.517  0.2237 -0.5536  0.5223
  794TIP3    H226578   5.034   6.784   7.619  0.5712  1.7814  1.1431
  795TIP3   OH226579   3.101   2.225   8.861  0.2593 -0.2518  0.2725
  795TIP3    H126580   3.045   2.219   8.939  0.4407 -0.4438  0.3909
  795TIP3    H226581   3.077   2.149   8.808  1.4925 -1.2432  1.0552
  796TIP3   OH226582   3.322   3.553   8.088  0.4093  0.0864  0.3042
  796TIP3    H126583   3.332   3.585   8.178  1.7367  2.3297 -0.5900
  796TIP3    H226584   3.394   3.591   8.040 -1.0449  0.0593 -2.0486
  797TIP3   OH226585   5.725   3.257   9.663 -0.4709 -0.3451 -0.0589
  797TIP3    H126586   5.703   3.190   9.727 -0.9051  2.4105  2.9396
  797TIP3    H226587   5.648   3.263   9.606 -0.9521 -1.4677  0.4522
  798TIP3   OH226588   4.469   1.109   8.411 -0.4420  0.2671 -0.0600
  798TIP3    H126589   4.442   1.026   8.373 -0.6550 -0.0825  0.8293
  798TIP3    H226590   4.549   1.089   8.459  1.1079  1.1500 -2.0954
  799TIP3   OH226591   1.791   7.420   8.273 -0.0383  0.4343 -0.5957
  799TIP3    H126592   1.856   7.353   8.254 -0.1824 -0.5368  1.9794
  799TIP3    H226593   1.711   7.389   8.230  0.5364  0.3508 -1.6331
  800TIP3   OH226594   3.556   1.398   8.554 -0.0082 -0.0851  1.2283
  800TIP3    H126595   3.581   1.390   8.462 -1.8403  0.9003  0.5917
  800TIP3    H226596   3.639   1.398   8.601  0.9960 -0.3002 -0.4413
  801TIP3   OH226597   6.498   0.726   9.476 -0.2284 -0.8679  0.2253
  801TIP3    H126598   6.456   0.730   9.390 -1.6400 -2.4345  0.7742
  801TIP3    H226599   6.588   0.701   9.458 -0.6708 -1.8169 -0.7825
  802TIP3   OH226600   6.263   1.644   7.557  0.0467 -0.1316  0.2359
  802TIP3    H126601   6.209   1.721   7.570  0.6311 -0.0259  2.3990
  802TIP3    H226602   6.209   1.570   7.584 -0.1423 -0.4062 -0.8200
  803TIP3   OH226603   3.404   3.114   9.464  0.2052 -0.7973  0.2938
  803TIP3    H126604   3.349   3.188   9.438  0.5779 -0.2471  1.0161
  803TIP3    H226605   3.489   3.132   9.425  0.3594 -0.7192  0.6579
  804TIP3   OH226606   0.962   2.939   7.964  0.4543 -0.0508 -0.2905
  804TIP3    H126607   1.006   3.018   7.933  0.8296  0.2961  1.0700
  804TIP3    H226608   1.005   2.918   8.047 -1.4570 -0.0891  0.7478
  805TIP3   OH226609   3.495   5.699   7.864  0.0833  0.3630  0.0559
  805TIP3    H126610   3.455   5.764   7.921  1.7854  1.0999  0.4913
  805TIP3    H226611   3.532   5.750   7.792  0.4931 -0.2252 -0.1594
  806TIP3   OH226612   7.133   3.115   7.711  0.3886  0.3092 -0.4652
  806TIP3    H126613   7.127   3.204   7.677  0.7541  1.0109  1.2071
  806TIP3    H226614   7.063   3.109   7.776  1.1495 -0.1879  0.3340
  807TIP3   OH226615   6.927   3.993   9.500  0.2183 -0.0745 -0.4263
  807TIP3    H126616   6.994   4.034   9.555  1.6035 -0.4484 -1.7851
  807TIP3    H226617   6.899   4.063   9.440  2.3114 -0.9029 -2.4951
  808TIP3   OH226618   4.943   6.897   7.087 -0.4699 -0.4398 -0.3238
  808TIP3    H126619   5.019   6.912   7.144 -0.2130 -1.1401 -0.4658
  808TIP3    H226620   4.975   6.919   6.999 -0.0975 -1.7298 -0.5293
  809TIP3   OH226621   3.576   5.720   8.198 -0.3002  0.4945  0.6891
  809TIP3    H126622   3.620   5.776   8.134 -0.5513  1.1795  1.0948
  809TIP3    H226623   3.591   5.764   8.282  1.9872 -1.5494  1.4854
  810TIP3   OH226624   0.681   0.091   7.392  0.3928  0.0709  0.2081
  810TIP3    H126625   0.718   0.178   7.378  1.0872 -0.5728 -2.5330
  810TIP3    H226626   0.757   0.035   7.409  0.1255 -0.2740  0.2743
  811TIP3   OH226627   3.017   4.045   9.534  0.5094  0.2041  0.4350
  811TIP3    H126628   3.008   3.953   9.559 -0.2296  0.7021  2.1654
  811TIP3    H226629   2.928   4.079   9.532  0.7096  0.7292 -0.9716
  812TIP3   OH226630   4.263   4.376   8.216 -0.2252  0.2667 -0.8622
  812TIP3    H126631   4.313   4.336   8.145  2.0265  2.0309 -0.3933
  812TIP3    H226632   4.252   4.306   8.280  0.7575 -0.4526 -1.4494
  813TIP3   OH226633   4.147   7.502   8.530  0.2203  0.3183  0.6354
  813TIP3    H126634   4.201   7.549   8.593 -0.0046 -1.6058  2.3464
  813TIP3    H226635   4.208   7.441   8.487  0.1288  0.7625 -0.1414
  814TIP3   OH226636   0.728   5.459   9.149 -0.0696 -0.2422  0.5015
  814TIP3    H126637   0.792   5.523   9.116  1.1054 -0.3869  2.3598
  814TIP3    H226638   0.662   5.512   9.194  0.5365 -0.2730  1.4464
  815TIP3   OH226639   5.289   1.578   9.379 -0.2658  0.0875  0.3548
  815TIP3    H126640   5.305   1.630   9.300 -0.5450 -0.0943  0.1770
  815TIP3    H226641   5.255   1.641   9.443 -1.3006  0.0087 -0.0891
  816TIP3   OH226642   4.265   2.253   9.306  0.0078 -0.5132 -0.6996
  816TIP3    H126643   4.347   2.221   9.345 -0.8483 -3.6719 -1.1751
  816TIP3    H226644   4.279   2.244   9.212 -0.9291 -1.2503 -0.7776
  817TIP3   OH226645   3.076   0.631   9.524  0.0270  0.0891  0.6940
  817TIP3    H126646   3.077   0.642   9.619  1.5242 -1.2274  0.8623
  817TIP3    H226647   3.118   0.710   9.490 -2.1656  1.4521  0.9612
  818TIP3   OH226648   3.214   1.714   8.648 -0.5464 -0.3527 -0.3108
  818TIP3    H126649   3.164   1.643   8.608  0.6402 -1.6480  0.4038
  818TIP3    H226650   3.292   1.671   8.683  0.7308  1.4789 -0.7630
  819TIP3   OH226651   2.982   0.021   7.540  0.4206 -0.4671 -0.0908
  819TIP3    H126652   2.963   0.064   7.623  1.1968 -0.8717  0.3096
  819TIP3    H226653   3.046   0.077   7.498 -1.4725  0.8483 -1.4007
  820TIP3   OH226654   5.930   2.491   9.249  0.5352 -0.7609 -0.1832
  820TIP3    H126655   5.886   2.557   9.196  1.1922 -0.1414  0.0229
  820TIP3    H226656   5.879   2.411   9.236  0.5975 -0.5941 -1.6420
  821TIP3   OH226657   5.923   6.330   8.118 -0.0581 -0.2277 -0.2662
  821TIP3    H126658   5.936   6.348   8.025 -1.9846  0.4422 -0.4545
  821TIP3    H226659   5.880   6.409   8.152  0.8498 -0.3601  1.2565
  822TIP3   OH226660   1.442   6.948   8.326  0.2475  0.7112  0.6683
  822TIP3    H126661   1.445   6.983   8.415  0.0269  2.7143 -0.0617
  822TIP3    H226662   1.394   7.014   8.276  0.4534 -0.3282 -0.9695
  823TIP3   OH226663   5.646   2.440   8.313 -0.3512 -0.4902 -0.4221
  823TIP3    H126664   5.694   2.393   8.244 -1.7945 -0.0068 -1.8320
  823TIP3    H226665   5.625   2.372   8.378  1.5643 -0.8402 -0.1070
  824TIP3   OH226666   1.663   1.688   9.045  0.2223 -0.1732 -0.2923
  824TIP3    H126667   1.570   1.685   9.067  0.2125 -0.1995 -0.3369
  824TIP3    H226668   1.708   1.679   9.129  0.1772  1.2179 -0.0852
  825TIP3   OH226669   5.182   4.750   8.034  0.6027 -0.2472 -0.2552
  825TIP3    H126670   5.116   4.715   7.975  0.3401  0.1009 -0.1674
  825TIP3    H226671   5.246   4.679   8.044  0.9421 -0.1228 -1.3986
  826TIP3   OH226672   1.403   3.439   7.892  0.0981 -0.1937  0.4171
  826TIP3    H126673   1.470   3.506   7.882 -0.5207  0.3055 -0.4967
  826TIP3    H226674   1.351   3.467   7.967  0.7458 -0.4522  0.9724
  827TIP3   OH226675   4.238   5.390   8.130  0.1565  0.0596 -0.1647
  827TIP3    H126676   4.324   5.402   8.089  0.5899 -1.5045  0.2483
  827TIP3    H226677   4.176   5.396   8.057  0.9004 -2.4259 -1.1029
  828TIP3   OH226678   1.749   3.681   8.663  0.5804 -0.2381  0.0177
  828TIP3    H126679   1.720   3.701   8.574  0.3616 -0.9335 -0.0717
  828TIP3    H226680   1.684   3.722   8.719 -1.0674 -2.3951 -0.1816
  829TIP3   OH226681   3.568   7.293   8.497 -0.0239  0.1291 -0.3440
  829TIP3    H126682   3.563   7.383   8.527  0.3168 -0.2524  0.9244
  829TIP3    H226683   3.480   7.257   8.511  0.5610 -0.5674  2.0440
  830TIP3   OH226684   3.533   6.384   7.195 -0.3221  0.4577 -0.2634
  830TIP3    H126685   3.449   6.390   7.241 -0.6002  1.7060 -0.9168
  830TIP3    H226686   3.522   6.438   7.117  0.7937 -0.1006 -0.8280
  831TIP3   OH226687   0.771   4.226   6.807 -0.1769 -0.0069 -0.2085
  831TIP3    H126688   0.699   4.284   6.831  0.7797  1.0963  0.0978
  831TIP3    H226689   0.734   4.167   6.741 -1.5951 -0.0712  0.6086
  832TIP3   OH226690   7.156   0.610   9.396 -0.7264  0.2727 -0.0561
  832TIP3    H126691   7.119   0.610   9.484 -1.3097  0.3140 -0.2966
  832TIP3    H226692   7.250   0.625   9.409 -0.5942 -0.9573  0.6508
  833TIP3   OH226693   6.443   6.153   7.594  0.3227 -0.3008 -0.5132
  833TIP3    H126694   6.432   6.244   7.566 -1.0438 -0.2305  0.1695
  833TIP3    H226695   6.374   6.139   7.659  2.7910 -0.7032  2.2426
  834TIP3   OH226696   3.965   0.771   7.583 -0.7543 -0.3076  0.9136
  834TIP3    H126697   4.015   0.690   7.589 -0.5562 -0.2063  0.6072
  834TIP3    H226698   3.875   0.742   7.563 -0.5213 -0.4121 -0.0278
  835TIP3   OH226699   5.247   0.731   8.131  0.3059 -0.4596  0.1547
  835TIP3    H126700   5.247   0.822   8.102  0.2188 -0.7200 -0.6930
  835TIP3    H226701   5.211   0.734   8.219  0.8473  0.3940  0.3532
  836TIP3   OH226702   3.318   5.744   6.944  0.2099 -0.3864 -0.3316
  836TIP3    H126703   3.253   5.705   6.885  0.1768  0.0918 -0.6151
  836TIP3    H226704   3.381   5.674   6.959 -0.0030 -0.6414 -0.6128
  837TIP3   OH226705   0.344   1.994   8.431  0.2062 -0.5121  0.0203
  837TIP3    H126706   0.383   1.939   8.363  0.9727 -0.0007  0.0384
  837TIP3    H226707   0.393   1.973   8.510  0.2679 -0.0639  0.1043
  838TIP3   OH226708   3.859   1.788   8.850 -0.2824 -0.3056 -0.0110
  838TIP3    H126709   3.802   1.765   8.777  0.8172 -0.0662 -0.9738
  838TIP3    H226710   3.801   1.832   8.913 -1.7791 -2.7957  0.4651
  839TIP3   OH226711   5.957   3.217   8.537 -0.7126 -0.4753  0.1766
  839TIP3    H126712   5.984   3.308   8.527  2.1121 -1.1768  0.5215
  839TIP3    H226713   5.911   3.196   8.456 -0.5706  0.9889 -0.3126
  840TIP3   OH226714   6.450   6.607   7.060 -0.0676  0.1410  0.0030
  840TIP3    H126715   6.453   6.591   7.154 -1.7328  1.3400  0.2942
  840TIP3    H226716   6.497   6.532   7.021 -0.6530 -1.1456  1.6825
  841TIP3   OH226717   5.556   1.369   8.401 -0.1238 -0.4770  0.6130
  841TIP3    H126718   5.563   1.288   8.451  1.9258 -0.4703  0.4438
  841TIP3    H226719   5.569   1.342   8.310  2.2601  0.1627  0.6973
  842TIP3   OH226720   0.190   0.325   8.239  0.1403  0.1056  0.1721
  842TIP3    H126721   0.186   0.403   8.295 -0.6104 -0.3404  0.7678
  842TIP3    H226722   0.282   0.300   8.238  0.4052  1.0749 -0.1283
  843TIP3   OH226723   4.953   7.247   9.093 -0.1680  0.5047 -0.1848
  843TIP3    H126724   4.993   7.178   9.145  0.4199 -0.6112 -2.0367
  843TIP3    H226725   5.016   7.319   9.096 -0.4779  0.7494  1.1947
  844TIP3   OH226726   2.173   7.010   9.321  0.3272  0.0925 -0.4514
  844TIP3    H126727   2.231   6.938   9.297  2.3060  1.0585  1.0416
  844TIP3    H226728   2.125   7.030   9.241  1.6486 -1.1586 -1.6249
  845TIP3   OH226729   0.872   7.216   8.115 -0.3113  0.3010 -0.5286
  845TIP3    H126730   0.920   7.296   8.136 -1.1426  0.4906  0.7603
  845TIP3    H226731   0.877   7.163   8.194  0.0970 -0.8814 -1.3108
  846TIP3   OH226732   4.060   4.414   7.293  0.0132 -0.2640  0.1954
  846TIP3    H126733   4.015   4.497   7.280 -0.2741 -0.5429 -0.6980
  846TIP3    H226734   4.087   4.388   7.205 -0.3444 -1.3576  0.3993
  847TIP3   OH226735   0.045   5.746   9.363 -0.4097 -0.5113 -0.3256
  847TIP3    H126736  -0.001   5.672   9.402  0.2429 -0.9699 -0.4085
  847TIP3    H226737  -0.019   5.785   9.304 -1.4636  0.2796  1.2680
  848TIP3   OH226738   4.526   5.397   9.119 -1.0308 -0.7290 -0.6160
  848TIP3    H126739   4.497   5.377   9.030  1.5334  0.0031 -1.6873
  848TIP3    H226740   4.617   5.369   9.123 -0.5758  0.7537  1.2400
  849TIP3   OH226741   7.401   3.192   9.232  0.1529 -0.0182 -0.1529
  849TIP3    H126742   7.440   3.279   9.235  0.3429 -0.1289  1.0257
  849TIP3    H226743   7.453   3.145   9.167  1.5734  0.0455  0.8844
  850TIP3   OH226744   0.108   2.964   9.085 -0.2411 -0.5645  0.2521
  850TIP3    H126745   0.020   2.936   9.111 -0.0318 -1.1120  0.3926
  850TIP3    H226746   0.118   3.051   9.124 -0.2119 -1.0619  1.4112
  851TIP3   OH226747   2.655   6.869   8.304 -0.4454 -0.0635  0.0981
  851TIP3    H126748   2.729   6.908   8.350  0.2037 -0.1811 -0.8305
  851TIP3    H226749   2.693   6.802   8.248 -1.3202 -0.5315  0.0367
  852TIP3   OH226750   0.422   4.675   7.402 -0.4301  0.3763  0.4404
  852TIP3    H126751   0.494   4.638   7.349  0.0915  1.3930  0.4213
  852TIP3    H226752   0.383   4.599   7.445 -0.1657 -0.3469 -0.5546
  853TIP3   OH226753   6.048   4.521   7.823  0.8102  0.6268 -0.4087
  853TIP3    H126754   6.067   4.443   7.771  0.7591  0.6514 -0.4655
  853TIP3    H226755   5.978   4.494   7.882  0.7868  0.6321 -0.4342
  854TIP3   OH226756   3.816   5.970   9.391  0.0613  0.3967  0.1577
  854TIP3    H126757   3.879   6.029   9.433  1.0353  0.2313 -1.0125
  854TIP3    H226758   3.837   5.975   9.298 -0.9656 -0.4998 -0.1442
  855TIP3   OH226759   0.140   7.428   9.136  0.0324  0.0031  0.3555
  855TIP3    H126760   0.077   7.394   9.199 -0.2866 -1.6950 -0.8072
  855TIP3    H226761   0.122   7.379   9.056  1.9256  0.4876 -0.4080
  856TIP3   OH226762   0.704   3.593   7.612 -0.1493  0.6905 -0.3150
  856TIP3    H126763   0.639   3.598   7.682  0.5059 -3.5722  0.8858
  856TIP3    H226764   0.786   3.620   7.654  0.0312 -0.7192  0.2916
  857TIP3   OH226765   7.651   5.527   8.828 -1.0844  0.0730 -0.5681
  857TIP3    H126766   7.575   5.580   8.802 -2.0668 -1.1299 -0.2137
  857TIP3    H226767   7.646   5.450   8.771  1.1751  0.9649 -2.1261
  858TIP3   OH226768   4.610   4.034   9.063  0.0766 -0.1095  0.2128
  858TIP3    H126769   4.632   4.052   9.155 -1.1493 -1.4903  0.8308
  858TIP3    H226770   4.524   4.074   9.052 -1.8878 -3.6288  1.0980
  859TIP3   OH226771   5.354   4.857   8.712  0.1699  0.3810 -0.5817
  859TIP3    H126772   5.342   4.952   8.714 -1.7089  0.1831 -0.3896
  859TIP3    H226773   5.302   4.825   8.786  0.6202 -0.8249 -0.7624
  860TIP3   OH226774   2.224   3.439   6.835  0.4389 -0.2983  0.6278
  860TIP3    H126775   2.297   3.378   6.849  0.3664 -0.0114  2.4782
  860TIP3    H226776   2.264   3.526   6.838  0.2658 -0.1883 -0.1175
  861TIP3   OH226777   7.331   5.038   7.798 -0.1627 -0.2982  0.3334
  861TIP3    H126778   7.408   5.053   7.853  0.7230  0.2578 -1.0117
  861TIP3    H226779   7.332   5.109   7.735 -0.9987 -1.0536 -0.5666
  862TIP3   OH226780   6.643   0.203   9.046  0.3762 -0.4971  0.2440
  862TIP3    H126781   6.641   0.199   9.142 -0.7193  1.6332  0.3545
  862TIP3    H226782   6.731   0.235   9.025  0.1352  0.4408  0.6295
  863TIP3   OH226783   4.082   6.062   8.540 -0.0650  0.0228 -0.3198
  863TIP3    H126784   4.010   6.082   8.481  0.1209 -0.8538 -0.8736
  863TIP3    H226785   4.157   6.050   8.482  0.6266  1.2936  0.2713
  864TIP3   OH226786   7.208   1.940   8.307 -0.3023 -0.3775  0.1027
  864TIP3    H126787   7.217   1.880   8.232 -1.9582  0.2792 -0.6691
  864TIP3    H226788   7.198   1.882   8.382 -0.2692 -1.0722 -0.4127
  865TIP3   OH226789   4.314   1.470   7.731 -0.1170 -0.0587  0.6555
  865TIP3    H126790   4.287   1.378   7.735 -0.9597  0.1732  0.5107
  865TIP3    H226791   4.341   1.483   7.640 -0.5071 -0.0312  0.5408
  866TIP3   OH226792   4.788   4.942   9.237  0.3872 -0.1987  0.4736
  866TIP3    H126793   4.838   4.866   9.265  0.1364  0.0489  1.6540
  866TIP3    H226794   4.698   4.910   9.230 -0.0580  0.3685  2.7983
  867TIP3   OH226795   3.638   2.668   7.386  0.1029  0.3250  0.3665
  867TIP3    H126796   3.645   2.573   7.399 -0.4239  0.2206 -0.0745
  867TIP3    H226797   3.728   2.697   7.370  0.3462 -0.0074  1.0947
  868TIP3   OH226798   3.180   4.649   9.381  0.2147  0.4806 -0.0605
  868TIP3    H126799   3.107   4.672   9.439 -1.0232 -1.5756 -0.6911
  868TIP3    H226800   3.161   4.694   9.299 -0.1334  0.2820 -0.0898
  869TIP3   OH226801   5.180   6.513   7.449 -0.0911 -0.0226 -0.2220
  869TIP3    H126802   5.139   6.492   7.532  0.0118 -0.3518 -0.2490
  869TIP3    H226803   5.240   6.440   7.433 -0.9860 -0.5908 -1.1638
  870TIP3   OH226804   4.741   3.303   9.022  0.1067  0.3443 -0.5023
  870TIP3    H126805   4.713   3.339   8.938 -2.3219 -0.0793  0.0671
  870TIP3    H226806   4.744   3.378   9.081 -0.0616  0.3454 -0.4968
  871TIP3   OH226807   5.828   4.469   8.017 -0.1744 -0.5360 -0.5250
  871TIP3    H126808   5.885   4.409   8.066 -1.1638 -2.0421 -1.1394
  871TIP3    H226809   5.787   4.523   8.084  1.7831  0.4279 -0.0583
  872TIP3   OH226810   3.223   0.508   8.925  1.1909  0.4860  0.5875
  872TIP3    H126811   3.143   0.498   8.874  1.9647  0.5346 -0.6696
  872TIP3    H226812   3.192   0.531   9.013 -0.1985 -0.6248  0.4263
  873TIP3   OH226813   2.585   4.128   8.862 -0.2066 -0.2842  0.5841
  873TIP3    H126814   2.571   4.092   8.949 -1.6338 -1.5436 -0.1104
  873TIP3    H226815   2.509   4.185   8.847  0.6744  0.9371  0.6321
  874TIP3   OH226816   6.787   1.307   6.775 -0.7793 -0.1233 -0.0625
  874TIP3    H126817   6.713   1.249   6.761 -0.0637 -1.0157 -0.2225
  874TIP3    H226818   6.777   1.338   6.865 -2.0403  0.8083 -0.4803
  875TIP3   OH226819   7.118   4.251   9.501  0.7727 -0.1741  0.0878
  875TIP3    H126820   7.123   4.182   9.567  1.1513 -0.2728 -0.0442
  875TIP3    H226821   7.183   4.315   9.528  1.3166 -0.4739 -0.4918
  876TIP3   OH226822   6.751   4.210   7.121 -0.1195 -0.1658 -0.2347
  876TIP3    H126823   6.701   4.288   7.099 -0.6253 -0.2358  0.6312
  876TIP3    H226824   6.842   4.240   7.124 -0.2383  0.2367 -0.5716
  877TIP3   OH226825   5.791   7.121   7.269 -0.0186  0.1190 -0.2271
  877TIP3    H126826   5.734   7.060   7.222 -0.5319  0.1694  0.3234
  877TIP3    H226827   5.850   7.155   7.202  0.4374 -1.1685 -0.5006
  878TIP3   OH226828   4.222   6.082   8.083  0.2339 -0.2053  0.0941
  878TIP3    H126829   4.211   6.006   8.025 -1.0681 -0.9751  1.2838
  878TIP3    H226830   4.287   6.053   8.147  0.9450  0.2998 -0.3759
  879TIP3   OH226831   5.772   6.974   8.252  0.0063  0.2952  0.2303
  879TIP3    H126832   5.696   6.936   8.208 -0.5883 -1.5739  2.6503
  879TIP3    H226833   5.791   7.054   8.203 -1.8123 -0.5858 -2.0847
  880TIP3   OH226834   6.532   1.217   7.945  0.6191  0.6411 -0.1908
  880TIP3    H126835   6.504   1.127   7.929 -1.8592  1.8035 -3.8985
  880TIP3    H226836   6.481   1.244   8.021  1.0500 -0.8971  0.6921
  881TIP3   OH226837   2.781   4.791   8.928 -0.2648 -0.2742  0.1131
  881TIP3    H126838   2.727   4.739   8.870 -0.1673 -0.7908  0.4761
  881TIP3    H226839   2.719   4.844   8.979 -0.3889 -0.3910  0.0817
  882TIP3   OH226840   4.500   5.926   9.013  0.5277  0.2511 -0.5107
  882TIP3    H126841   4.504   5.933   8.918 -2.0242 -2.8805 -0.9986
  882TIP3    H226842   4.558   5.853   9.035 -0.7305 -0.6011  0.0447
  883TIP3   OH226843   7.550   1.210   9.060 -0.0144 -0.3574  0.1280
  883TIP3    H126844   7.618   1.237   9.121 -0.3115  2.8971 -0.7860
  883TIP3    H226845   7.581   1.127   9.024  1.6787 -0.7500  2.3261
  884TIP3   OH226846   3.548   6.055   9.304  0.9223 -0.5688  0.0290
  884TIP3    H126847   3.611   6.038   9.374  0.4480  0.0459  0.6121
  884TIP3    H226848   3.532   6.149   9.308  1.2793 -0.4342 -1.2461
  885TIP3   OH226849   5.946   2.684   9.450  0.5952 -0.4800 -0.5759
  885TIP3    H126850   5.881   2.675   9.520  1.7819  0.2532  0.6557
  885TIP3    H226851   5.926   2.612   9.390 -0.7231 -0.8642  0.2746
  886TIP3   OH226852   0.771   0.525   7.147 -0.5575  0.4017  0.0068
  886TIP3    H126853   0.809   0.487   7.067 -2.1152  0.4528 -0.7965
  886TIP3    H226854   0.729   0.606   7.118 -2.0509 -0.1017  0.6531
  887TIP3   OH226855   2.388   6.331   7.335  0.1054 -0.1431  0.0330
  887TIP3    H126856   2.407   6.358   7.245  0.0559 -1.1571 -0.2883
  887TIP3    H226857   2.298   6.360   7.350  0.0606 -0.1055 -0.2935
  888TIP3   OH226858   6.374   7.345   8.585  0.1579 -0.3034  0.1464
  888TIP3    H126859   6.364   7.415   8.650 -1.1403 -0.2807 -0.0468
  888TIP3    H226860   6.294   7.350   8.532 -0.3303 -2.4123  0.6032
  889TIP3   OH226861   4.266   3.809   8.241 -1.0577 -0.2284  0.2397
  889TIP3    H126862   4.233   3.885   8.194  1.6074  0.0272 -1.4353
  889TIP3    H226863   4.321   3.845   8.310 -1.9528 -0.6571  1.2072
  890TIP3   OH226864   2.498   6.932   9.816  0.1617  0.4669 -0.0584
  890TIP3    H126865   2.449   6.936   9.734 -0.1515  0.8277  0.1447
  890TIP3    H226866   2.474   6.848   9.855  0.5039  0.1790 -0.4492
  891TIP3   OH226867   0.908   0.326   8.775 -0.4131  0.2661 -0.6264
  891TIP3    H126868   0.991   0.371   8.784  0.6338 -1.9684  3.2757
  891TIP3    H226869   0.928   0.247   8.725  0.0975 -0.6336  0.9230
  892TIP3   OH226870   0.110   0.310   7.337 -0.2234 -0.0774 -0.0813
  892TIP3    H126871   0.073   0.327   7.423 -0.8622 -1.6386 -0.0064
  892TIP3    H226872   0.161   0.230   7.349  2.6812  1.5952 -0.3542
  893TIP3   OH226873   2.388   3.772   7.981 -0.1434  0.3828 -0.7371
  893TIP3    H126874   2.374   3.731   8.066  0.9081  0.4240 -0.5327
  893TIP3    H226875   2.461   3.832   7.995 -0.1408  0.5942 -1.6027
  894TIP3   OH226876   0.384   2.877   9.174 -0.1627 -0.7024  0.5248
  894TIP3    H126877   0.427   2.953   9.134  1.9127 -2.5253 -0.9940
  894TIP3    H226878   0.291   2.897   9.171  0.2473  1.2880 -0.8847
  895TIP3   OH226879   0.358   1.667   8.907  0.0166  0.5193 -0.1566
  895TIP3    H126880   0.270   1.698   8.885 -0.5537 -0.3600  0.7916
  895TIP3    H226881   0.413   1.745   8.899 -0.4689  0.6902 -2.6449
  896TIP3   OH226882   3.678   4.461   8.193  0.2715  0.6171  0.2507
  896TIP3    H126883   3.614   4.392   8.208  1.3528 -0.2421  1.0142
  896TIP3    H226884   3.641   4.512   8.121 -1.3910  0.3076  0.8432
  897TIP3   OH226885   5.356   4.746   9.326 -0.0262  0.4212 -0.5296
  897TIP3    H126886   5.378   4.747   9.419  1.8313  2.4786 -0.8791
  897TIP3    H226887   5.405   4.672   9.290 -1.0291 -0.5955  0.1593
  898TIP3   OH226888   7.605   2.698   7.487  0.5558 -0.2163 -0.5896
  898TIP3    H126889   7.580   2.666   7.401 -1.5071  0.8756 -0.4440
  898TIP3    H226890   7.547   2.772   7.503  2.9176  1.5417  0.4644
  899TIP3   OH226891   7.517   3.197   8.772  0.0786 -0.1598 -0.7983
  899TIP3    H126892   7.432   3.180   8.732  0.5286  1.7486 -2.7513
  899TIP3    H226893   7.496   3.228   8.860 -0.9594 -3.8091  0.4310
  900TIP3   OH226894   1.032   5.096   8.391  0.1811 -0.1980  0.4202
  900TIP3    H126895   0.982   5.121   8.469 -1.5604 -0.8239 -0.4396
  900TIP3    H226896   1.043   5.178   8.343  0.5911  0.0568  0.9293
  901TIP3   OH226897   5.457   6.108   8.308 -0.1916 -0.0956  0.0144
  901TIP3    H126898   5.520   6.134   8.241 -0.1053  0.8703  0.4545
  901TIP3    H226899   5.397   6.182   8.315  0.0708  0.0261  1.3208
  902TIP3   OH226900   7.522   6.553   7.454 -0.1160  0.0820 -0.3348
  902TIP3    H126901   7.582   6.509   7.394  0.4088  1.5325 -0.9301
  902TIP3    H226902   7.552   6.529   7.541 -0.0612 -0.9845 -0.6350
  903TIP3   OH226903   6.997   1.999   7.213 -0.5285 -0.2777  0.0781
  903TIP3    H126904   6.979   2.046   7.294 -0.9612  0.0511 -0.2042
  903TIP3    H226905   7.088   2.020   7.193 -0.1658 -1.0187  0.9027
  904TIP3   OH226906   3.085   6.849   6.553 -0.0069  0.3863  0.6804
  904TIP3    H126907   3.015   6.821   6.611  0.1362 -0.0042  0.6650
  904TIP3    H226908   3.165   6.819   6.596  0.0932  0.0195  0.2449
  905TIP3   OH226909   4.155   5.900   7.375  1.0760  0.7221 -0.3864
  905TIP3    H126910   4.221   5.852   7.326 -0.5343 -0.6940 -1.2896
  905TIP3    H226911   4.107   5.950   7.309 -0.8450 -0.8705 -0.2765
  906TIP3   OH226912   6.241   4.565   9.572 -0.0906 -0.0549 -0.6815
  906TIP3    H126913   6.319   4.606   9.609  0.0780 -0.6806 -0.3355
  906TIP3    H226914   6.270   4.479   9.541 -0.4738  0.0154 -1.2636
  907TIP3   OH226915   3.321   5.250   7.402  0.3459 -0.1960  0.1000
  907TIP3    H126916   3.316   5.303   7.323  1.0722  0.2240  0.3316
  907TIP3    H226917   3.324   5.160   7.371  0.4494 -0.0382 -0.3429
  908TIP3   OH226918   5.557   5.217   8.873  0.1129 -0.5334 -0.2935
  908TIP3    H126919   5.582   5.159   8.945  0.5554  0.2315  0.1804
  908TIP3    H226920   5.506   5.286   8.915 -0.3487 -0.5349 -0.8466
  909TIP3   OH226921   4.572   3.614   8.413 -0.1220 -0.2514  0.2073
  909TIP3    H126922   4.664   3.630   8.389 -0.3276 -0.5653 -0.8708
  909TIP3    H226923   4.539   3.699   8.440  0.1477  0.1283 -0.6327
  910TIP3   OH226924   0.878   6.434   8.400  0.1851  0.3409 -0.3528
  910TIP3    H126925   0.828   6.406   8.324  0.6714  0.8929 -0.8876
  910TIP3    H226926   0.944   6.365   8.412  0.7122  0.7143 -1.0219
  911TIP3   OH226927   7.017   0.691   9.017  0.0832 -0.4593  0.1694
  911TIP3    H126928   7.004   0.604   8.980  1.0659 -1.1586  1.3966
  911TIP3    H226929   6.931   0.716   9.051 -0.2089 -0.9433 -0.2020
  912TIP3   OH226930   0.472   1.576   7.531  0.1127 -0.3893 -0.2194
  912TIP3    H126931   0.398   1.554   7.475 -0.7161 -0.5680  0.9038
  912TIP3    H226932   0.545   1.526   7.496 -0.5116 -0.9168 -0.7955
  913TIP3   OH226933   3.100   7.568   8.034  0.0771  0.8606 -0.6257
  913TIP3    H126934   3.055   7.524   8.106  2.8323 -0.2248  0.5525
  913TIP3    H226935   3.095   7.661   8.056 -1.5556  0.7829 -0.5604
  914TIP3   OH226936   1.644   1.472   7.271 -0.0399 -0.6493 -0.2937
  914TIP3    H126937   1.694   1.542   7.228 -0.0639  0.2006  0.9915
  914TIP3    H226938   1.622   1.411   7.201  0.1395  0.5440 -1.4254
  915TIP3   OH226939   1.927   6.276   7.596  0.3256 -0.5619 -0.1295
  915TIP3    H126940   1.984   6.293   7.671 -1.2235  0.4331  0.8693
  915TIP3    H226941   1.911   6.362   7.558 -1.6117 -0.6158  0.4669
  916TIP3   OH226942   4.393   7.169   9.238 -0.4917 -0.1469 -0.1157
  916TIP3    H126943   4.412   7.076   9.233 -0.5643 -0.3339  2.0704
  916TIP3    H226944   4.466   7.206   9.288 -2.3202  0.2487  2.4614
  917TIP3   OH226945   0.916   3.956   8.659  0.4172  0.0562 -0.1038
  917TIP3    H126946   0.976   4.003   8.717 -0.0840  0.2359  0.2727
  917TIP3    H226947   0.850   4.021   8.634  0.3426 -0.1566 -0.4609
  918TIP3   OH226948   0.014   3.717   8.445  0.9447  0.1761 -0.0074
  918TIP3    H126949   0.096   3.673   8.466  0.9663  0.7859  1.2946
  918TIP3    H226950   0.039   3.808   8.429  0.4414  0.5814  1.3592
  919TIP3   OH226951   0.781   3.023   8.684  0.4334 -0.2166  0.4506
  919TIP3    H126952   0.852   3.055   8.628  0.1025  1.1389  0.7665
  919TIP3    H226953   0.732   2.962   8.628 -0.1957  1.4866 -0.9369
  920TIP3   OH226954   3.319   6.110   8.974  0.2540  0.0516 -0.8073
  920TIP3    H126955   3.350   6.200   8.983 -2.4085  1.0982 -1.1629
  920TIP3    H226956   3.325   6.091   8.881 -0.6620  0.4752 -0.9623
  921TIP3   OH226957   6.623   2.161   8.317  0.3896  0.0779  0.0737
  921TIP3    H126958   6.537   2.125   8.297  0.1323 -0.2626  1.7094
  921TIP3    H226959   6.681   2.085   8.322  0.8846  0.3283 -1.3442
  922TIP3   OH226960   4.379   0.044   8.432 -0.4240 -0.2019  0.7491
  922TIP3    H126961   4.377   0.089   8.348 -1.5527 -0.2847  0.7098
  922TIP3    H226962   4.432  -0.035   8.417  0.0281  0.1816  0.3310
  923TIP3   OH226963   4.674   5.597   8.876 -0.0149  0.0615  0.2668
  923TIP3    H126964   4.679   5.655   8.800  0.6822  1.0858  1.0631
  923TIP3    H226965   4.627   5.519   8.845 -1.8569  1.4418 -0.5881
  924TIP3   OH226966   6.694   6.236   8.971  0.5387 -0.5490  0.2833
  924TIP3    H126967   6.682   6.141   8.972 -0.0265 -0.4851 -0.0400
  924TIP3    H226968   6.606   6.271   8.958  0.9741 -0.0249 -1.3874
  925TIP3   OH226969   3.278   0.675   8.061 -0.5008 -0.5366  0.0024
  925TIP3    H126970   3.269   0.739   7.990 -3.7499 -0.0479  0.6722
  925TIP3    H226971   3.289   0.729   8.140 -2.1948 -0.7533  0.4366
  926TIP3   OH226972   7.016   1.346   6.548  0.3424 -0.1032 -0.0034
  926TIP3    H126973   7.085   1.351   6.615  0.2812 -0.3342  0.0757
  926TIP3    H226974   7.060   1.313   6.470  0.8248  1.8884 -0.6299
  927TIP3   OH226975   5.089   6.014   9.286 -0.1077  0.3462  0.2697
  927TIP3    H126976   5.104   5.935   9.235 -1.5272  1.5613 -2.2339
  927TIP3    H226977   5.028   5.987   9.355 -2.0803 -0.4389 -1.6842
  928TIP3   OH226978   5.943   2.171   8.422  0.3465  0.3509 -0.0228
  928TIP3    H126979   5.915   2.253   8.462  1.5846 -0.1367  2.0392
  928TIP3    H226980   6.033   2.159   8.453 -0.3988 -2.6691  1.4120
  929TIP3   OH226981   1.286   2.477   8.734  0.4199 -1.1956 -0.3213
  929TIP3    H126982   1.364   2.450   8.685  0.5921  1.0165 -1.3945
  929TIP3    H226983   1.274   2.409   8.800  3.2638 -1.6010 -0.0961
  930TIP3   OH226984   4.478   0.673   8.005  0.1475 -0.2328 -0.1363
  930TIP3    H126985   4.563   0.629   8.001  0.3971  0.2177  0.2642
  930TIP3    H226986   4.454   0.687   7.914 -0.7923 -2.8444 -0.3850
  931TIP3   OH226987   3.514   2.731   7.935  0.2770 -0.2725  0.5256
  931TIP3    H126988   3.520   2.681   8.017  0.5278  0.1112  0.7472
  931TIP3    H226989   3.555   2.675   7.870  0.0256 -0.6078  0.6496
  932TIP3   OH226990   0.983   2.421   9.267  0.4636 -0.0226 -0.1489
  932TIP3    H126991   0.911   2.359   9.279  0.2709 -0.0526 -1.3404
  932TIP3    H226992   0.972   2.484   9.338 -0.2151 -0.5166  0.1979
  933TIP3   OH226993   1.723   1.465   8.889  0.0466  0.5397  0.3145
  933TIP3    H126994   1.708   1.524   8.963 -0.9286  0.4452  0.2082
  933TIP3    H226995   1.705   1.519   8.811  0.2785  0.4169  0.1744
  934TIP3   OH226996   6.489   1.463   7.278  1.0794  0.5919 -0.2613
  934TIP3    H126997   6.559   1.462   7.343  0.1281 -1.3820  0.8222
  934TIP3    H226998   6.511   1.391   7.218  0.2702  0.3062 -0.2241
  935TIP3   OH226999   1.201   0.962   8.256  0.1418 -0.1137 -0.5186
  935TIP3    H127000   1.193   1.047   8.213  0.7010  0.3664  0.2826
  935TIP3    H227001   1.123   0.956   8.311  2.8069  2.8356  4.3365
  936TIP3   OH227002   3.478   2.829   7.550  0.3239  0.3920 -0.0869
  936TIP3    H127003   3.538   2.804   7.480 -0.3869 -0.0393 -0.5585
  936TIP3    H227004   3.404   2.870   7.504  0.2929  0.9875  0.4873
  937TIP3   OH227005   1.006   1.896   9.458 -0.5181 -0.0333  0.2327
  937TIP3    H127006   0.975   1.807   9.475  0.9161 -0.5395  0.3164
  937TIP3    H227007   0.928   1.950   9.463 -0.9933 -0.8578  3.2291
  938TIP3   OH227008   3.704   4.235   9.220 -0.0151 -0.6605  0.6137
  938TIP3    H127009   3.738   4.187   9.295  2.1689 -0.1727  0.0318
  938TIP3    H227010   3.710   4.173   9.147 -3.8380 -1.7489  1.0575
  939TIP3   OH227011   5.412   3.679   9.611 -0.3159 -0.0882  0.0820
  939TIP3    H127012   5.411   3.774   9.597  0.4473 -0.1714 -0.6150
  939TIP3    H227013   5.321   3.652   9.598 -0.3673  0.4167 -0.6557
  940TIP3   OH227014   4.941   6.973   8.610  0.3191  0.0172  0.0436
  940TIP3    H127015   4.868   7.032   8.587 -1.3614 -1.8159  0.3571
  940TIP3    H227016   4.898   6.890   8.631  2.1980 -0.1946  3.8175
  941TIP3   OH227017   7.452   6.826   7.304 -0.0840 -0.7725  0.3790
  941TIP3    H127018   7.458   6.874   7.221  2.3282 -0.2245  0.7782
  941TIP3    H227019   7.467   6.735   7.279 -0.3136 -0.7408  0.1152
  942TIP3   OH227020   2.602   6.536   9.684 -0.1900  0.2083  0.2673
  942TIP3    H127021   2.572   6.476   9.752 -1.4632 -0.9309 -1.2187
  942TIP3    H227022   2.577   6.494   9.602  0.6233  1.8774 -0.8971
  943TIP3   OH227023   7.370   1.135   8.742 -0.0798  0.1621  0.3196
  943TIP3    H127024   7.440   1.121   8.806 -0.4999 -0.5968  0.6172
  943TIP3    H227025   7.292   1.100   8.783 -0.2584 -0.8525 -0.8282
  944TIP3   OH227026   3.578   2.330   7.307  0.3180 -0.2489  0.6981
  944TIP3    H127027   3.531   2.360   7.385 -0.1353 -0.7505  0.6304
  944TIP3    H227028   3.569   2.234   7.310 -0.8603 -0.2161 -0.6715
  945TIP3   OH227029   4.571   7.360   8.534  0.2038 -0.3015  0.3337
  945TIP3    H127030   4.601   7.411   8.608  0.6499 -0.2991  0.1515
  945TIP3    H227031   4.556   7.424   8.464  0.6038 -0.3949  0.1579
  946TIP3   OH227032   0.786   2.623   7.611  0.0195 -0.4203  0.5478
  946TIP3    H127033   0.738   2.541   7.624  1.7517 -1.7744 -0.9723
  946TIP3    H227034   0.739   2.666   7.539 -0.6792 -0.2089  1.1087
  947TIP3   OH227035   5.765   7.049   8.903 -0.2324 -0.2022 -0.2803
  947TIP3    H127036   5.749   7.018   8.992 -0.2001  0.9066  0.1262
  947TIP3    H227037   5.816   7.129   8.914  2.1003 -1.4355 -1.3993
  948TIP3   OH227038   2.255   4.712   6.875 -0.5398 -0.1441 -0.1050
  948TIP3    H127039   2.287   4.800   6.852  1.5962 -0.6771  0.6248
  948TIP3    H227040   2.312   4.652   6.827  1.5624 -1.1975  3.3608
  949TIP3   OH227041   0.610   3.301   7.852 -0.7385 -0.7413  0.2061
  949TIP3    H127042   0.622   3.340   7.938 -0.3325 -0.0857 -0.1393
  949TIP3    H227043   0.692   3.317   7.806 -1.4315  0.1387 -0.7765
  950TIP3   OH227044   3.677   3.726   9.104  0.0032 -0.1815  0.1215
  950TIP3    H127045   3.772   3.709   9.105  0.1217  0.4586  0.3773
  950TIP3    H227046   3.637   3.639   9.104  0.5924 -0.4626 -0.7296
  951TIP3   OH227047   3.272   3.541   9.484  0.2337  0.0624 -0.0981
  951TIP3    H127048   3.293   3.485   9.558 -0.0394 -1.0165 -0.8095
  951TIP3    H227049   3.271   3.482   9.409  0.2275  1.0774 -0.9229
  952TIP3   OH227050   4.638   0.213   6.309  0.0862  0.1777  0.0696
  952TIP3    H127051   4.632   0.151   6.236  1.2508  0.2164 -0.0833
  952TIP3    H227052   4.550   0.250   6.317 -0.6387 -1.5074  0.1903
  953TIP3   OH227053   6.578   2.484   8.645 -0.2199  0.2222  0.1581
  953TIP3    H127054   6.610   2.464   8.557 -0.1607 -2.2576  0.6648
  953TIP3    H227055   6.484   2.497   8.634 -0.4967 -1.7116 -0.1100
  954TIP3   OH227056   2.699   3.229   7.973  0.2539 -0.3801 -0.1938
  954TIP3    H127057   2.625   3.252   8.028 -0.8433  0.3957 -1.8973
  954TIP3    H227058   2.767   3.199   8.034 -1.5311 -1.4034  1.4029
  955TIP3   OH227059   6.690   2.632   8.916  0.4928  0.0932 -0.0597
  955TIP3    H127060   6.693   2.536   8.911  1.5028  0.1306 -0.4961
  955TIP3    H227061   6.597   2.653   8.910  0.3073 -0.8329 -0.8450
  956TIP3   OH227062   5.041   5.541   8.868  0.0612  0.3153  0.3290
  956TIP3    H127063   4.970   5.552   8.805  1.8568  0.1189 -1.9046
  956TIP3    H227064   5.008   5.478   8.931 -1.3676 -0.6906 -1.3264
  957TIP3   OH227065   4.556   1.226   7.451  0.0472 -0.0717  0.2578
  957TIP3    H127066   4.472   1.180   7.445 -0.1000  0.1998  0.2559
  957TIP3    H227067   4.535   1.318   7.438  0.5862 -0.1774 -1.7152
  958TIP3   OH227068   2.591   3.965   7.954  0.6098  0.0824 -0.7608
  958TIP3    H127069   2.679   3.926   7.952  1.3972  1.7494 -1.1171
  958TIP3    H227070   2.588   4.019   7.874 -0.5808  0.3803 -0.5229
  959TIP3   OH227071   7.407   0.473   9.066  0.2287 -0.1175 -0.1244
  959TIP3    H127072   7.417   0.386   9.106  1.6216  0.7271  1.5004
  959TIP3    H227073   7.467   0.472   8.992  0.7825 -0.3212  0.3148
  960TIP3   OH227074   7.416   2.477   7.617 -0.3640 -0.2926 -0.5754
  960TIP3    H127075   7.498   2.526   7.614  0.6139 -1.5150  2.3121
  960TIP3    H227076   7.444   2.385   7.613 -1.6784 -0.7080 -0.5798
  961TIP3   OH227077   0.224   3.126   7.321  0.3774 -0.4354 -0.4474
  961TIP3    H127078   0.245   3.168   7.238 -0.0022  2.2733  0.7301
  961TIP3    H227079   0.133   3.149   7.337  0.7051 -0.1143  1.1211
  962TIP3   OH227080   1.195   5.473   7.903 -0.5287 -0.1915  0.1981
  962TIP3    H127081   1.254   5.497   7.832 -1.7760  0.1456 -0.7748
  962TIP3    H227082   1.252   5.452   7.977  0.7715  0.5052 -0.5793
  963TIP3   OH227083   6.816   5.740   7.426 -0.2703 -0.5468  0.1586
  963TIP3    H127084   6.788   5.801   7.494 -1.0737  1.2268 -1.6598
  963TIP3    H227085   6.744   5.677   7.420 -1.2547  0.5903 -0.5111
  964TIP3   OH227086   5.716   4.870   8.685  0.1077  0.3897 -0.2027
  964TIP3    H127087   5.634   4.887   8.730  0.4688 -0.1887  0.7142
  964TIP3    H227088   5.701   4.789   8.637  0.2993 -0.0231  0.4158
  965TIP3   OH227089   4.626   1.418   8.566  0.4384  0.2848  0.1044
  965TIP3    H127090   4.547   1.472   8.568  1.6402  2.1034  0.8782
  965TIP3    H227091   4.628   1.382   8.477  0.2016  2.5102 -0.8638
  966TIP3   OH227092   1.253   7.100   9.218 -0.1704 -0.5025  0.3281
  966TIP3    H127093   1.337   7.142   9.203  0.4865 -1.8280  0.1167
  966TIP3    H227094   1.217   7.086   9.130  0.7152 -2.4627  0.2238
  967TIP3   OH227095   2.001   2.426   7.809  0.1767 -0.4474 -0.1131
  967TIP3    H127096   1.979   2.471   7.727  1.0431  0.5200  0.1496
  967TIP3    H227097   2.077   2.474   7.842  0.8542 -1.8430  0.4399
  968TIP3   OH227098   2.381   3.615   9.121  0.1226  0.1746 -0.1159
  968TIP3    H127099   2.412   3.527   9.145  0.6103  0.1347 -0.8532
  968TIP3    H227100   2.431   3.674   9.178  0.7293  0.0436 -0.5060
  969TIP3   OH227101   2.609   4.412   7.958  0.2877 -0.0971 -0.3644
  969TIP3    H127102   2.539   4.458   7.911  1.2298  0.7718 -0.9687
  969TIP3    H227103   2.627   4.335   7.905 -0.4104 -0.4805 -0.0488
  970TIP3   OH227104   1.466   7.491   9.292  0.2584  0.1614 -0.1961
  970TIP3    H127105   1.424   7.574   9.316  0.2082  0.2798 -0.6800
  970TIP3    H227106   1.458   7.437   9.370  0.2860  0.6105  0.1236
  971TIP3   OH227107   0.802   3.448   8.485 -0.2069 -0.2119  0.4787
  971TIP3    H127108   0.711   3.428   8.507 -0.1288  0.7596  1.7829
  971TIP3    H227109   0.820   3.532   8.528  0.5985  0.8095 -1.6981
  972TIP3   OH227110   3.613   3.282   8.022 -0.1609  0.0850  0.1304
  972TIP3    H127111   3.542   3.249   8.078  0.3550 -0.6339  0.3730
  972TIP3    H227112   3.570   3.300   7.938 -0.2882 -2.2876 -0.3895
  973TIP3   OH227113   1.719   0.828   9.313 -0.4131 -0.4182 -0.7722
  973TIP3    H127114   1.645   0.882   9.340  1.0335  1.4486 -0.3022
  973TIP3    H227115   1.740   0.856   9.224 -2.2359 -3.2748 -2.2550
  974TIP3   OH227116   5.690   2.095   8.617 -0.0764  0.1750 -0.0334
  974TIP3    H127117   5.650   2.182   8.604 -2.4311 -0.8740 -0.3949
  974TIP3    H227118   5.632   2.052   8.680  0.0166 -1.7399 -1.1915
  975TIP3   OH227119   6.115   5.905   7.521  0.6144  0.4557  0.7560
  975TIP3    H127120   6.061   5.829   7.499 -1.2232  1.8188  0.4232
  975TIP3    H227121   6.168   5.920   7.442  0.7036 -0.2018  0.6782
  976TIP3   OH227122   1.079   0.186   9.078  0.2642 -0.1385  0.4276
  976TIP3    H127123   1.169   0.160   9.061  0.3672 -0.0770  0.8629
  976TIP3    H227124   1.080   0.282   9.069 -0.2259 -0.2682 -1.6981
  977TIP3   OH227125   4.678   5.227   8.653 -0.1516 -0.5062  0.3218
  977TIP3    H127126   4.603   5.167   8.649 -0.7540  0.3005 -1.2636
  977TIP3    H227127   4.746   5.184   8.601  0.9067 -1.7028  2.5513
  978TIP3   OH227128   4.177   5.377   9.293  0.1940 -0.2261  0.0195
  978TIP3    H127129   4.217   5.292   9.309 -2.3721 -1.2429  1.8016
  978TIP3    H227130   4.169   5.416   9.380 -2.9699 -0.3621 -0.0751
  979TIP3   OH227131   7.430   0.464   7.190  0.0639 -0.1064  0.1103
  979TIP3    H127132   7.484   0.471   7.112 -0.6345 -0.6910 -0.4369
  979TIP3    H227133   7.343   0.491   7.162 -0.0438  0.3682  0.8648
  980TIP3   OH227134   4.379   3.932   7.615 -0.1696  0.2430  0.6305
  980TIP3    H127135   4.392   3.900   7.704  0.6278 -1.3615 -0.0363
  980TIP3    H227136   4.447   3.999   7.604 -0.4061  0.6041  1.2750
  981TIP3   OH227137   5.536   6.491   8.340 -0.2676  0.1930 -0.6890
  981TIP3    H127138   5.459   6.526   8.384 -0.6468 -0.9139 -0.4322
  981TIP3    H227139   5.512   6.401   8.319  1.2095 -0.3934  0.0226
  982TIP3   OH227140   4.805   1.423   8.774  0.3292  0.0971  0.2965
  982TIP3    H127141   4.873   1.482   8.742  1.8078 -0.3788  2.3186
  982TIP3    H227142   4.738   1.423   8.705  2.0719  1.0724 -1.4942
  983TIP3   OH227143   0.510   4.829   8.059 -0.4058 -0.2342  0.1942
  983TIP3    H127144   0.597   4.856   8.031  0.3562 -1.2325  1.4839
  983TIP3    H227145   0.474   4.906   8.104 -1.1302  0.9341 -2.2155
  984TIP3   OH227146   2.559   6.939   8.638 -0.3854 -0.8972  0.5219
  984TIP3    H127147   2.630   6.959   8.576 -0.3550 -0.4482  0.7036
  984TIP3    H227148   2.604   6.899   8.713 -0.5538 -2.7381 -0.3027
  985TIP3   OH227149   2.654   7.077   8.044  0.3617 -0.4933 -0.1792
  985TIP3    H127150   2.741   7.057   8.079 -0.5639  0.1026  2.6928
  985TIP3    H227151   2.594   7.053   8.114 -1.5778  2.1349 -0.7868
  986TIP3   OH227152   3.081   4.902   6.728 -0.6945 -0.6722 -0.1159
  986TIP3    H127153   3.087   4.881   6.635 -0.9107  0.0156 -0.2965
  986TIP3    H227154   3.110   4.994   6.734  1.9128 -1.4648  0.8579
  987TIP3   OH227155   3.774   5.334   8.393  0.3135 -0.1945 -0.4340
  987TIP3    H127156   3.838   5.286   8.445 -0.0433 -2.0865 -1.6386
  987TIP3    H227157   3.784   5.299   8.304  0.0285  1.9994 -1.3939
  988TIP3   OH227158   5.088   6.220   8.101  0.6227 -0.0515  0.2081
  988TIP3    H127159   5.073   6.166   8.179 -1.4956 -1.1579 -0.8707
  988TIP3    H227160   5.082   6.310   8.132 -1.6145 -0.4718  1.1425
  989TIP3   OH227161   3.037   0.504   7.753 -0.2562  0.0481 -0.2265
  989TIP3    H127162   3.131   0.522   7.756 -0.1523  0.1388 -2.4858
  989TIP3    H227163   3.025   0.457   7.670 -1.7677 -2.7399  1.4316
  990TIP3   OH227164   3.786   2.410   8.015  0.6376 -0.2561  0.4362
  990TIP3    H127165   3.836   2.480   8.057  0.7552 -0.2506  0.2884
  990TIP3    H227166   3.852   2.361   7.965  0.5204 -0.3405  0.3647
  991TIP3   OH227167   4.015   4.337   9.028  0.1205 -0.5006 -0.1179
  991TIP3    H127168   4.008   4.260   9.085  0.0286 -0.9388 -0.7033
  991TIP3    H227169   4.106   4.364   9.036  0.0162 -0.3216  0.5291
  992TIP3   OH227170   1.516   6.113   8.407  0.1943 -0.1727  0.7484
  992TIP3    H127171   1.558   6.194   8.376  2.4986 -1.1238  1.1669
  992TIP3    H227172   1.422   6.133   8.407  0.6026  2.0875 -0.2990
  993TIP3   OH227173   2.013   1.785   7.019  0.0622 -0.2080  0.2076
  993TIP3    H127174   2.000   1.879   7.025  0.6244 -0.0640 -0.6816
  993TIP3    H227175   2.088   1.767   7.075  0.1719 -0.0788  0.1011
  994TIP3   OH227176   1.043   5.377   9.563 -0.7490  0.1018  0.4626
  994TIP3    H127177   1.023   5.418   9.479 -1.4047 -0.1080  0.5079
  994TIP3    H227178   0.997   5.431   9.627 -1.5002 -0.6024  0.5360
  995TIP3   OH227179   6.746   1.569   7.931 -1.0764 -0.1728 -0.4016
  995TIP3    H127180   6.827   1.619   7.936  0.3992 -2.4889  0.5478
  995TIP3    H227181   6.713   1.568   8.021 -2.7135  1.4498 -0.9056
  996TIP3   OH227182   2.665   0.608   8.185  0.4160  0.0230  0.5685
  996TIP3    H127183   2.703   0.525   8.156 -1.5124 -1.3921  1.8884
  996TIP3    H227184   2.635   0.650   8.104 -0.6842 -1.6875  0.0384
  997TIP3   OH227185   6.591   3.481   7.440  0.1804  0.6155  0.4157
  997TIP3    H127186   6.667   3.498   7.385  1.1595 -0.4223  1.3890
  997TIP3    H227187   6.515   3.497   7.383  1.1400 -0.8720 -1.3729
  998TIP3   OH227188   1.189   3.413   7.680 -0.6483  0.3765  0.3733
  998TIP3    H127189   1.194   3.341   7.617  0.6129  0.8736 -0.1182
  998TIP3    H227190   1.257   3.393   7.744 -0.7927  0.7513  0.6488
  999TIP3   OH227191   0.622   5.497   8.547 -0.1530 -0.1084  0.1864
  999TIP3    H127192   0.527   5.493   8.535  0.0567  2.1042 -3.7073
  999TIP3    H227193   0.655   5.418   8.505 -0.1609 -2.1858  3.6462
 1000TIP3   OH227194   6.876   3.386   7.978 -0.3233 -0.0758 -0.0591
 1000TIP3    H127195   6.783   3.405   7.963 -0.2333  0.3616 -0.0975
 1000TIP3    H227196   6.892   3.413   8.068 -0.4363 -0.9900  0.2406
 1001TIP3   OH227197   1.208   1.118   7.969 -0.0323 -0.1868 -0.6512
 1001TIP3    H127198   1.240   1.043   7.918 -0.7927 -0.4181 -0.8013
 1001TIP3    H227199   1.285   1.150   8.016  0.2690 -1.1636 -0.4576
 1002TIP3   OH227200   6.143   0.703   9.215 -0.2075  0.0531  0.3758
 1002TIP3    H127201   6.079   0.636   9.190 -2.0139  1.5463  0.8620
 1002TIP3    H227202   6.224   0.654   9.229 -1.4577 -2.0271  0.6928
 1003TIP3   OH227203   4.206   5.579   7.228 -0.7152 -0.2016 -0.2465
 1003TIP3    H127204   4.265   5.655   7.230 -0.4843 -0.3940  0.7588
 1003TIP3    H227205   4.257   5.509   7.188 -0.3175 -0.3176  0.4576
 1004TIP3   OH227206   3.069   1.526   8.532  0.2228  0.1037 -0.3613
 1004TIP3    H127207   3.017   1.528   8.453  0.7515 -1.3301 -0.7729
 1004TIP3    H227208   3.144   1.470   8.511  0.7845  0.3287  0.9010
 1005TIP3   OH227209   1.214   7.485   9.079  0.1856  0.3329  0.3517
 1005TIP3    H127210   1.182   7.556   9.134 -0.4883  1.0851 -0.9523
 1005TIP3    H227211   1.144   7.420   9.079 -0.0390  0.5719 -0.0268
 1006TIP3   OH227212   7.298   0.357   8.300  0.1081  0.2301  0.1697
 1006TIP3    H127213   7.385   0.319   8.301  0.1586  0.3044 -0.5564
 1006TIP3    H227214   7.277   0.373   8.392  0.5043 -0.5808  0.4036
 1007TIP3   OH227215   0.351   0.101   8.910 -0.1916 -0.0236 -0.0908
 1007TIP3    H127216   0.269   0.147   8.926 -0.3091  0.6690 -2.3427
 1007TIP3    H227217   0.338   0.013   8.944 -0.9178  0.8077  1.9003
 1008TIP3   OH227218   5.257   5.761   9.380  0.3175 -0.4633 -1.2470
 1008TIP3    H127219   5.168   5.746   9.351 -0.5812  0.2037  0.9165
 1008TIP3    H227220   5.281   5.681   9.428  0.2919 -0.0724 -0.5604
 1009TIP3   OH227221   3.117   4.987   8.300  0.3819  0.2027  0.4025
 1009TIP3    H127222   3.078   4.900   8.300  0.5306  0.1211  1.3605
 1009TIP3    H227223   3.130   5.007   8.393  0.8580  1.0161  0.1694
 1010TIP3   OH227224   0.284   1.025   7.078 -0.1438  0.4359 -0.0405
 1010TIP3    H127225   0.246   1.039   7.164 -0.5368  0.4652 -0.2182
 1010TIP3    H227226   0.373   0.992   7.096 -0.2504  0.3719  0.3720
 1011TIP3   OH227227   7.018   2.896   9.251  0.4079  0.3017  0.1030
 1011TIP3    H127228   7.044   2.823   9.194 -0.4394 -2.3087  2.7766
 1011TIP3    H227229   7.099   2.922   9.295  0.7746  1.2818 -1.0969
 1012TIP3   OH227230   0.913   0.967   8.404  0.0500 -0.0420  1.2238
 1012TIP3    H127231   0.830   0.978   8.450 -1.2846  2.2120 -1.4778
 1012TIP3    H227232   0.889   0.940   8.316  2.1386  0.8188  0.3225
 1013TIP3   OH227233   1.540   3.168   8.084  0.0774  0.0182 -0.0321
 1013TIP3    H127234   1.612   3.160   8.146  0.1938 -2.1414 -0.3692
 1013TIP3    H227235   1.582   3.176   7.998 -0.0680 -0.0106 -0.1082
 1014TIP3   OH227236   4.247   1.024   6.630 -0.7568  0.5401  0.2754
 1014TIP3    H127237   4.171   0.965   6.634 -0.9483  0.8022  0.6189
 1014TIP3    H227238   4.232   1.076   6.551  0.4564 -1.2438 -1.1969
 1015TIP3   OH227239   1.751   3.761   8.396 -0.4165 -0.0750  0.1437
 1015TIP3    H127240   1.760   3.820   8.322 -0.6089  1.6382  1.4217
 1015TIP3    H227241   1.832   3.711   8.397  0.6887  1.6382  0.2305
 1016TIP3   OH227242   4.354   0.467   8.586 -0.4021  0.1345 -0.0314
 1016TIP3    H127243   4.344   0.486   8.679 -0.3511 -0.6387  0.1402
 1016TIP3    H227244   4.381   0.550   8.547  1.8171 -0.0354  0.9869
 1017TIP3   OH227245   7.534   3.739   7.403 -0.2204 -0.2387 -0.2976
 1017TIP3    H127246   7.473   3.793   7.453 -0.4062 -0.8754  0.1627
 1017TIP3    H227247   7.479   3.693   7.339 -0.1721 -0.5064 -0.1480
 1018TIP3   OH227248   0.947   1.130   7.888 -0.3341  0.4197 -0.3522
 1018TIP3    H127249   0.916   1.090   7.807  0.0041  0.4436 -0.4977
 1018TIP3    H227250   1.030   1.085   7.906  0.1798  1.2125 -0.6535
 1019TIP3   OH227251   0.338   3.954   9.527  0.1300  0.0254  0.3499
 1019TIP3    H127252   0.328   4.008   9.449  0.1738  1.3992  1.2569
 1019TIP3    H227253   0.433   3.949   9.541  0.1014  0.3034  0.6554
 1020TIP3   OH227254   0.637   2.550   7.359  0.0786  0.0431 -0.2779
 1020TIP3    H127255   0.635   2.513   7.271  2.9627 -0.5019 -0.2281
 1020TIP3    H227256   0.693   2.491   7.408  0.1822  1.4266  1.3653
 1021TIP3   OH227257   0.771   3.000   6.656  0.0828 -0.7542  0.2105
 1021TIP3    H127258   0.713   3.072   6.632 -0.7607 -1.1899  0.9041
 1021TIP3    H227259   0.833   3.039   6.717  0.3798 -0.3479 -0.3347
 1022TIP3   OH227260   5.660   6.654   8.003  0.4008  0.5951 -0.8896
 1022TIP3    H127261   5.734   6.667   7.944 -0.6608 -0.8884 -2.6744
 1022TIP3    H227262   5.605   6.731   7.991  0.0695  0.1867 -2.0599
 1023TIP3   OH227263   3.426   1.077   8.564 -0.1688 -0.0983  0.3051
 1023TIP3    H127264   3.493   1.091   8.631  0.6737  0.9149 -0.7151
 1023TIP3    H227265   3.473   1.086   8.481 -1.5544  0.6548 -0.4297
 1024TIP3   OH227266   2.659   4.611   7.125  0.0428  0.2364 -0.1794
 1024TIP3    H127267   2.665   4.660   7.043 -0.3312  0.9026  0.1835
 1024TIP3    H227268   2.691   4.671   7.192 -0.9315  0.1922  0.3500
 1025TIP3   OH227269   6.412   6.873   8.784 -0.2656 -0.4181  0.4984
 1025TIP3    H127270   6.321   6.843   8.794  0.0010 -1.7226 -0.6107
 1025TIP3    H227271   6.459   6.828   8.854 -0.4106 -0.0103  0.8618
 1026TIP3   OH227272   0.024   0.642   6.406  0.0972  0.1526  0.0639
 1026TIP3    H127273  -0.046   0.630   6.343 -0.3544 -1.6899  0.8594
 1026TIP3    H227274   0.064   0.555   6.416  1.7696  0.9137  0.4677
 1027TIP3   OH227275   1.270   0.839   9.025 -0.2653 -0.1566  0.4524
 1027TIP3    H127276   1.182   0.876   9.033 -0.2534  0.1191 -0.5434
 1027TIP3    H227277   1.285   0.793   9.108 -1.0603  0.4007  0.9098
 1028TIP3   OH227278   7.206   1.241   9.419  0.1255 -0.1418 -0.0113
 1028TIP3    H127279   7.298   1.248   9.396  0.9476 -0.3198  2.7985
 1028TIP3    H227280   7.166   1.192   9.347  2.2265 -0.1707 -1.2189
 1029TIP3   OH227281   6.771   7.292   7.846  0.5147 -0.0112 -0.1664
 1029TIP3    H127282   6.696   7.351   7.835  0.3786 -0.2675 -0.6604
 1029TIP3    H227283   6.740   7.224   7.905  0.1528 -0.4565 -0.8625
 1030TIP3   OH227284   6.259   1.240   8.430 -0.6508  0.3958 -0.2619
 1030TIP3    H127285   6.352   1.219   8.424 -0.7145 -0.1868  0.6108
 1030TIP3    H227286   6.247   1.271   8.520 -1.5474 -0.9640  0.1270
 1031TIP3   OH227287   2.931   4.439   7.305 -0.2472  0.0920  0.2371
 1031TIP3    H127288   2.853   4.388   7.327  1.0906 -2.6211 -0.8190
 1031TIP3    H227289   2.999   4.373   7.289  1.6138  2.2334 -1.3755
 1032TIP3   OH227290   5.021   3.888   7.998  0.0460  0.2968  0.0135
 1032TIP3    H127291   5.028   3.978   7.965  2.3128  0.0717 -0.3004
 1032TIP3    H227292   4.927   3.871   8.002 -0.4677  1.2434 -3.9366
 1033TIP3   OH227293   0.214   1.027   7.335 -0.7728  0.1792  0.2365
 1033TIP3    H127294   0.129   0.989   7.357 -0.0459 -0.2229  2.6820
 1033TIP3    H227295   0.246   1.064   7.418  1.9419 -0.7673 -0.2760
 1034TIP3   OH227296   0.262   4.568   8.811 -0.4998 -0.2973  0.1031
 1034TIP3    H127297   0.171   4.579   8.782 -0.0159  1.3839 -0.8968
 1034TIP3    H227298   0.308   4.540   8.733  0.4098  2.0440 -0.2608
 1035TIP3   OH227299   5.913   0.775   8.676 -0.9057 -0.8527 -0.0358
 1035TIP3    H127300   5.832   0.819   8.651 -0.6205  0.8134  1.7160
 1035TIP3    H227301   5.908   0.769   8.772  0.4556 -1.8880 -0.0076
 1036TIP3   OH227302   6.811   0.074   7.925 -0.0322  0.4437  0.5803
 1036TIP3    H127303   6.761   0.015   7.981  1.0210 -0.7312  0.3157
 1036TIP3    H227304   6.902   0.063   7.953  0.6767 -0.9809 -2.0076
 1037TIP3   OH227305   7.387   4.893   7.027 -0.0517  0.5883 -0.0406
 1037TIP3    H127306   7.467   4.909   7.077  0.7036  0.3853 -1.1492
 1037TIP3    H227307   7.343   4.978   7.026 -0.4591  0.4333  1.5527
 1038TIP3   OH227308   6.584   4.712   7.364 -0.0345  0.0055  0.6175
 1038TIP3    H127309   6.569   4.766   7.442  1.1293  0.2031  0.7220
 1038TIP3    H227310   6.672   4.737   7.334 -0.5024  0.0023 -0.8222
 1039TIP3   OH227311   6.101   5.635   8.279  0.0843 -0.1668  0.0548
 1039TIP3    H127312   6.104   5.679   8.194  1.3965 -0.1984  0.0576
 1039TIP3    H227313   6.047   5.691   8.333 -0.2167  0.2037 -0.6170
 1040TIP3   OH227314   6.182   1.866   7.312 -0.4508 -0.2725  0.4093
 1040TIP3    H127315   6.277   1.854   7.308 -0.3710  0.4550 -0.1675
 1040TIP3    H227316   6.165   1.895   7.402 -0.1547 -0.5904  0.5691
 1041TIP3   OH227317   6.042   2.072   8.059  0.5833 -0.3648  0.1629
 1041TIP3    H127318   6.001   2.075   7.973 -1.2293 -0.5824  0.9823
 1041TIP3    H227319   6.039   1.980   8.084  1.5771 -0.3839  0.2645
 1042TIP3   OH227320   2.743   0.986   8.098 -0.0155 -0.0527  0.5313
 1042TIP3    H127321   2.665   1.019   8.053 -0.0010 -1.9591 -1.0090
 1042TIP3    H227322   2.767   1.057   8.158 -1.7945  1.3751 -0.3220
 1043TIP3   OH227323   3.844   0.777   9.218  0.5614  0.4522  0.1729
 1043TIP3    H127324   3.875   0.687   9.229  2.9600  1.3234  1.2471
 1043TIP3    H227325   3.749   0.771   9.229  0.6678 -1.9205  0.3235
 1044TIP3   OH227326   1.766   0.654   8.274 -0.2210 -0.1133 -0.3224
 1044TIP3    H127327   1.801   0.566   8.292  0.9787  0.6276  1.2046
 1044TIP3    H227328   1.794   0.706   8.349 -2.3849  1.1960 -0.3557
 1045TIP3   OH227329   5.768   6.415   9.307  0.2669 -0.9129  0.1435
 1045TIP3    H127330   5.716   6.364   9.246  1.9635 -1.3792 -1.0070
 1045TIP3    H227331   5.834   6.458   9.252  0.6189  0.2699  1.4246
 1046TIP3   OH227332   3.764   4.970   9.458  0.3831 -0.1133 -0.0534
 1046TIP3    H127333   3.760   4.881   9.423  0.4409 -0.1197 -0.0432
 1046TIP3    H227334   3.847   4.973   9.507  0.7714  0.1956 -0.7221
 1047TIP3   OH227335   6.120   7.278   7.190  0.1664 -0.6558  0.1222
 1047TIP3    H127336   6.116   7.322   7.105 -1.0595  0.5794  0.7856
 1047TIP3    H227337   6.202   7.229   7.187  0.2200 -0.5420 -1.7185
 1048TIP3   OH227338   1.550   0.133   8.716 -0.0147 -0.1629  0.2826
 1048TIP3    H127339   1.610   0.112   8.644 -0.6318  1.1786 -0.6589
 1048TIP3    H227340   1.504   0.051   8.734 -0.8471 -0.2271 -1.8199
 1049TIP3   OH227341   3.333   6.951   8.334 -0.1596  0.4240 -0.4286
 1049TIP3    H127342   3.277   6.899   8.391 -0.5432 -1.1708 -2.1519
 1049TIP3    H227343   3.296   7.039   8.337  0.2688  0.6008  2.2732
 1050TIP3   OH227344   7.305   1.948   8.622  0.1437 -0.3503 -0.3564
 1050TIP3    H127345   7.312   1.972   8.714  2.4845  1.2237 -0.8499
 1050TIP3    H227346   7.211   1.946   8.604 -0.3248  1.5316  1.5246
 1051TIP3   OH227347   7.588   6.335   7.064  0.2094  0.2104  0.6589
 1051TIP3    H127348   7.541   6.266   7.111 -0.5406 -0.1231 -0.5281
 1051TIP3    H227349   7.641   6.378   7.130 -1.5786  0.4384  1.9987
 1052TIP3   OH227350   4.210   7.268   9.067 -0.1784 -0.2160  0.3013
 1052TIP3    H127351   4.281   7.243   9.127 -0.1000  1.1326  0.8077
 1052TIP3    H227352   4.251   7.327   9.004 -0.3048 -1.4885 -1.0274
 1053TIP3   OH227353   3.449   0.508   8.615  0.5739 -0.0119  0.4499
 1053TIP3    H127354   3.543   0.523   8.601  0.8279 -0.2373  1.7326
 1053TIP3    H227355   3.445   0.466   8.701 -0.7276  0.1771  0.4926
 1054TIP3   OH227356   1.500   1.768   8.453 -0.2839  0.7884 -0.1941
 1054TIP3    H127357   1.530   1.857   8.471  0.2870  0.2636  1.7247
 1054TIP3    H227358   1.457   1.741   8.534  1.9145 -1.6195  0.2713
 1055TIP3   OH227359   4.102   2.473   7.997  0.3594 -0.0018 -0.0817
 1055TIP3    H127360   4.131   2.482   8.087  0.7906 -0.5633 -0.1577
 1055TIP3    H227361   4.157   2.535   7.948 -1.3943  1.9686  0.3256
 1056TIP3   OH227362   7.251   0.135   6.981  0.2004  0.5627  0.1680
 1056TIP3    H127363   7.284   0.056   6.938  1.4040  0.8068  0.6162
 1056TIP3    H227364   7.225   0.106   7.068  0.2364  0.5824  0.1852
 1057TIP3   OH227365   0.881   7.392   8.661 -0.1928  0.5086 -0.5474
 1057TIP3    H127366   0.865   7.447   8.584 -1.6712  1.3006  0.2916
 1057TIP3    H227367   0.922   7.451   8.724  1.7241 -0.3202 -0.9363
 1058TIP3   OH227368   2.961   6.922   8.799 -0.3255  0.3749  0.3247
 1058TIP3    H127369   3.004   6.971   8.868  0.8272 -0.4955  0.2552
 1058TIP3    H227370   2.995   6.833   8.808 -3.2159 -0.7428  1.1914
 1059TIP3   OH227371   2.727   3.333   7.701 -0.2197  0.7364 -0.5401
 1059TIP3    H127372   2.686   3.419   7.702 -2.9492 -0.4167 -1.3878
 1059TIP3    H227373   2.725   3.305   7.793 -1.0872  0.8568 -0.5109
 1060TIP3   OH227374   1.264   7.460   7.658  0.1782  0.2200 -0.1040
 1060TIP3    H127375   1.319   7.467   7.580  2.0976 -0.9514  1.0883
 1060TIP3    H227376   1.316   7.499   7.728 -1.3368  0.8634  0.7162
 1061TIP3   OH227377   0.826   3.705   7.391  0.2797 -0.2956 -0.3700
 1061TIP3    H127378   0.858   3.773   7.450  1.4247 -0.3575 -0.8867
 1061TIP3    H227379   0.746   3.673   7.432  0.3669  0.5421  0.4849
 1062TIP3   OH227380   5.490   0.113   9.634  0.2377 -0.5753 -0.1343
 1062TIP3    H127381   5.586   0.116   9.635  0.3077 -2.1730  0.7547
 1062TIP3    H227382   5.464   0.161   9.712  0.4002 -1.5021  0.5100
 1063TIP3   OH227383   6.703   2.370   8.870  0.0591  0.4348 -0.7219
 1063TIP3    H127384   6.674   2.408   8.787 -1.4819 -0.4468 -0.6279
 1063TIP3    H227385   6.641   2.299   8.886  0.8505  0.0473  0.7710
 1064TIP3   OH227386   6.632   7.649   7.356 -0.1944  0.3588  0.2978
 1064TIP3    H127387   6.570   7.660   7.285  1.2759 -0.1264 -1.1193
 1064TIP3    H227388   6.717   7.675   7.319  0.8758 -1.3684  1.3427
 1065TIP3   OH227389   0.831   6.291   7.515 -0.3361  0.7314 -0.4307
 1065TIP3    H127390   0.794   6.231   7.451 -0.1818  0.6055 -0.4041
 1065TIP3    H227391   0.842   6.374   7.467  0.5387  0.4130 -0.8074
 1066TIP3   OH227392   7.474   6.832   6.769 -0.1744 -0.6795  0.2848
 1066TIP3    H127393   7.492   6.905   6.708  0.9220  0.3999  1.8305
 1066TIP3    H227394   7.526   6.759   6.735  0.0036 -0.2632 -0.3638
 1067TIP3   OH227395   4.252   7.063   8.638  0.4661 -0.0533 -0.5663
 1067TIP3    H127396   4.288   7.126   8.576 -1.1894  0.9952 -0.5151
 1067TIP3    H227397   4.174   7.106   8.674 -0.2809 -1.8234  0.0417
 1068TIP3   OH227398   3.654   7.119   7.817 -0.3964  0.1091 -0.6118
 1068TIP3    H127399   3.572   7.162   7.794 -1.7853 -0.6861  2.4642
 1068TIP3    H227400   3.629   7.031   7.843  2.0043 -1.6528 -3.5100
 1069TIP3   OH227401   5.202   0.442   8.264 -0.1885  0.3180 -0.0642
 1069TIP3    H127402   5.184   0.536   8.259  0.6668  0.4563 -0.6090
 1069TIP3    H227403   5.120   0.404   8.298 -0.6412  1.2180 -0.1257
 1070TIP3   OH227404   4.088   6.601   7.416 -0.1618  0.2801 -0.3210
 1070TIP3    H127405   4.167   6.608   7.471  0.4909 -0.5080 -1.1230
 1070TIP3    H227406   4.048   6.518   7.442 -0.1220  0.1488 -0.6662
 1071TIP3   OH227407   2.611   7.180   7.779 -0.2545  0.0016 -0.6525
 1071TIP3    H127408   2.519   7.201   7.764 -0.7266 -1.8408 -0.5713
 1071TIP3    H227409   2.612   7.135   7.864  0.8757  0.8417 -0.1946
 1072TIP3   OH227410   2.970   0.436   9.325  0.2293  0.3174 -0.2690
 1072TIP3    H127411   2.879   0.459   9.305  0.1450  0.3345  0.1173
 1072TIP3    H227412   2.988   0.481   9.408  0.1284 -0.8242  0.3904
 1073TIP3   OH227413   1.771   2.689   8.732 -0.0793 -0.5236 -0.5036
 1073TIP3    H127414   1.799   2.777   8.759  0.2192 -0.6310 -0.4659
 1073TIP3    H227415   1.678   2.700   8.711 -0.1814 -0.3126  0.0271
 1074TIP3   OH227416   5.220   2.420   6.744  0.3872 -0.1339 -0.3313
 1074TIP3    H127417   5.124   2.429   6.741  0.2790 -1.0821 -0.1190
 1074TIP3    H227418   5.234   2.335   6.787  1.2942 -0.7397 -1.7646
 1075TIP3   OH227419   5.554   7.548   7.520 -0.4704  0.4305  0.0145
 1075TIP3    H127420   5.515   7.635   7.524 -3.2010 -0.6176 -1.4262
 1075TIP3    H227421   5.484   7.489   7.547  1.4126 -1.3563  1.3203
 1076TIP3   OH227422   5.810   6.550   8.231  0.7262  0.1335  0.0101
 1076TIP3    H127423   5.739   6.557   8.296  0.8020  2.1661 -0.0633
 1076TIP3    H227424   5.771   6.582   8.150  1.2943 -0.2320 -0.4107
 1077TIP3   OH227425   6.866   0.880   6.993  0.2617 -0.3367  0.1547
 1077TIP3    H127426   6.895   0.813   6.931  1.6347 -1.3709  1.8127
 1077TIP3    H227427   6.874   0.963   6.945 -2.3769 -1.3356 -2.2552
 1078TIP3   OH227428   4.317   4.378   7.376  0.1476  0.8010 -0.2017
 1078TIP3    H127429   4.223   4.373   7.360  0.0863 -1.4027  0.4720
 1078TIP3    H227430   4.350   4.293   7.347  1.7332  1.0360  0.8250
 1079TIP3   OH227431   1.516   4.180   9.601  0.1110 -0.2069  0.3045
 1079TIP3    H127432   1.567   4.203   9.679 -0.5371 -0.7089  0.8941
 1079TIP3    H227433   1.579   4.186   9.529  0.5232  1.1108  0.7316
 1080TIP3   OH227434   6.033   1.611   7.172 -0.2083 -0.3993  0.1818
 1080TIP3    H127435   6.101   1.626   7.237 -0.6318  1.2865  0.2759
 1080TIP3    H227436   6.063   1.659   7.095 -1.5235  0.8259  0.4006
 1081TIP3   OH227437   4.263   7.538   7.745  0.1817  0.6060  0.2320
 1081TIP3    H127438   4.244   7.451   7.708 -0.3506  0.8645 -0.1114
 1081TIP3    H227439   4.326   7.576   7.685  0.8173  0.2552  0.6683
 1082TIP3   OH227440   7.480   5.398   6.728  0.4359 -0.3325  0.0522
 1082TIP3    H127441   7.386   5.386   6.712 -0.0834  1.3472  1.4884
 1082TIP3    H227442   7.493   5.368   6.818  0.5494  2.4438  1.0502
 1083TIP3   OH227443   6.781   0.703   8.673  0.1232 -0.8442 -0.1355
 1083TIP3    H127444   6.872   0.676   8.659 -0.3215 -1.7208 -1.6223
 1083TIP3    H227445   6.782   0.798   8.665  0.8005 -0.9085 -0.9364
 1084TIP3   OH227446   0.487   0.290   8.273 -0.4775  0.0403  0.2612
 1084TIP3    H127447   0.536   0.327   8.347  1.2162 -0.8415 -0.3613
 1084TIP3    H227448   0.546   0.224   8.236 -1.1461  0.6214 -2.0285
 1085TIP3   OH227449   1.342   7.487   7.403 -0.5096 -0.3027  0.0127
 1085TIP3    H127450   1.400   7.532   7.342  1.0013 -1.9312  0.1778
 1085TIP3    H227451   1.281   7.439   7.347 -0.3318 -0.2956 -0.1877
 1086TIP3   OH227452   6.348   0.340   8.726  0.7515 -0.6825  0.4030
 1086TIP3    H127453   6.353   0.268   8.663  2.3625 -0.7646  0.5788
 1086TIP3    H227454   6.410   0.405   8.693  1.1875 -0.4795  1.5681
 1087TIP3   OH227455   0.343   3.698   7.725 -1.2240 -0.5188  0.6792
 1087TIP3    H127456   0.336   3.657   7.639 -0.5024  0.1196  0.2948
 1087TIP3    H227457   0.429   3.670   7.757  0.3141  2.3388 -0.5454
 1088TIP3   OH227458   4.552   2.152   9.348  0.4363  0.0614 -0.9278
 1088TIP3    H127459   4.632   2.162   9.399 -0.4196  0.0245  0.4676
 1088TIP3    H227460   4.534   2.058   9.350 -0.6493  0.2672  0.4114
 1089TIP3   OH227461   6.545   2.482   8.370  0.0741  0.4374  0.3877
 1089TIP3    H127462   6.465   2.430   8.381  0.0097  0.4282 -0.1198
 1089TIP3    H227463   6.514   2.566   8.336  0.0770  1.1589  2.0574
 1090TIP3   OH227464   7.189   0.858   8.640 -0.0499 -0.6311  0.3750
 1090TIP3    H127465   7.137   0.780   8.659 -1.0676  0.4811  2.4669
 1090TIP3    H227466   7.276   0.838   8.677 -0.2354 -0.8636  0.6920
 1091TIP3   OH227467   3.744   4.422   7.284  0.2326  0.1517  0.5040
 1091TIP3    H127468   3.741   4.397   7.191  0.6070  0.1853  0.4823
 1091TIP3    H227469   3.814   4.486   7.289  1.4479 -1.1788  1.1182
 1092TIP3   OH227470   2.294   1.276   8.001 -0.0961  0.0933  0.4050
 1092TIP3    H127471   2.238   1.265   7.924  0.0905 -0.7637  0.3866
 1092TIP3    H227472   2.233   1.285   8.074 -0.3075  2.1224  0.0374
 1093TIP3   OH227473   0.533   2.011   8.028  0.4252  0.2162  0.3098
 1093TIP3    H127474   0.506   1.945   8.091 -0.9501  0.0051 -0.4510
 1093TIP3    H227475   0.466   2.080   8.035  0.3076  0.2415 -0.8147
 1094TIP3   OH227476   7.602   5.241   9.538 -0.8702  0.3191 -0.6815
 1094TIP3    H127477   7.514   5.242   9.502 -0.1151  0.3183 -2.6169
 1094TIP3    H227478   7.643   5.163   9.501 -0.2531 -0.0655  0.7490
 1095TIP3   OH227479   4.434   4.909   9.422 -0.6842  0.5419  0.1795
 1095TIP3    H127480   4.397   4.847   9.486 -0.6791  1.4694  1.1187
 1095TIP3    H227481   4.479   4.854   9.358 -1.8815 -0.4988  0.1904
 1096TIP3   OH227482   4.752   6.405   6.973 -0.0165  0.3611  0.1031
 1096TIP3    H127483   4.736   6.451   7.055 -0.8372 -0.0252  0.1718
 1096TIP3    H227484   4.760   6.475   6.908  0.3273  0.6563  0.4645
 1097TIP3   OH227485   7.462   0.541   8.530  0.2275  0.1495  0.1503
 1097TIP3    H127486   7.556   0.525   8.535  0.4426  1.1716 -0.2825
 1097TIP3    H227487   7.451   0.594   8.450 -0.7885 -0.4752 -0.1540
 1098TIP3   OH227488   0.758   0.955   8.162  0.4271  0.1710 -0.4768
 1098TIP3    H127489   0.803   1.005   8.095  0.2670  0.1509 -0.5991
 1098TIP3    H227490   0.743   0.870   8.123  1.5788 -0.3111  0.0758
 1099TIP3   OH227491   1.699   3.158   9.225  0.0526 -0.5160 -0.5945
 1099TIP3    H127492   1.645   3.100   9.279  1.2103 -0.9391  0.1369
 1099TIP3    H227493   1.694   3.243   9.270  0.5635 -0.7333 -0.1101
 1100TIP3   OH227494   3.372   2.638   8.813 -0.2257 -0.5720  0.1055
 1100TIP3    H127495   3.357   2.632   8.907  0.0877 -1.3643  0.1162
 1100TIP3    H227496   3.467   2.627   8.803 -0.3721 -1.6279 -0.3651
 1101TIP3   OH227497   2.218   6.552   8.084 -0.1430 -0.0776 -0.0996
 1101TIP3    H127498   2.241   6.460   8.092  0.4775  0.1238  0.5203
 1101TIP3    H227499   2.244   6.591   8.167  0.3902  0.8216 -0.6643
 1102TIP3   OH227500   2.428   6.681   6.847  0.2512 -0.2028 -0.0884
 1102TIP3    H127501   2.440   6.592   6.881 -1.7777 -0.3064  0.4815
 1102TIP3    H227502   2.411   6.734   6.925  0.8754  0.5786 -0.4821
 1103TIP3   OH227503   6.893   5.446   8.345 -0.1445  0.5222  0.3022
 1103TIP3    H127504   6.893   5.361   8.387  0.7624  0.5085  0.3018
 1103TIP3    H227505   6.804   5.458   8.313 -0.0843 -0.7725 -0.4004
 1104TIP3   OH227506   1.950   1.885   8.340 -0.1320 -0.4399 -0.2992
 1104TIP3    H127507   1.995   1.807   8.373  0.2081 -1.1376 -2.2808
 1104TIP3    H227508   2.019   1.951   8.330 -0.4333  0.2131  1.4627
 1105TIP3   OH227509   4.501   7.505   8.321 -0.2331 -0.4705  0.1282
 1105TIP3    H127510   4.524   7.556   8.243 -0.2681  1.4498  1.3348
 1105TIP3    H227511   4.448   7.433   8.286 -1.8973  1.4086 -1.4732
 1106TIP3   OH227512   2.383   0.652   7.981 -0.1074 -0.0756  0.4085
 1106TIP3    H127513   2.376   0.579   7.920 -3.8641  1.1538 -0.8959
 1106TIP3    H227514   2.475   0.678   7.977  0.3614 -1.7060 -2.7208
 1107TIP3   OH227515   0.598   6.976   8.253  0.2534  0.6757  0.1299
 1107TIP3    H127516   0.624   7.005   8.341 -0.4717  1.1120  0.2095
 1107TIP3    H227517   0.575   7.057   8.207 -1.2650  0.3072  0.1756
 1108TIP3   OH227518   6.098   0.240   8.512  0.1780 -0.4004  0.0407
 1108TIP3    H127519   6.051   0.269   8.590 -0.4080  2.3128 -1.1909
 1108TIP3    H227520   6.046   0.273   8.439  2.8283  0.8741 -1.4290
 1109TIP3   OH227521   0.372   5.133   7.929  0.0345  0.6659 -0.7160
 1109TIP3    H127522   0.423   5.212   7.910  0.5004  0.5294 -0.0652
 1109TIP3    H227523   0.375   5.125   8.024  0.8739 -0.6983 -0.8222
 1110TIP3   OH227524   3.796   6.672   7.433 -0.1438  0.6106 -0.3077
 1110TIP3    H127525   3.750   6.618   7.498 -1.6038  0.1469 -1.6776
 1110TIP3    H227526   3.867   6.616   7.401 -0.7187  0.0564 -0.6249
 1111TIP3   OH227527   2.880   2.681   7.960 -0.2860  0.2236 -0.1765
 1111TIP3    H127528   2.816   2.692   7.889 -0.3548  0.6297 -0.0526
 1111TIP3    H227529   2.840   2.616   8.018  0.3148 -1.0653 -1.1309
 1112TIP3   OH227530   1.779   0.927   9.058 -0.0155 -0.4402 -0.0157
 1112TIP3    H127531   1.709   0.905   8.997  0.2384 -1.9244  0.1806
 1112TIP3    H227532   1.837   0.985   9.008 -0.1178 -1.1529 -0.9924
 1113TIP3   OH227533   7.308   4.096   8.883 -0.8196  0.4358  0.3079
 1113TIP3    H127534   7.319   4.154   8.808  3.2610 -1.0887 -0.5429
 1113TIP3    H227535   7.250   4.027   8.852 -0.3108  0.5756 -1.0232
 1114TIP3   OH227536   3.182   7.199   8.204  0.1280 -0.1498  0.2885
 1114TIP3    H127537   3.176   7.271   8.268  0.8178 -1.1179  1.4884
 1114TIP3    H227538   3.275   7.186   8.191 -0.0087 -0.0776 -0.8125
 1115TIP3   OH227539   3.455   3.804   8.592  0.6208 -0.0358  0.2394
 1115TIP3    H127540   3.475   3.762   8.676 -0.2962 -0.7441  0.1260
 1115TIP3    H227541   3.468   3.898   8.608 -0.1823 -0.0983  1.3700
 1116TIP3   OH227542   5.805   1.648   7.918  0.1533  0.1798  0.3104
 1116TIP3    H127543   5.793   1.741   7.937  0.1682 -0.1423  1.9974
 1116TIP3    H227544   5.891   1.644   7.875  0.1732  0.9314  0.2555
 1117TIP3   OH227545   2.367   0.357   9.200 -0.0191 -0.1283 -0.0888
 1117TIP3    H127546   2.402   0.427   9.145 -2.0046 -1.3556 -3.1506
 1117TIP3    H227547   2.421   0.281   9.181 -0.1475 -0.3488  0.3976
 1118TIP3   OH227548   4.848   3.975   8.520  0.5937 -0.4713  0.3377
 1118TIP3    H127549   4.791   3.930   8.582 -0.8162  1.1708  0.3242
 1118TIP3    H227550   4.913   4.020   8.574  0.2428 -0.2000  0.5357
 1119TIP3   OH227551   3.445   3.028   8.992  0.4481  0.4230  0.4775
 1119TIP3    H127552   3.507   3.053   8.924 -0.8405  2.3064 -0.0939
 1119TIP3    H227553   3.375   2.983   8.946  0.0068  0.8847  0.6954
 1120TIP3   OH227554   0.008   4.304   7.333  0.2912 -0.1187  0.3549
 1120TIP3    H127555   0.011   4.282   7.240 -0.1086  0.9862  0.0593
 1120TIP3    H227556   0.061   4.383   7.341  0.0433 -0.0104  1.0069
 1121TIP3   OH227557   2.842   2.327   8.382  0.5629  0.1302  0.4499
 1121TIP3    H127558   2.912   2.327   8.317  0.1872 -0.6594  0.0291
 1121TIP3    H227559   2.885   2.350   8.464  1.4343 -1.0220  0.3279
 1122TIP3   OH227560   0.065   2.270   8.701  0.2863  0.0955  0.6631
 1122TIP3    H127561   0.042   2.224   8.781 -0.3229  0.8212  0.9092
 1122TIP3    H227562   0.025   2.356   8.710  0.8880  0.4645 -0.0671
 1123TIP3   OH227563   5.695   1.269   8.719 -0.4800  0.0505  0.4194
 1123TIP3    H127564   5.634   1.245   8.789 -0.3214  0.2352  0.6226
 1123TIP3    H227565   5.668   1.357   8.694  0.6651  0.7648  1.5737
 1124TIP3   OH227566   2.041   0.162   8.054  0.7569  0.1589  0.0271
 1124TIP3    H127567   2.136   0.170   8.061  0.6885  1.3150 -0.1521
 1124TIP3    H227568   2.018   0.216   7.979 -0.1550  0.7428  0.7099
 1125TIP3   OH227569   4.984   4.303   8.565 -0.6393 -0.6030 -0.1126
 1125TIP3    H127570   5.013   4.359   8.637 -1.6030  1.8998 -1.5516
 1125TIP3    H227571   4.901   4.265   8.594 -0.9136  0.2233  0.1914
 1126TIP3   OH227572   4.099   5.363   7.613  0.6197 -0.1437 -0.1429
 1126TIP3    H127573   4.012   5.342   7.581  0.9289 -1.1778 -0.3555
 1126TIP3    H227574   4.158   5.307   7.562  1.3552  0.1198  0.3936
 1127TIP3   OH227575   6.710   0.596   7.070  0.5798  0.0349 -0.2265
 1127TIP3    H127576   6.749   0.670   7.024  0.8534  0.4532  0.6713
 1127TIP3    H227577   6.780   0.530   7.071  1.1501  0.6327  1.0209
 1128TIP3   OH227578   6.203   1.385   7.260 -0.2365 -0.1673 -1.3105
 1128TIP3    H127579   6.288   1.411   7.297 -0.6668 -0.9705  0.3244
 1128TIP3    H227580   6.216   1.391   7.165  1.4389  0.3642 -1.0937
 1129TIP3   OH227581   5.339   1.456   8.128  0.1867  0.0909  0.2623
 1129TIP3    H127582   5.365   1.538   8.171  1.4947 -0.4594  0.5582
 1129TIP3    H227583   5.389   1.455   8.047  0.3934 -0.5446  0.3909
 1130TIP3   OH227584   4.865   5.784   8.136  0.0883  0.3569  0.4222
 1130TIP3    H127585   4.915   5.846   8.188 -1.6296  1.4662  0.8190
 1130TIP3    H227586   4.778   5.785   8.174 -1.3361  1.3703 -2.5531
 1131TIP3   OH227587   0.318   0.513   7.899 -0.3936 -0.0547 -0.1544
 1131TIP3    H127588   0.398   0.463   7.913 -0.8438 -0.6251  0.4090
 1131TIP3    H227589   0.248   0.459   7.937 -0.9725  0.6910 -0.1328
 1132TIP3   OH227590   6.106   1.008   7.968 -0.1812 -0.2686 -0.3296
 1132TIP3    H127591   6.041   0.978   8.031 -0.4922  0.2493 -0.3952
 1132TIP3    H227592   6.137   1.092   8.003 -0.1263 -0.1299 -0.7030
 1133TIP3   OH227593   7.198   2.755   9.108  0.1909  0.4247 -0.0686
 1133TIP3    H127594   7.161   2.682   9.060  0.2096  1.7514 -2.2545
 1133TIP3    H227595   7.283   2.723   9.140 -0.6324 -1.0617  0.6821
 1134TIP3   OH227596   2.802   6.753   8.623  0.4453 -0.5939 -0.0391
 1134TIP3    H127597   2.751   6.706   8.689 -1.4638  0.4977 -0.6505
 1134TIP3    H227598   2.837   6.829   8.670  0.5347 -0.7248  0.1078
 1135TIP3   OH227599   6.708   1.646   9.253 -0.2042  0.1605  0.0944
 1135TIP3    H127600   6.690   1.740   9.256 -2.1617 -0.1516 -0.9051
 1135TIP3    H227601   6.748   1.627   9.338 -0.8730  1.6751  0.7804
 1136TIP3   OH227602   0.189   2.804   6.889  0.2113 -0.2678 -0.2178
 1136TIP3    H127603   0.143   2.885   6.868 -1.1684 -1.3361 -1.5451
 1136TIP3    H227604   0.133   2.760   6.953  1.3774  0.1751  1.1580
 1137TIP3   OH227605   5.795   0.623   7.785  0.2789  0.1361 -0.2055
 1137TIP3    H127606   5.711   0.596   7.821 -0.0629 -0.0269 -1.1050
 1137TIP3    H227607   5.774   0.660   7.700  0.9500  1.4857  0.1762
 1138TIP3   OH227608   6.183   5.946   8.975  0.2790  0.0249 -0.8144
 1138TIP3    H127609   6.236   5.926   9.053  1.1315  1.5354 -0.9758
 1138TIP3    H227610   6.094   5.956   9.009  0.4762 -0.2632 -0.1851
 1139TIP3   OH227611   4.488   0.164   9.317 -0.5306  0.4871  0.0396
 1139TIP3    H127612   4.392   0.156   9.312 -0.9659  3.9312  0.2628
 1139TIP3    H227613   4.502   0.234   9.381  2.2389 -0.5559  0.6957
 1140TIP3   OH227614   1.297   5.012   7.513  0.1623 -0.0896  0.1774
 1140TIP3    H127615   1.379   5.057   7.495  0.8114 -0.3074  2.2494
 1140TIP3    H227616   1.245   5.024   7.434  1.9503  0.5563 -0.9745
 1141TIP3   OH227617   4.223   6.910   7.499  0.2252 -0.5104  0.8687
 1141TIP3    H127618   4.279   6.965   7.445  0.4726 -0.4841  1.1514
 1141TIP3    H227619   4.263   6.823   7.495 -1.6593 -1.4107 -1.8475
 1142TIP3   OH227620   1.144   6.930   7.578  0.6256  0.0447  0.3170
 1142TIP3    H127621   1.106   6.858   7.628  3.2515 -1.0413  0.8960
 1142TIP3    H227622   1.236   6.907   7.567  1.1465  2.4029 -1.1894
 1143TIP3   OH227623   2.631   0.980   7.167  0.3661  0.8215 -0.1760
 1143TIP3    H127624   2.536   0.989   7.171  0.2570 -0.0495 -0.4838
 1143TIP3    H227625   2.658   1.041   7.098  0.0377  1.1174 -0.0421
 1144TIP3   OH227626   6.189   1.554   8.507  0.0351 -0.2546  0.0123
 1144TIP3    H127627   6.191   1.477   8.564  1.5540 -1.6484 -1.7867
 1144TIP3    H227628   6.280   1.566   8.479  0.3206  3.6825  1.9859
 1145TIP3   OH227629   5.673   3.558   9.260  0.3541  0.2104 -0.0423
 1145TIP3    H127630   5.710   3.495   9.197  0.6411 -0.0718  0.3992
 1145TIP3    H227631   5.579   3.543   9.256  0.4924 -1.2138  1.0292
 1146TIP3   OH227632   1.905   3.232   7.254 -0.8316 -0.0332 -0.0632
 1146TIP3    H127633   1.906   3.167   7.184 -1.1039 -1.7081  1.4190
 1146TIP3    H227634   1.991   3.273   7.251 -0.4858 -0.7953 -0.7168
 1147TIP3   OH227635   0.337   7.185   9.841  0.2682  0.0145 -0.1234
 1147TIP3    H127636   0.374   7.209   9.926 -3.1884  0.4820  1.4224
 1147TIP3    H227637   0.333   7.267   9.792 -0.1192  0.2606  0.3129
 1148TIP3   OH227638   5.202   6.222   7.217  0.0652  0.4958 -0.2854
 1148TIP3    H127639   5.248   6.181   7.144  0.8116 -1.6027  1.2779
 1148TIP3    H227640   5.109   6.204   7.200  0.2301  0.0179 -0.6878
 1149TIP3   OH227641   7.093   4.957   8.889  0.6083  0.0451 -0.5175
 1149TIP3    H127642   7.039   4.964   8.810 -0.9481  1.9536  0.6340
 1149TIP3    H227643   7.031   4.934   8.959  1.5084  0.8958  0.5960
 1150TIP3   OH227644   0.395   2.919   9.514 -0.6908 -0.5115 -0.9711
 1150TIP3    H127645   0.471   2.884   9.469 -0.1625  0.7147 -1.0688
 1150TIP3    H227646   0.392   3.011   9.489 -0.2076  0.3032  1.6713
 1151TIP3   OH227647   6.077   2.131   7.489  0.0803  0.4580  0.0162
 1151TIP3    H127648   6.123   2.210   7.518  0.1223  0.4726 -0.0897
 1151TIP3    H227649   6.097   2.125   7.395 -0.6298  0.8036 -0.1711
 1152TIP3   OH227650   1.094   0.320   8.013 -0.1108  0.3471 -0.4970
 1152TIP3    H127651   1.067   0.238   7.970  0.5743 -0.3844  0.4367
 1152TIP3    H227652   1.156   0.360   7.952  0.3322 -0.3406 -0.5058
 1153TIP3   OH227653   7.622   4.998   7.845  0.4220 -0.2046  0.6794
 1153TIP3    H127654   7.610   4.922   7.902  1.9033 -0.4576  0.6902
 1153TIP3    H227655   7.625   4.961   7.757 -3.2321  0.3057  0.1653
 1154TIP3   OH227656   5.096   0.809   9.045 -0.2843  0.1386 -0.0781
 1154TIP3    H127657   5.159   0.741   9.022  0.1082  0.2162  0.7379
 1154TIP3    H227658   5.121   0.836   9.133  2.2446  4.2546 -1.7660
 1155TIP3   OH227659   2.133   3.935   8.526  0.3275  0.1082  0.0444
 1155TIP3    H127660   2.227   3.926   8.515  0.3437 -1.0844  0.8827
 1155TIP3    H227661   2.097   3.937   8.437  1.0474 -0.8400 -0.2877
 1156TIP3   OH227662   2.492   1.604   9.287  0.4012  0.4840 -0.3966
 1156TIP3    H127663   2.512   1.690   9.250  0.1530 -0.1511 -2.1028
 1156TIP3    H227664   2.576   1.573   9.321  0.8875  0.6770 -1.3802
 1157TIP3   OH227665   1.653   1.706   8.221  0.1367 -0.0584 -0.4601
 1157TIP3    H127666   1.572   1.663   8.195  0.9547 -1.6321 -0.5126
 1157TIP3    H227667   1.631   1.751   8.303 -0.5515 -1.2789  0.0426
 1158TIP3   OH227668   5.334   5.383   8.388  0.1574 -0.2703  0.1800
 1158TIP3    H127669   5.313   5.457   8.331  0.6459 -0.9173 -0.8554
 1158TIP3    H227670   5.314   5.415   8.476  1.0276  1.3407 -0.1767
 1159TIP3   OH227671   0.654   2.508   9.377 -0.5137  0.0866  0.0807
 1159TIP3    H127672   0.630   2.595   9.343 -0.2084  0.4698  0.8180
 1159TIP3    H227673   0.693   2.526   9.462  1.5944 -0.5818 -0.6936
 1160TIP3   OH227674   6.362   3.384   8.770  0.0010 -0.7633 -0.0390
 1160TIP3    H127675   6.429   3.359   8.834 -1.0807 -2.3868  0.5276
 1160TIP3    H227676   6.385   3.473   8.744  1.8216 -0.9450  0.8414
 1161TIP3   OH227677   4.258   3.359   9.241  0.0158 -0.3367 -0.4800
 1161TIP3    H127678   4.279   3.452   9.242 -0.4113 -0.2265 -1.4894
 1161TIP3    H227679   4.342   3.316   9.255  0.2180  0.1942 -0.0251
 1162TIP3   OH227680   2.320   3.368   7.438 -0.0854 -0.0711  0.4317
 1162TIP3    H127681   2.280   3.308   7.375 -0.1600  1.1533 -0.7219
 1162TIP3    H227682   2.337   3.313   7.515 -2.8305 -0.9272  0.5322
 1163TIP3   OH227683   2.266   0.845   8.991 -0.4335 -0.2382  0.4235
 1163TIP3    H127684   2.182   0.878   9.022 -0.8377  0.3623 -1.2337
 1163TIP3    H227685   2.248   0.753   8.969 -1.0704  0.2816 -1.3344
 1164TIP3   OH227686   7.339   0.075   7.833  0.0034  0.5367  0.3973
 1164TIP3    H127687   7.411   0.115   7.882 -0.6868  1.1080  0.9756
 1164TIP3    H227688   7.342   0.117   7.747  2.3337 -1.7316 -0.7633
 1165TIP3   OH227689   3.996   3.673   9.024  0.0800 -0.0051  0.9229
 1165TIP3    H127690   4.082   3.656   9.062  0.3488 -0.3323  0.1833
 1165TIP3    H227691   4.013   3.692   8.932 -0.7120 -0.9164  0.5699
 1166TIP3   OH227692   2.087   7.281   9.479 -0.0665 -0.5129 -0.6053
 1166TIP3    H127693   2.097   7.196   9.435  0.6256 -0.0572 -1.3605
 1166TIP3    H227694   2.089   7.260   9.572  1.8178 -1.1652 -0.7541
 1167TIP3   OH227695   7.500   3.465   8.342  0.1180 -0.5282 -0.0774
 1167TIP3    H127696   7.503   3.374   8.314 -0.1422 -0.3338 -0.7677
 1167TIP3    H227697   7.562   3.470   8.414 -0.6186 -1.4687  0.6359
 1168TIP3   OH227698   5.075   7.002   6.865 -0.0395  0.3754 -0.0044
 1168TIP3    H127699   5.026   7.081   6.840  0.7634  1.1566  0.7932
 1168TIP3    H227700   5.163   7.034   6.883  0.3103 -0.7287  0.2935
 1169TIP3   OH227701   5.865   0.906   8.359 -0.5207  0.1928 -0.4357
 1169TIP3    H127702   5.843   0.980   8.415  0.5581 -0.8597  1.4556
 1169TIP3    H227703   5.960   0.897   8.367 -0.4241 -0.4286 -1.9203
 1170TIP3   OH227704   0.043   7.405   8.879 -0.0684 -0.5844  0.5934
 1170TIP3    H127705   0.075   7.418   8.790 -0.1260 -1.1248  0.4900
 1170TIP3    H227706   0.006   7.316   8.879 -0.2512 -0.5139  1.0993
 1171TIP3   OH227707   0.384   4.182   8.861  0.4977 -0.0378 -0.1861
 1171TIP3    H127708   0.411   4.186   8.769  0.0457  1.4275 -0.2787
 1171TIP3    H227709   0.392   4.089   8.884  1.0847 -0.3553 -1.5553
 1172TIP3   OH227710   0.540   5.587   8.135 -0.1507 -0.2738  0.5161
 1172TIP3    H127711   0.470   5.651   8.117  1.0743  0.5340 -1.7469
 1172TIP3    H227712   0.612   5.639   8.170 -0.4300 -1.0259  2.3074
 1173TIP3   OH227713   2.567   1.875   9.215 -0.4969  0.2903  0.0012
 1173TIP3    H127714   2.530   1.871   9.127  3.0792  2.5045 -1.8622
 1173TIP3    H227715   2.628   1.949   9.212  0.0161  0.3147  4.3292
 1174TIP3   OH227716   6.084   7.628   9.347  0.4402  0.0771  0.7220
 1174TIP3    H127717   6.148   7.699   9.356  0.4961  0.0339  0.6691
 1174TIP3    H227718   6.044   7.643   9.261 -0.6487  0.9437  1.3496
 1175TIP3   OH227719   5.475   6.861   8.321  0.0049  0.2229 -0.7070
 1175TIP3    H127720   5.511   6.927   8.380  0.9323 -0.2480 -0.7266
 1175TIP3    H227721   5.424   6.911   8.257 -1.0896  0.7369  0.5200
 1176TIP3   OH227722   7.170   0.437   7.130 -0.8466 -0.1466  0.1542
 1176TIP3    H127723   7.094   0.487   7.161 -1.1486  0.2389 -1.1328
 1176TIP3    H227724   7.143   0.405   7.044  1.0566  1.5257 -1.1652
 1177TIP3   OH227725   7.444   1.573   6.844 -0.0099 -0.3066 -0.3211
 1177TIP3    H127726   7.538   1.561   6.855 -0.0444 -0.6514 -0.4076
 1177TIP3    H227727   7.406   1.487   6.862 -0.3159 -0.1483 -0.2001
 1178TIP3   OH227728   3.734   6.116   7.629 -0.0208  0.1773  0.0298
 1178TIP3    H127729   3.767   6.162   7.706  1.4151 -0.4177 -0.2092
 1178TIP3    H227730   3.753   6.175   7.556  2.2548 -0.9104 -0.3386
 1179TIP3   OH227731   0.544   1.582   6.634  0.3518  0.0404  0.1534
 1179TIP3    H127732   0.577   1.625   6.713  1.2643  2.4019 -1.3995
 1179TIP3    H227733   0.477   1.641   6.602  0.4422 -0.5582 -1.1743
 1180TIP3   OH227734   1.217   3.452   7.068 -0.1522  0.6571  0.1718
 1180TIP3    H127735   1.173   3.379   7.023 -1.0325 -1.0508  3.4517
 1180TIP3    H227736   1.310   3.430   7.065 -0.2201  0.4687 -0.6329
 1181TIP3   OH227737   3.396   2.658   8.400 -0.0610  0.1404  0.2075
 1181TIP3    H127738   3.453   2.716   8.349  0.3030 -0.5168 -0.1439
 1181TIP3    H227739   3.398   2.575   8.353 -1.9672  0.3105 -0.2848
 1182TIP3   OH227740   2.268   5.819   9.072  0.0262  0.2827  0.0556
 1182TIP3    H127741   2.269   5.741   9.016 -0.7034 -0.5688  1.1816
 1182TIP3    H227742   2.185   5.813   9.119  0.1339  1.5588  0.4253
 1183TIP3   OH227743   2.114   5.703   8.465  0.5348 -0.2087 -0.2078
 1183TIP3    H127744   2.107   5.670   8.376  0.0065  0.3535 -0.3849
 1183TIP3    H227745   2.026   5.694   8.501  0.6122  0.0969  0.0640
 1184TIP3   OH227746   0.734   1.306   9.239 -0.0383 -0.1049  0.2200
 1184TIP3    H127747   0.793   1.380   9.231  0.1731 -0.4120 -1.4836
 1184TIP3    H227748   0.679   1.311   9.161 -2.1281  0.0307  1.6239
 1185TIP3   OH227749   1.879   6.209   9.141 -0.1049 -0.7475 -0.3680
 1185TIP3    H127750   1.804   6.248   9.186 -1.4923 -0.6363 -2.6064
 1185TIP3    H227751   1.945   6.278   9.139 -0.9255  0.0432 -0.5780
 1186TIP3   OH227752   0.816   5.985   9.090  0.1026  0.1554 -0.6068
 1186TIP3    H127753   0.771   5.980   9.006  0.2929  0.2102 -0.7147
 1186TIP3    H227754   0.876   5.910   9.090 -0.6204 -0.4330 -0.0834
 1187TIP3   OH227755   3.425   7.471   8.088  0.7459  0.1582  0.6887
 1187TIP3    H127756   3.383   7.480   8.173  1.6192 -0.6667  1.2394
 1187TIP3    H227757   3.381   7.534   8.031 -0.9537 -0.4017  1.3164
 1188TIP3   OH227758   5.113   4.835   9.228  0.1886 -0.1008  0.7852
 1188TIP3    H127759   5.041   4.793   9.274  0.2701 -0.7872  0.3038
 1188TIP3    H227760   5.184   4.771   9.232 -0.2469 -0.8153 -1.5192
 1189TIP3   OH227761   2.211   6.897   8.821  0.6035 -0.1449 -0.1211
 1189TIP3    H127762   2.281   6.939   8.871  0.8826  0.0542 -0.6674
 1189TIP3    H227763   2.174   6.833   8.881  1.6671 -0.6873 -0.0083
 1190TIP3   OH227764   1.771   3.706   8.046  0.2965  0.2268 -0.1371
 1190TIP3    H127765   1.769   3.622   8.092  0.3573  0.8979  1.1438
 1190TIP3    H227766   1.692   3.751   8.076 -0.3938  0.1598 -1.7685
 1191TIP3   OH227767   3.437   0.230   8.769 -0.5935  0.0381  0.4664
 1191TIP3    H127768   3.498   0.163   8.742 -2.5550 -0.5503 -3.0568
 1191TIP3    H227769   3.352   0.185   8.775 -1.4272  1.5986  1.0257
 1192TIP3   OH227770   3.963   6.724   8.335  0.2545  0.5875  0.5851
 1192TIP3    H127771   4.023   6.706   8.262 -0.6012 -1.1632  0.2794
 1192TIP3    H227772   3.877   6.734   8.293 -0.3637 -1.0858  1.3697
 1193TIP3   OH227773   3.382   7.295   9.421  0.0884 -1.0187  0.2341
 1193TIP3    H127774   3.475   7.301   9.402  0.3848 -1.4339  1.4479
 1193TIP3    H227775   3.377   7.237   9.497 -1.1438 -0.8530  0.2966
 1194TIP3   OH227776   2.121   5.084   6.752  0.0752  0.2247  0.3701
 1194TIP3    H127777   2.129   4.999   6.708 -1.4095 -0.3445  1.1040
 1194TIP3    H227778   2.207   5.125   6.742 -0.3473  0.5556 -3.8176
 1195TIP3   OH227779   5.925   0.383   7.157 -0.8001  0.2501 -0.4675
 1195TIP3    H127780   5.915   0.310   7.217  0.9327  0.3840  0.0328
 1195TIP3    H227781   5.950   0.342   7.074 -2.4609  0.1189 -0.9348
 1196TIP3   OH227782   5.860   0.057   8.043 -0.1524  0.2271  0.1864
 1196TIP3    H127783   5.851   0.126   8.109 -0.5535  0.5214 -0.1773
 1196TIP3    H227784   5.954   0.041   8.038 -0.0530  0.7968  0.2185
 1197TIP3   OH227785   4.603   6.161   8.359  0.1860  0.5771 -0.5368
 1197TIP3    H127786   4.624   6.189   8.449 -0.4214  0.7806 -0.4569
 1197TIP3    H227787   4.658   6.216   8.304 -1.5801  2.5772 -0.4310
 1198TIP3   OH227788   4.101   1.669   7.462 -0.3583 -0.1047  0.4092
 1198TIP3    H127789   4.188   1.643   7.433  1.5708  2.6271  3.2009
 1198TIP3    H227790   4.063   1.715   7.387  1.0823 -0.2921 -0.4598
 1199TIP3   OH227791   0.084   4.263   8.603  0.1698 -0.7981 -0.2964
 1199TIP3    H127792   0.009   4.297   8.554 -0.0280  1.0985  1.2181
 1199TIP3    H227793   0.154   4.326   8.587 -0.1960  0.4699  2.5443
 1200TIP3   OH227794   0.957   1.459   7.013  0.4524 -0.6734  0.1585
 1200TIP3    H127795   0.906   1.474   6.933  0.3086  1.9567  0.6455
 1200TIP3    H227796   0.998   1.373   7.000 -0.7284 -0.9772 -2.0710
 1201TIP3   OH227797   7.353   6.138   9.031  0.3725  0.5079 -0.3703
 1201TIP3    H127798   7.284   6.071   9.037 -0.2619  1.0869 -1.0322
 1201TIP3    H227799   7.433   6.088   9.017  0.4536 -0.3167  2.4335
 1202TIP3   OH227800   1.543   4.952   8.792  0.3370  0.4888  0.3331
 1202TIP3    H127801   1.620   4.920   8.838  1.1967  1.5567 -0.3047
 1202TIP3    H227802   1.565   4.944   8.699 -1.3377 -1.5644  0.0287
 1203TIP3   OH227803   5.600   0.154   7.377  0.3921 -0.1132  0.9509
 1203TIP3    H127804   5.540   0.152   7.452 -0.8373 -0.0478  0.0106
 1203TIP3    H227805   5.543   0.166   7.302  1.4966 -1.2613 -0.1195
 1204TIP3   OH227806   1.406   6.658   8.570  0.4712 -0.6001  0.5747
 1204TIP3    H127807   1.425   6.586   8.510 -0.8710  0.6433 -1.4398
 1204TIP3    H227808   1.335   6.707   8.528  1.3528  1.9367  1.8271
 1205TIP3   OH227809   2.986   3.523   8.322 -0.6590  0.5199  0.1187
 1205TIP3    H127810   3.034   3.504   8.403 -0.5597 -0.6885 -0.1984
 1205TIP3    H227811   2.918   3.585   8.348 -2.0097 -1.4383  1.6527
 1206TIP3   OH227812   4.438   7.462   7.964  0.1445  0.4578  0.5428
 1206TIP3    H127813   4.361   7.495   7.917 -0.0221  0.6984  0.9814
 1206TIP3    H227814   4.464   7.384   7.915 -0.2497  0.4948  0.2672
 1207TIP3   OH227815   0.175   0.370   6.493  0.2005  0.0300  0.2049
 1207TIP3    H127816   0.130   0.327   6.566  1.6237  0.1249  1.1842
 1207TIP3    H227817   0.219   0.445   6.533  1.4045 -0.1931 -0.6439
 1208TIP3   OH227818   2.273   2.932   7.796 -0.3194 -0.0138  0.2333
 1208TIP3    H127819   2.219   2.975   7.862  0.0687  0.8829 -0.0151
 1208TIP3    H227820   2.360   2.925   7.837  0.0099  0.8514 -0.2933
 1209TIP3   OH227821   0.822   5.399   7.201 -0.0511  0.2631 -0.3162
 1209TIP3    H127822   0.867   5.431   7.123  2.6382 -0.9793  0.5855
 1209TIP3    H227823   0.880   5.424   7.273 -1.4576 -0.3769  1.0823
 1210TIP3   OH227824   4.281   4.719   8.020 -0.6954  0.0882 -0.5383
 1210TIP3    H127825   4.269   4.762   8.105  1.2050 -0.1962 -0.0781
 1210TIP3    H227826   4.193   4.691   7.994 -1.2446 -0.3974  1.6623
 1211TIP3   OH227827   5.229   2.074   8.841 -0.0649  0.4329 -0.2515
 1211TIP3    H127828   5.256   1.983   8.827  1.9708  0.6896  1.4885
 1211TIP3    H227829   5.141   2.079   8.804  0.3927 -1.8067 -1.8234
 1212TIP3   OH227830   2.366   2.811   8.830 -0.5093 -0.0020  0.0198
 1212TIP3    H127831   2.369   2.821   8.925  1.0450  0.4731 -0.0496
 1212TIP3    H227832   2.406   2.891   8.796 -2.5236  0.5792 -1.1126
 1213TIP3   OH227833   1.917   2.553   9.362  0.0664 -0.0353  0.2017
 1213TIP3    H127834   1.903   2.493   9.289  0.6816 -0.4285  0.3930
 1213TIP3    H227835   1.880   2.507   9.438  1.3432 -0.6094  0.5160
 1214TIP3   OH227836   4.698   3.002   8.270  0.3262 -1.1268  0.0703
 1214TIP3    H127837   4.611   2.990   8.233  0.4328  1.4124 -1.2233
 1214TIP3    H227838   4.739   2.915   8.265 -1.8351 -2.2039  0.0170
 1215TIP3   OH227839   1.714   4.975   9.453 -0.4492 -0.7607  0.3110
 1215TIP3    H127840   1.629   4.949   9.418 -0.3725  0.5362 -0.9289
 1215TIP3    H227841   1.744   5.045   9.395  0.3620  0.4916  2.1189
 1216TIP3   OH227842   6.803   7.142   7.126  0.0912  0.2946  0.4554
 1216TIP3    H127843   6.818   7.063   7.177  0.8331  0.7129  0.8970
 1216TIP3    H227844   6.710   7.138   7.103 -0.0386 -0.3547  1.0614
 1217TIP3   OH227845   0.799   1.111   8.953 -0.3475  0.2250 -0.6162
 1217TIP3    H127846   0.820   1.037   9.009  0.6720  2.2164  1.8137
 1217TIP3    H227847   0.881   1.133   8.909 -0.3111  0.6818 -0.3285
 1218TIP3   OH227848   5.456   0.357   9.422 -0.1343 -0.0201  0.4052
 1218TIP3    H127849   5.459   0.274   9.470  0.2359  0.0650  0.5292
 1218TIP3    H227850   5.450   0.331   9.330  1.4994 -0.2046  0.3278
 1219TIP3   OH227851   0.942   5.787   6.801 -0.0059  0.1235 -0.9933
 1219TIP3    H127852   0.981   5.854   6.744  3.2682 -1.5266 -0.9484
 1219TIP3    H227853   0.997   5.710   6.788 -0.5308 -1.0437  2.6655
 1220TIP3   OH227854   1.286   0.219   8.647  0.2643  0.1156  0.5816
 1220TIP3    H127855   1.263   0.308   8.619 -0.2637 -0.2660 -0.2209
 1220TIP3    H227856   1.373   0.229   8.687  0.8057  0.7737 -0.7026
 1221TIP3   OH227857   0.004   7.056   6.796 -0.3920 -0.1011 -0.3614
 1221TIP3    H127858   0.003   7.037   6.702  1.0081  1.8818 -0.8497
 1221TIP3    H227859   0.091   7.092   6.812 -0.6507 -0.2771  1.6922
 1222TIP3   OH227860   5.809   2.551   7.670  0.1705 -0.1773  0.6906
 1222TIP3    H127861   5.715   2.538   7.675 -0.0856  0.8239 -0.8508
 1222TIP3    H227862   5.836   2.509   7.589  0.8245  0.6514  0.4588
 1223TIP3   OH227863   5.949   3.148   9.568  0.0376 -0.0547 -0.2151
 1223TIP3    H127864   6.020   3.210   9.554  0.0659 -0.0298  0.0230
 1223TIP3    H227865   5.874   3.202   9.594  0.5098 -0.2222  1.6598
 1224TIP3   OH227866   4.905   4.830   7.441 -0.1638  0.6425 -0.3910
 1224TIP3    H127867   4.982   4.776   7.422 -0.6763  0.1449 -1.1156
 1224TIP3    H227868   4.867   4.790   7.519  0.0680  0.6243 -0.2859
 1225TIP3   OH227869   1.210   3.405   8.486 -0.0846  0.2157  0.1989
 1225TIP3    H127870   1.221   3.351   8.565  1.7717 -2.3115 -1.6209
 1225TIP3    H227871   1.241   3.349   8.415 -3.4802  1.6299 -2.6607
 1226TIP3   OH227872   2.655   4.673   8.063  0.1247 -0.3605 -0.5044
 1226TIP3    H127873   2.649   4.581   8.035 -0.3745 -0.0431 -1.4672
 1226TIP3    H227874   2.623   4.672   8.153 -1.4610 -0.8887 -1.0427
 1227TIP3   OH227875   3.525   3.595   7.838  0.1161  0.4560 -0.5610
 1227TIP3    H127876   3.461   3.666   7.840 -0.5601 -0.1371  1.4945
 1227TIP3    H227877   3.570   3.601   7.922  1.3792 -0.3964 -1.1401
 1228TIP3   OH227878   3.672   5.699   9.308  0.2462 -0.0919 -0.2710
 1228TIP3    H127879   3.709   5.784   9.281 -1.3659  0.9211  0.5613
 1228TIP3    H227880   3.744   5.637   9.294  1.9496  1.6142  0.3502
 1229TIP3   OH227881   2.215   5.150   8.568 -0.0745 -0.3344  0.1196
 1229TIP3    H127882   2.149   5.163   8.500  0.0005  0.4750  0.1920
 1229TIP3    H227883   2.268   5.229   8.564 -0.9145  0.3859  2.0448
 1230TIP3   OH227884   0.274   3.926   7.522 -0.0938 -0.1481  0.0341
 1230TIP3    H127885   0.361   3.911   7.486 -0.4690  0.1708 -1.0653
 1230TIP3    H227886   0.278   3.892   7.611  1.7472  1.6970  0.7441
 1231TIP3   OH227887   3.787   2.236   8.668  0.8911 -0.6056  0.0931
 1231TIP3    H127888   3.832   2.281   8.596 -1.0678  0.2411 -0.6962
 1231TIP3    H227889   3.855   2.185   8.711  2.7009  1.0406 -0.6364
 1232TIP3   OH227890   1.498   6.966   6.823  0.1955 -0.0878 -0.8844
 1232TIP3    H127891   1.433   6.901   6.799 -1.5142 -0.4738  3.6759
 1232TIP3    H227892   1.575   6.915   6.850 -0.4636 -0.2270  0.8804
 1233TIP3   OH227893   3.365   5.546   7.689 -0.0159 -0.0719  0.0736
 1233TIP3    H127894   3.416   5.466   7.693  0.0189 -0.0404  0.2881
 1233TIP3    H227895   3.414   5.609   7.744 -0.9226 -0.4124  1.3305
 1234TIP3   OH227896   4.407   6.444   7.251 -0.1172 -0.1894 -0.7415
 1234TIP3    H127897   4.368   6.506   7.313 -0.1855 -0.3994 -0.5696
 1234TIP3    H227898   4.501   6.452   7.263 -0.1212  0.0166 -0.8542
 1235TIP3   OH227899   3.547   6.514   8.280  0.0419  0.2696 -0.1296
 1235TIP3    H127900   3.521   6.596   8.322 -1.5084 -0.4375  0.3615
 1235TIP3    H227901   3.498   6.513   8.198  0.6006  0.1491 -0.4664
 1236TIP3   OH227902   3.545   4.697   8.671  0.3162  0.1764  0.5262
 1236TIP3    H127903   3.578   4.765   8.730 -2.1040  1.1883  0.8297
 1236TIP3    H227904   3.518   4.626   8.729  0.0151  0.2416  0.4684
 1237TIP3   OH227905   7.068   3.672   8.943 -0.0757  0.4140 -0.3209
 1237TIP3    H127906   7.047   3.597   8.887 -0.5283  1.6642 -1.9209
 1237TIP3    H227907   6.987   3.722   8.949 -0.3758 -0.2696  2.5202
 1238TIP3   OH227908   0.706   4.061   8.289  0.3858 -0.4265  0.0321
 1238TIP3    H127909   0.676   4.047   8.379  1.5863 -1.7267  0.2594
 1238TIP3    H227910   0.630   4.098   8.244 -0.6762 -1.0509  1.2472
 1239TIP3   OH227911   4.459   5.403   9.573  0.0900 -0.1350 -0.2183
 1239TIP3    H127912   4.490   5.315   9.552  1.4587  0.0614  0.8594
 1239TIP3    H227913   4.430   5.439   9.489  0.9628 -1.0476 -0.9408
 1240TIP3   OH227914   3.457   4.605   9.402  0.0030 -0.0928 -0.2229
 1240TIP3    H127915   3.469   4.545   9.475 -0.8144 -0.7562 -0.6040
 1240TIP3    H227916   3.362   4.605   9.386  0.0831  0.6222 -0.7980
 1241TIP3   OH227917   0.506   5.228   9.775 -0.4425  0.1426 -0.6090
 1241TIP3    H127918   0.492   5.142   9.734 -0.7730  1.0569 -2.5410
 1241TIP3    H227919   0.426   5.277   9.755  0.7897  1.7488 -1.9323
 1242TIP3   OH227920   7.119   5.796   8.410  0.6280  0.1084 -0.2276
 1242TIP3    H127921   7.112   5.725   8.474 -1.2161 -0.8675 -1.4330
 1242TIP3    H227922   7.059   5.771   8.339  0.5023  2.5037 -1.0551
 1243TIP3   OH227923   6.740   2.265   9.425  0.8445 -0.4576 -0.1992
 1243TIP3    H127924   6.830   2.237   9.441  0.8450 -0.2791  0.1064
 1243TIP3    H227925   6.747   2.329   9.354  1.0753  0.3606  0.5562
 1244TIP3   OH227926   3.505   6.119   7.242 -0.1057  0.5058  0.1815
 1244TIP3    H127927   3.524   6.204   7.202 -0.4248  1.0566  1.1734
 1244TIP3    H227928   3.454   6.139   7.320  2.0857 -0.3653  1.9516
 1245TIP3   OH227929   2.475   3.969   9.077  0.2056 -0.4537 -0.2482
 1245TIP3    H127930   2.400   3.945   9.132  1.0596 -1.4046  0.5448
 1245TIP3    H227931   2.499   3.888   9.033  1.1511 -0.3084 -0.0186
 1246TIP3   OH227932   7.296   2.809   7.184 -0.3959 -0.2004  0.3430
 1246TIP3    H127933   7.330   2.880   7.238 -0.9362  0.7594 -0.5398
 1246TIP3    H227934   7.373   2.770   7.144  0.1302 -1.6433  2.5982
 1247TIP3   OH227935   3.746   4.094   7.834  0.2765  0.1868  0.1280
 1247TIP3    H127936   3.758   4.187   7.818 -0.8981  0.2326 -0.6442
 1247TIP3    H227937   3.737   4.086   7.929 -0.9197  1.0511  0.1141
 1248TIP3   OH227938   6.888   3.821   9.237  0.5552  0.1702  0.0780
 1248TIP3    H127939   6.877   3.903   9.284  1.5146  0.8587 -0.8370
 1248TIP3    H227940   6.875   3.845   9.145 -0.2744 -0.9343 -0.1057
 1249TIP3   OH227941   0.201   6.145   9.442 -0.6511  0.0453 -0.4272
 1249TIP3    H127942   0.116   6.143   9.487 -0.8603 -2.3956 -0.8272
 1249TIP3    H227943   0.247   6.067   9.473  1.1488  0.8953 -0.8368
 1250TIP3   OH227944   1.363   6.559   7.561  0.5055 -0.0571  0.7107
 1250TIP3    H127945   1.354   6.538   7.654 -2.1065  0.4333  0.6555
 1250TIP3    H227946   1.363   6.655   7.558  0.8694 -0.0683  0.2121
 1251TIP3   OH227947   3.160   2.691   7.823  0.0455  0.1665 -0.0821
 1251TIP3    H127948   3.181   2.784   7.833  0.6628  0.1595 -1.1738
 1251TIP3    H227949   3.088   2.676   7.885 -0.2614  1.4301 -0.1009
 1252TIP3   OH227950   1.412   2.042   6.931 -0.0691 -0.0056  0.4471
 1252TIP3    H127951   1.405   1.985   7.008 -0.1364 -0.0075  0.4398
 1252TIP3    H227952   1.506   2.058   6.922 -0.0183 -0.4041  0.2419
 1253TIP3   OH227953   7.025   1.124   8.068 -0.2619 -0.1102 -0.4362
 1253TIP3    H127954   7.113   1.135   8.033  0.9741  0.0110  2.4081
 1253TIP3    H227955   7.002   1.210   8.105 -0.1599 -0.9323  1.6844
 1254TIP3   OH227956   6.922   2.324   8.702  1.0190  0.4762  0.2241
 1254TIP3    H127957   6.959   2.411   8.686 -0.2153  1.2917  1.5992
 1254TIP3    H227958   6.861   2.337   8.774  2.0327 -1.8792  1.5819
 1255TIP3   OH227959   5.024   2.344   7.750  0.2140 -0.0894  0.1179
 1255TIP3    H127960   5.083   2.404   7.706  0.9825 -1.2706 -0.5188
 1255TIP3    H227961   4.938   2.362   7.712  1.0412 -2.0693 -3.1361
 1256TIP3   OH227962   5.086   2.417   8.829  0.1533 -0.2788 -0.4089
 1256TIP3    H127963   5.141   2.399   8.753 -1.1342 -1.2603 -1.1393
 1256TIP3    H227964   5.010   2.359   8.819  0.2223 -0.9102  1.9359
 1257TIP3   OH227965   2.381   7.619   8.027 -0.3905  0.3604 -0.3266
 1257TIP3    H127966   2.457   7.563   8.042  0.3632  1.6610  0.9296
 1257TIP3    H227967   2.328   7.571   7.964  1.4455 -0.6162 -1.2061
 1258TIP3   OH227968   3.793   7.100   8.497 -0.0773 -0.1338  0.1988
 1258TIP3    H127969   3.862   7.157   8.529  0.3251  0.3651 -1.4545
 1258TIP3    H227970   3.711   7.144   8.520  0.1656 -0.2097  1.2336
 1259TIP3   OH227971   2.488   3.331   9.130  0.1256 -0.0647  0.1772
 1259TIP3    H127972   2.436   3.292   9.060 -0.2654  0.8003 -0.0352
 1259TIP3    H227973   2.473   3.275   9.205 -1.2251  0.2163  0.1496
 1260TIP3   OH227974   2.576   6.120   8.932 -0.2072 -0.3267 -0.1087
 1260TIP3    H127975   2.671   6.112   8.942 -0.1996  0.3902  0.5059
 1260TIP3    H227976   2.555   6.063   8.859  0.7674 -0.0994 -0.5889
 1261TIP3   OH227977   4.222   6.077   9.528  0.5234  0.5691  0.0443
 1261TIP3    H127978   4.298   6.070   9.585 -0.6282 -0.8381  1.4780
 1261TIP3    H227979   4.221   5.995   9.478 -0.1654  0.4843  0.1878
 1262TIP3   OH227980   6.494   5.314   7.595 -0.8982  0.1473  0.1498
 1262TIP3    H127981   6.498   5.249   7.665  1.7245 -1.1645 -1.0728
 1262TIP3    H227982   6.425   5.282   7.537 -1.2915 -0.2046  0.8028
 1263TIP3   OH227983   3.947   0.429   8.943 -0.2331  0.4774  0.3624
 1263TIP3    H127984   3.981   0.350   8.984 -0.9135  0.7268  1.4349
 1263TIP3    H227985   3.933   0.490   9.015 -1.0802  1.0722 -0.2805
 1264TIP3   OH227986   6.376   4.540   8.695 -0.6329 -1.0444 -0.2504
 1264TIP3    H127987   6.377   4.457   8.742  1.4271 -0.7644  0.3048
 1264TIP3    H227988   6.349   4.605   8.760  1.1091 -0.8237  0.3069
 1265TIP3   OH227989   6.932   1.893   6.621 -0.5075 -0.7190 -0.6400
 1265TIP3    H127990   7.025   1.885   6.599 -0.1862  0.1893  0.2926
 1265TIP3    H227991   6.929   1.884   6.716 -1.2361  0.3873 -0.5436
 1266TIP3   OH227992   2.945   4.002   7.621  0.1103  0.2493  0.2362
 1266TIP3    H127993   2.854   3.975   7.608  0.2988 -0.0306 -0.6019
 1266TIP3    H227994   2.974   4.028   7.533  0.0828  2.7988  0.8870
 1267TIP3   OH227995   3.778   3.140   9.123  0.0863  0.1687  0.3859
 1267TIP3    H127996   3.852   3.111   9.070  0.8995 -0.0620  1.5823
 1267TIP3    H227997   3.735   3.059   9.151 -0.8332  0.3130 -0.5743
 1268TIP3   OH227998   4.489   1.351   7.104 -0.2889  0.1271 -0.7425
 1268TIP3    H127999   4.416   1.407   7.132 -0.7360 -0.6019 -0.4205
 1268TIP3    H228000   4.470   1.332   7.012  0.2876  1.1374 -1.0931
 1269TIP3   OH228001   6.737   1.809   9.745  0.0507 -0.3943  0.4021
 1269TIP3    H128002   6.804   1.768   9.800 -0.0544  1.1226  1.7535
 1269TIP3    H228003   6.783   1.879   9.699 -0.8615  2.1790  3.0498
 1270TIP3   OH228004   0.420   4.977   7.439  0.3733  0.0153  0.6284
 1270TIP3    H128005   0.354   5.046   7.451 -0.2789  0.0745 -2.5494
 1270TIP3    H228006   0.371   4.896   7.444  0.4583 -0.0453  0.4726
 1271TIP3   OH228007   4.238   1.176   7.498  0.0308  0.6480  0.2124
 1271TIP3    H128008   4.211   1.176   7.590  1.0843  1.3292  0.5417
 1271TIP3    H228009   4.186   1.246   7.458 -0.6466  0.1508  0.2177
 1272TIP3   OH228010   4.099   4.476   8.011 -0.4172  0.0477 -0.3654
 1272TIP3    H128011   4.024   4.427   8.045 -1.0060  0.2423 -1.3379
 1272TIP3    H228012   4.172   4.449   8.066 -0.6192 -2.2302 -1.0921
 1273TIP3   OH228013   5.904   1.858   8.434 -0.4908  0.2871 -0.2118
 1273TIP3    H128014   5.931   1.949   8.445 -0.6632  0.1133  1.9767
 1273TIP3    H228015   5.930   1.815   8.515 -2.0884 -1.1972 -0.4391
 1274TIP3   OH228016   4.337   3.365   7.207  0.2530 -0.4634 -0.1497
 1274TIP3    H128017   4.390   3.407   7.140  0.4498  0.3441  0.4932
 1274TIP3    H228018   4.334   3.273   7.181  0.5820 -0.2207 -1.0879
 1275TIP3   OH228019   3.646   7.088   9.493 -0.4857 -0.1585  0.4067
 1275TIP3    H128020   3.724   7.139   9.513  0.9898 -1.0991 -2.4089
 1275TIP3    H228021   3.663   7.002   9.531  1.0368 -1.0877 -2.1538
 1276TIP3   OH228022   5.032   6.683   7.765  0.3155 -0.3825 -0.1504
 1276TIP3    H128023   5.088   6.699   7.841 -1.0919  2.0086  0.4836
 1276TIP3    H228024   4.960   6.630   7.799 -0.2456  0.5776  0.2094
 1277TIP3   OH228025   5.324   2.472   7.356  0.1389  0.2550 -0.0590
 1277TIP3    H128026   5.402   2.440   7.309 -1.1049  0.1887 -2.2389
 1277TIP3    H228027   5.299   2.551   7.308  0.0420  1.4900  1.9271
 1278TIP3   OH228028   7.572   5.499   9.463 -0.7730 -0.4493 -0.0860
 1278TIP3    H128029   7.487   5.486   9.507  0.9053 -1.4727  3.2190
 1278TIP3    H228030   7.620   5.418   9.482  1.6491  0.9205 -0.0039
 1279TIP3   OH228031   6.696   7.594   8.116 -0.4488  0.2922  0.1423
 1279TIP3    H128032   6.636   7.544   8.060 -1.3971 -0.3240  1.6530
 1279TIP3    H228033   6.748   7.528   8.160 -2.4466  0.4408  2.9832
 1280TIP3   OH228034   6.469   5.176   7.827 -0.0977 -0.3421  1.1220
 1280TIP3    H128035   6.546   5.120   7.821 -0.8063 -1.2759  0.3105
 1280TIP3    H228036   6.503   5.263   7.848  1.3028 -0.3694 -0.8112
 1281TIP3   OH228037   2.047   3.284   6.956  0.3159 -0.0387 -0.7280
 1281TIP3    H128038   2.102   3.339   6.900  0.7001  1.5171  1.0944
 1281TIP3    H228039   2.091   3.284   7.041 -1.5818 -0.1565  0.3201
 1282TIP3   OH228040   4.038   2.661   8.393 -0.1643 -0.3342 -0.3351
 1282TIP3    H128041   4.077   2.634   8.476  1.1932  1.0205 -0.4907
 1282TIP3    H228042   3.978   2.732   8.416  0.9984  0.7706 -0.5781
 1283TIP3   OH228043   2.249   6.286   6.645 -0.0205  0.3959  0.0476
 1283TIP3    H128044   2.303   6.357   6.679  0.3023  0.3626 -0.3790
 1283TIP3    H228045   2.304   6.245   6.577  0.8498 -1.8560  1.9547
 1284TIP3   OH228046   3.978   3.074   8.951  0.0008  0.0261  0.2091
 1284TIP3    H128047   4.027   3.156   8.951  0.2626 -0.1213  1.1780
 1284TIP3    H228048   3.953   3.061   8.859 -0.0649  1.1986  0.0439
 1285TIP3   OH228049   4.134   1.334   6.998  0.3827 -0.6166 -0.3065
 1285TIP3    H128050   4.125   1.358   7.090 -0.1666 -1.3298 -0.1649
 1285TIP3    H228051   4.060   1.375   6.954  0.3252 -0.7402 -0.3278
 1286TIP3   OH228052   0.861   5.464   8.854  0.1141 -0.6235 -0.2613
 1286TIP3    H128053   0.792   5.524   8.882  0.9603 -0.6545  2.0932
 1286TIP3    H228054   0.827   5.377   8.876  0.0233 -0.8370 -1.1690
 1287TIP3   OH228055   7.343   1.858   7.490  0.4123  0.0096  0.5777
 1287TIP3    H128056   7.409   1.921   7.461 -0.5100  0.6774 -0.1239
 1287TIP3    H228057   7.294   1.905   7.558  1.3400 -0.8763  1.9246
 1288TIP3   OH228058   7.199   6.750   8.340  0.3350 -0.6727  0.1215
 1288TIP3    H128059   7.267   6.719   8.400  0.8969  0.8834  0.3257
 1288TIP3    H228060   7.153   6.818   8.389  1.5689  1.4982 -1.5745
 1289TIP3   OH228061   7.474   6.452   8.714  0.5360 -0.7843  0.3281
 1289TIP3    H128062   7.461   6.381   8.651  1.1815  0.2424 -0.9932
 1289TIP3    H228063   7.545   6.421   8.770 -0.9972 -2.3238  1.5383
 1290TIP3   OH228064   7.586   0.524   7.616  0.3864  0.3891 -0.4105
 1290TIP3    H128065   7.613   0.517   7.707  0.5605 -0.1692 -0.4998
 1290TIP3    H228066   7.494   0.498   7.616  0.3859  0.3914 -0.3890
 1291TIP3   OH228067   2.646   2.118   9.100 -0.7358  0.1086  0.5793
 1291TIP3    H128068   2.725   2.165   9.125 -0.4077  0.2662 -0.6970
 1291TIP3    H228069   2.575   2.165   9.145  0.0158 -1.2728  3.4297
 1292TIP3   OH228070   6.823   3.672   8.514 -0.2482  0.1367 -0.2524
 1292TIP3    H128071   6.896   3.734   8.518 -0.8587  0.8287  0.5569
 1292TIP3    H228072   6.848   3.603   8.575  0.4379 -0.4361 -1.1634
 1293TIP3   OH228073   5.098   7.401   7.343 -0.7498 -0.3637  0.5379
 1293TIP3    H128074   5.086   7.464   7.414 -0.2849  0.6900 -0.2851
 1293TIP3    H228075   5.112   7.318   7.387  2.9433  0.7466  1.9157
 1294TIP3   OH228076   5.980   4.799   7.513 -0.1517  0.4449  0.2078
 1294TIP3    H128077   5.923   4.727   7.542 -0.2422  0.2277 -0.4942
 1294TIP3    H228078   6.005   4.844   7.594  0.2676 -0.6439  0.6957
 1295TIP3   OH228079   5.695   4.434   8.279  0.2223 -0.0518 -0.1584
 1295TIP3    H128080   5.615   4.397   8.242 -1.6330  1.1135  2.3628
 1295TIP3    H228081   5.726   4.368   8.341  0.3573  0.1201 -0.0409
 1296TIP3   OH228082   6.804   5.805   9.172  0.4368  0.3971 -0.1818
 1296TIP3    H128083   6.825   5.768   9.258  0.1701  1.5190  0.3909
 1296TIP3    H228084   6.809   5.731   9.112 -1.2146 -0.8117  1.0743
 1297TIP3   OH228085   7.442   3.208   7.629  0.6275 -0.1130  0.0066
 1297TIP3    H128086   7.364   3.262   7.641  1.2850  0.8064  0.3288
 1297TIP3    H228087   7.501   3.236   7.700  0.4707 -2.2411  1.0502
 1298TIP3   OH228088   0.422   2.807   8.662  0.3343  0.3055  0.2076
 1298TIP3    H128089   0.336   2.812   8.619  0.1801  1.9094  0.6244
 1298TIP3    H228090   0.422   2.881   8.723  2.5124  1.1283 -0.7039
 1299TIP3   OH228091   4.658   5.668   9.425  0.1020  0.0603 -0.1094
 1299TIP3    H128092   4.697   5.612   9.358  0.8741 -0.8820  1.0838
 1299TIP3    H228093   4.726   5.678   9.491 -0.7043  0.7950  0.6448
 1300TIP3   OH228094   3.618   6.647   9.727 -0.1777 -0.5122 -0.1353
 1300TIP3    H128095   3.552   6.577   9.730  0.4798 -1.1040  0.8560
 1300TIP3    H228096   3.701   6.603   9.739  0.2842  0.3974  0.1259
 1301TIP3   OH228097   6.009   6.786   8.956 -1.0640 -0.4619  0.2773
 1301TIP3    H128098   6.088   6.732   8.954 -0.6015  0.2168 -0.3415
 1301TIP3    H228099   6.031   6.859   9.013 -1.3551 -0.4367  0.3580
 1302TIP3   OH228100   0.817   4.637   8.538 -0.4858 -0.7613 -0.2201
 1302TIP3    H128101   0.849   4.578   8.470 -0.1573  0.1241 -0.8503
 1302TIP3    H228102   0.796   4.580   8.611 -0.9143 -1.7410 -1.0876
 1303TIP3   OH228103   6.666   1.452   7.492  0.0978 -0.7585  0.1759
 1303TIP3    H128104   6.758   1.474   7.480 -0.4280  1.6441  0.0331
 1303TIP3    H228105   6.656   1.447   7.588  0.3315 -0.8306  0.1983
 1304TIP3   OH228106   4.221   5.143   7.900 -0.0607  0.2125  0.3374
 1304TIP3    H128107   4.257   5.146   7.989 -0.4308  0.3535  0.4834
 1304TIP3    H228108   4.293   5.111   7.846 -0.4525 -1.9695  1.0027
 1305TIP3   OH228109   2.401   3.416   7.075  0.2891  0.3664  0.5620
 1305TIP3    H128110   2.353   3.499   7.087  2.2371  1.3165  2.4536
 1305TIP3    H228111   2.482   3.428   7.124  1.0991 -2.3312  0.0406
 1306TIP3   OH228112   7.486   7.113   6.982 -0.2117 -0.7587  0.0612
 1306TIP3    H128113   7.562   7.071   6.942  0.7172  0.6657  0.2740
 1306TIP3    H228114   7.489   7.203   6.950 -1.6891 -0.6149  0.2571
 1307TIP3   OH228115   4.016   7.135   8.915  0.6159  0.5294 -0.0471
 1307TIP3    H128116   3.984   7.196   8.848  1.2597 -0.0221 -0.8739
 1307TIP3    H228117   4.071   7.189   8.971  0.6922  0.8389 -0.4135
 1308TIP3   OH228118   1.527   6.669   7.998 -0.3415  0.5015  0.2158
 1308TIP3    H128119   1.469   6.738   8.030 -0.0805  1.3621 -1.0656
 1308TIP3    H228120   1.609   6.683   8.045  0.8689  3.3123 -2.3317
 1309TIP3   OH228121   5.126   3.338   7.723 -0.4382 -0.1035  0.0091
 1309TIP3    H128122   5.061   3.340   7.653  0.0931  1.1353 -0.4796
 1309TIP3    H228123   5.140   3.430   7.746  1.3068 -0.3097 -0.0792
 1310TIP3   OH228124   7.385   2.619   9.267 -0.0689 -0.0399 -0.1320
 1310TIP3    H128125   7.350   2.668   9.341 -0.5525  0.9492 -0.9867
 1310TIP3    H228126   7.480   2.621   9.280  0.3311  4.3369 -1.9501
 1311TIP3   OH228127   4.030   7.457   8.270  0.0869 -0.8412 -0.0368
 1311TIP3    H128128   4.051   7.364   8.262 -0.4410 -1.0254  0.6215
 1311TIP3    H228129   4.053   7.479   8.360  0.9560 -0.1297 -0.4224
 1312TIP3   OH228130   2.374   3.459   8.737  0.5783 -0.0349  0.0544
 1312TIP3    H128131   2.450   3.477   8.791  1.1319 -2.5579  0.2332
 1312TIP3    H228132   2.301   3.503   8.782  1.4489  0.0093  1.4697
 1313TIP3   OH228133   2.461   1.860   7.222 -0.0749  0.3422 -0.2550
 1313TIP3    H128134   2.530   1.926   7.214  0.7433 -0.3533  0.8701
 1313TIP3    H228135   2.508   1.777   7.232 -1.0914 -0.3636 -1.1592
 1314TIP3   OH228136   1.060   5.760   7.414 -0.2603 -0.0672  0.7231
 1314TIP3    H128137   0.999   5.834   7.416  2.4883  2.4445 -0.1389
 1314TIP3    H228138   1.119   5.776   7.488  0.5089 -1.2868  0.4049
 1315TIP3   OH228139   0.408   4.312   9.251 -0.2401  0.0428  0.0456
 1315TIP3    H128140   0.334   4.343   9.199 -0.2143 -0.0251 -0.0328
 1315TIP3    H228141   0.381   4.326   9.342  0.4413  1.8251 -0.0014
 1316TIP3   OH228142   3.612   6.384   7.913 -0.2000  0.1798  0.0657
 1316TIP3    H128143   3.547   6.337   7.860 -1.4389  0.0254  1.6420
 1316TIP3    H228144   3.696   6.342   7.891 -0.9470 -1.1636 -0.3574
 1317TIP3   OH228145   0.641   2.291   8.051 -0.4105  0.2956  0.7346
 1317TIP3    H128146   0.639   2.210   8.001 -0.7076 -1.1643  2.9923
 1317TIP3    H228147   0.549   2.313   8.066 -0.3390 -0.0469  1.7593
 1318TIP3   OH228148   7.072   4.119   7.360  0.1210 -0.2787  0.1679
 1318TIP3    H128149   7.089   4.042   7.306  1.7730  0.3819 -0.3309
 1318TIP3    H228150   7.041   4.185   7.298 -0.5906 -0.3216  0.4753
 1319TIP3   OH228151   2.677   7.511   8.529  0.3259 -0.1717 -0.0738
 1319TIP3    H128152   2.692   7.594   8.483 -1.1206  0.4065  0.4293
 1319TIP3    H228153   2.597   7.527   8.580 -0.6634 -2.2356 -0.8828
 1320TIP3   OH228154   1.522   2.039   8.935 -0.3994 -0.3177 -0.0799
 1320TIP3    H128155   1.449   1.977   8.936  0.4677 -1.3917 -1.2891
 1320TIP3    H228156   1.518   2.080   8.849 -0.5189  0.8067  0.4430
 1321TIP3   OH228157   0.388   3.695   8.865 -0.6605 -0.1458  0.0327
 1321TIP3    H128158   0.338   3.636   8.920 -0.0765 -2.5388 -1.8124
 1321TIP3    H228159   0.474   3.653   8.856 -0.0748  1.1914 -1.0171
 1322TIP3   OH228160   4.373   2.096   7.349  0.2091 -0.0968  0.2285
 1322TIP3    H128161   4.367   2.177   7.299  2.4716 -0.5486 -0.9011
 1322TIP3    H228162   4.289   2.053   7.334  0.2251  0.4930 -1.9638
 1323TIP3   OH228163   2.316   4.065   7.650 -0.6529 -0.1952 -0.6466
 1323TIP3    H128164   2.305   3.971   7.663  1.5142 -0.7443 -2.2642
 1323TIP3    H228165   2.371   4.072   7.572  1.7674  2.3288  1.1292
 1324TIP3   OH228166   1.019   7.310   9.155  0.0908  0.0091 -0.3634
 1324TIP3    H128167   0.946   7.264   9.195  2.2817 -0.6685  3.2657
 1324TIP3    H228168   1.067   7.242   9.107 -0.0392 -0.1879 -0.2164
 1325TIP3   OH228169   2.513   3.720   9.315 -0.2034 -0.3052 -0.1624
 1325TIP3    H128170   2.478   3.795   9.364  1.2179  0.8864 -0.8928
 1325TIP3    H228171   2.582   3.685   9.372  0.2711 -0.0104 -0.5586
 1326TIP3   OH228172   5.197   1.836   9.410 -0.5265 -0.2003 -0.1504
 1326TIP3    H128173   5.203   1.929   9.388 -0.2796  0.1206  1.1933
 1326TIP3    H228174   5.123   1.804   9.358 -0.2808  0.6116 -1.0308
 1327TIP3   OH228175   0.033   2.396   7.397  0.2147 -0.1021 -0.1266
 1327TIP3    H128176  -0.034   2.363   7.336  0.5448  1.7191 -1.5856
 1327TIP3    H228177   0.014   2.489   7.405  2.9387  0.6570 -1.1740
 1328TIP3   OH228178   6.983   3.250   9.378  0.1804 -0.5605 -0.0725
 1328TIP3    H128179   7.019   3.329   9.338  0.2067 -1.1201 -1.1953
 1328TIP3    H228180   6.892   3.248   9.350  0.0955 -0.7589  0.2129
 1329TIP3   OH228181   1.088   3.035   8.622  0.5340 -0.5669 -0.1907
 1329TIP3    H128182   1.087   2.944   8.591 -0.7704 -0.7165  0.2511
 1329TIP3    H228183   1.051   3.085   8.550  2.9030 -0.1077 -1.1611
 1330TIP3   OH228184   5.317   6.027   7.065  0.0107  0.3201  0.1390
 1330TIP3    H128185   5.403   6.005   7.029  0.6598  0.0465  1.7457
 1330TIP3    H228186   5.269   5.944   7.064 -0.1841  0.4346 -0.5934
 1331TIP3   OH228187   0.348   6.897   7.974  0.6314 -0.1801  0.5117
 1331TIP3    H128188   0.407   6.824   7.991 -0.3753 -0.9549  0.7542
 1331TIP3    H228189   0.289   6.865   7.906 -0.7929 -0.1799  1.6920
 1332TIP3   OH228190   2.378   5.348   8.519 -0.6511 -1.1108  0.6436
 1332TIP3    H128191   2.387   5.415   8.451 -2.4090 -1.2113  0.2604
 1332TIP3    H228192   2.375   5.397   8.601  0.1585 -0.8866  0.5432
 1333TIP3   OH228193   1.896   4.819   7.082 -0.1408  0.1075  0.0557
 1333TIP3    H128194   1.980   4.779   7.103 -0.4573 -0.1659  0.8619
 1333TIP3    H228195   1.833   4.746   7.083 -0.2867  0.1890 -1.2641
 1334TIP3   OH228196   4.951   1.209   8.428  0.7242  0.1536 -0.3128
 1334TIP3    H128197   5.014   1.195   8.499 -0.2519 -1.2244  0.3275
 1334TIP3    H228198   4.985   1.285   8.381  3.4908 -1.1702 -0.6933
 1335TIP3   OH228199   2.649   2.643   8.912  0.1008 -0.0626 -0.9220
 1335TIP3    H128200   2.575   2.663   8.970  0.1424 -0.6432 -0.6598
 1335TIP3    H228201   2.665   2.550   8.925  0.9168  0.0662 -0.9452
 1336TIP3   OH228202   0.900   1.474   7.719  0.3084 -0.1742  0.2023
 1336TIP3    H128203   0.982   1.425   7.726 -0.8420 -2.2785 -0.2266
 1336TIP3    H228204   0.859   1.463   7.805  0.1838  0.3054  0.2023
 1337TIP3   OH228205   5.684   0.308   6.897 -0.2451 -0.0663 -0.4435
 1337TIP3    H128206   5.622   0.379   6.881 -0.8461 -0.1196  1.4150
 1337TIP3    H228207   5.743   0.343   6.964  1.1784 -0.3636 -1.4904
 1338TIP3   OH228208   7.171   0.754   8.347 -0.5749  0.2938  0.0926
 1338TIP3    H128209   7.185   0.784   8.436 -1.0581 -0.2807  0.3718
 1338TIP3    H228210   7.128   0.827   8.303  0.4047  0.8829  0.0947
 1339TIP3   OH228211   2.998   4.181   8.101  0.4206  0.0295  0.5219
 1339TIP3    H128212   2.958   4.253   8.052  1.3611 -0.3694 -0.9075
 1339TIP3    H228213   2.939   4.165   8.174 -1.6923 -0.1172 -1.1452
 1340TIP3   OH228214   6.992   4.957   8.111 -0.4312 -0.1369  0.1896
 1340TIP3    H128215   7.028   4.964   8.022 -1.0921  0.6636 -0.0291
 1340TIP3    H228216   6.899   4.941   8.097 -0.6855  0.8125  0.7289
 1341TIP3   OH228217   1.937   7.191   7.701 -0.1928  0.4371 -0.1315
 1341TIP3    H128218   1.868   7.156   7.646  1.8467  1.1729 -3.4264
 1341TIP3    H228219   2.014   7.138   7.680  1.0093  1.6701  0.9617
 1342TIP3   OH228220   5.413   3.462   9.179  0.1174  0.0506 -0.2063
 1342TIP3    H128221   5.397   3.456   9.085 -2.5913  2.2188  0.0030
 1342TIP3    H228222   5.356   3.396   9.218  0.7499 -0.3963 -0.0075
 1343TIP3   OH228223   3.664   0.286   7.106  0.5016  0.4404  0.1128
 1343TIP3    H128224   3.620   0.364   7.071  0.8691  0.4889 -0.2497
 1343TIP3    H228225   3.609   0.213   7.077  0.0313  0.5726  0.6463
 1344TIP3   OH228226   5.161   2.487   7.570  0.1006 -0.0197 -0.4650
 1344TIP3    H128227   5.126   2.570   7.536 -1.8656 -0.1742  0.9889
 1344TIP3    H228228   5.215   2.453   7.499 -0.4500  1.6543 -1.7720
 1345TIP3   OH228229   7.472   2.915   7.690 -0.5394  0.5727 -0.3821
 1345TIP3    H128230   7.399   2.945   7.635 -0.4434  1.8818  0.1613
 1345TIP3    H228231   7.546   2.968   7.660  0.4062 -1.2577 -1.4379
 1346TIP3   OH228232   1.359   3.098   9.250 -0.2766  0.6013 -0.0633
 1346TIP3    H128233   1.358   3.184   9.209  0.3254  1.1069  0.9517
 1346TIP3    H228234   1.407   3.042   9.189  0.6053  1.3322 -0.0442
 1347TIP3   OH228235   2.307   0.183   8.114  0.7342  0.1689 -0.5174
 1347TIP3    H128236   2.340   0.105   8.068 -1.8734  0.2487 -2.7462
 1347TIP3    H228237   2.384   0.217   8.161  2.8118 -1.7439 -2.2813
 1348TIP3   OH228238   6.662   3.904   8.601 -0.1005 -0.0209  0.6620
 1348TIP3    H128239   6.590   3.913   8.538  0.9156 -0.8016 -0.6489
 1348TIP3    H228240   6.713   3.830   8.569 -0.5557 -1.7145  3.4340
 1349TIP3   OH228241   5.806   6.446   7.024 -0.8503  0.4954  0.3811
 1349TIP3    H128242   5.725   6.396   7.014  0.6449 -2.5741  2.2011
 1349TIP3    H228243   5.777   6.537   7.032 -3.7208  0.2025 -3.5158
 1350TIP3   OH228244   7.317   3.043   8.646  0.0947 -0.1996 -0.1236
 1350TIP3    H128245   7.337   2.996   8.565  2.8354  0.0393  0.3325
 1350TIP3    H228246   7.255   2.986   8.692  2.2005 -2.7879 -0.2159
 1351TIP3   OH228247   1.813   3.264   8.745 -0.2056 -0.4275 -0.3190
 1351TIP3    H128248   1.788   3.176   8.717 -0.1602 -0.4483 -0.2936
 1351TIP3    H228249   1.753   3.284   8.817 -0.0209 -0.5532 -0.1315
 1352TIP3   OH228250   4.486   0.714   7.721  0.6705  0.7212  0.1971
 1352TIP3    H128251   4.500   0.668   7.638 -0.5494  0.6375  0.0183
 1352TIP3    H228252   4.408   0.768   7.705  0.8496  1.2518  1.0707
 1353TIP3   OH228253   7.458   6.263   8.250 -0.2584 -0.0912  0.3301
 1353TIP3    H128254   7.522   6.200   8.216 -1.1674 -0.4446 -0.7632
 1353TIP3    H228255   7.379   6.211   8.264 -0.1807  0.2183  2.2301
 1354TIP3   OH228256   4.411   1.591   8.627 -0.0415  0.3699  0.3800
 1354TIP3    H128257   4.343   1.657   8.615  0.3789  1.0089  1.3719
 1354TIP3    H228258   4.424   1.587   8.722 -0.2813 -1.3832  0.3695
 1355TIP3   OH228259   3.092   0.123   8.253  0.2763 -0.4432  0.0930
 1355TIP3    H128260   2.999   0.137   8.237  0.6989  1.8465 -0.7312
 1355TIP3    H228261   3.103   0.140   8.347  0.2028  1.9250 -0.2641
 1356TIP3   OH228262   5.957   0.946   7.274 -0.0564  0.1846  0.4474
 1356TIP3    H128263   5.966   0.884   7.202 -0.2347  0.5312  0.1254
 1356TIP3    H228264   5.863   0.951   7.291  0.0133 -0.1885  0.9617
 1357TIP3   OH228265   6.456   3.155   7.382 -0.0759  0.3014 -0.2948
 1357TIP3    H128266   6.382   3.196   7.427  0.7747  0.6645  0.8378
 1357TIP3    H228267   6.441   3.172   7.290 -0.3346  2.2152  0.0667
 1358TIP3   OH228268   0.658   4.889   7.325  0.0234  0.3600 -0.7464
 1358TIP3    H128269   0.572   4.923   7.351 -1.2935 -1.8674 -1.9079
 1358TIP3    H228270   0.665   4.910   7.232  0.1913 -0.5209 -0.9374
 1359TIP3   OH228271   4.397   2.334   7.196 -0.4371 -0.0877  0.5188
 1359TIP3    H128272   4.453   2.406   7.224 -1.4968  0.2773  1.8227
 1359TIP3    H228273   4.324   2.376   7.151  0.1834 -0.5402 -0.9609
 1360TIP3   OH228274   4.053   1.126   9.271  0.0950  0.1365 -0.1204
 1360TIP3    H128275   4.026   1.197   9.213 -0.2532  0.0774 -0.0301
 1360TIP3    H228276   3.972   1.096   9.312 -0.0385 -1.5986 -1.5653
 1361TIP3   OH228277   0.178   5.057   9.161  0.2959  0.0197 -0.3497
 1361TIP3    H128278   0.210   5.146   9.143  1.6543 -0.6088 -1.2353
 1361TIP3    H228279   0.203   5.007   9.083  2.1695 -1.7817  1.2812
 1362TIP3   OH228280   6.938   3.132   7.900 -0.7517  0.2721 -0.2532
 1362TIP3    H128281   6.954   3.106   7.990  1.6418  1.1305 -0.3601
 1362TIP3    H228282   6.932   3.227   7.902 -0.3127  0.3308 -1.0333
 1363TIP3   OH228283   2.232   7.336   9.168 -0.3237 -0.0412 -0.0522
 1363TIP3    H128284   2.237   7.391   9.090 -0.9952  0.9458  0.5704
 1363TIP3    H228285   2.146   7.294   9.162 -0.7291  0.6695  0.5346
 1364TIP3   OH228286   5.546   4.031   9.255  0.2844 -0.5531 -0.1010
 1364TIP3    H128287   5.614   3.967   9.234  1.2954  0.4642 -0.0117
 1364TIP3    H228288   5.506   3.999   9.336  0.8642 -0.9989  0.0105
 1365TIP3   OH228289   7.410   1.848   6.792 -0.2847  0.5670 -0.5534
 1365TIP3    H128290   7.506   1.853   6.797 -0.2489  1.1036 -1.5260
 1365TIP3    H228291   7.392   1.755   6.774  0.0707  0.5050 -0.6072
 1366TIP3   OH228292   0.738   6.498   7.049 -0.4221 -0.2883 -0.0094
 1366TIP3    H128293   0.680   6.504   6.973  2.5244 -0.3979 -2.4728
 1366TIP3    H228294   0.738   6.405   7.072 -1.9661 -0.1318  0.7434
 1367TIP3   OH228295   2.658   6.120   8.220  0.2058  0.3418  0.4028
 1367TIP3    H128296   2.633   6.153   8.133 -1.7925  1.5898  1.3675
 1367TIP3    H228297   2.638   6.027   8.217  0.2896  0.3391 -0.5160
 1368TIP3   OH228298   5.731   4.723   9.452 -0.3710  0.0749 -0.5276
 1368TIP3    H128299   5.802   4.727   9.517 -0.4850 -0.6939 -0.3513
 1368TIP3    H228300   5.733   4.633   9.420 -1.9091 -0.2450  0.1970
 1369TIP3   OH228301   0.485   2.573   8.541 -0.2670  0.1807  0.2954
 1369TIP3    H128302   0.468   2.650   8.595 -0.7940 -0.7496  1.5026
 1369TIP3    H228303   0.498   2.502   8.604  0.4843 -0.6721 -0.7832
 1370TIP3   OH228304   0.833   6.264   8.983  0.4425 -0.2529  0.0804
 1370TIP3    H128305   0.882   6.208   9.044  0.1302  0.6090  1.1696
 1370TIP3    H228306   0.750   6.218   8.971  0.5624 -0.5059  0.2052
 1371TIP3   OH228307   1.357   7.185   7.585 -0.2284 -0.1225 -0.0243
 1371TIP3    H128308   1.281   7.188   7.643  0.1290  1.1113  0.4029
 1371TIP3    H228309   1.324   7.216   7.501 -0.2502  0.2131  0.1063
 1372TIP3   OH228310   3.487   1.832   7.502 -0.0460 -0.0989 -0.3686
 1372TIP3    H128311   3.457   1.806   7.415 -0.7585 -0.7841  0.0639
 1372TIP3    H228312   3.424   1.897   7.531 -2.1507 -2.5972  1.1435
 1373TIP3   OH228313   2.449   3.843   8.333 -0.5170 -0.0656  0.1113
 1373TIP3    H128314   2.443   3.884   8.419 -2.2437  0.5526 -0.2661
 1373TIP3    H228315   2.484   3.910   8.276 -2.5179  0.6976 -0.3205
 1374TIP3   OH228316   1.483   1.659   7.726 -0.3449 -0.1126 -0.4785
 1374TIP3    H128317   1.543   1.585   7.720  0.0121  0.1169  0.1548
 1374TIP3    H228318   1.482   1.697   7.638  0.5351 -0.0423 -0.4629
 1375TIP3   OH228319   1.099   6.117   8.880 -0.0982 -0.1487 -0.1492
 1375TIP3    H128320   1.121   6.164   8.960 -0.6219  0.2581 -0.2401
 1375TIP3    H228321   1.178   6.125   8.826 -0.2834  0.9020 -0.2845
 1376TIP3   OH228322   7.539   5.955   7.444  0.0165 -0.2116 -0.7361
 1376TIP3    H128323   7.501   6.038   7.474 -1.0000 -1.0649  0.3929
 1376TIP3    H228324   7.486   5.930   7.368 -1.1345 -0.9451  0.2896
 1377TIP3   OH228325   3.181   4.446   8.384  0.5444  0.5473  0.2785
 1377TIP3    H128326   3.166   4.509   8.455  0.6592  1.7073 -0.6834
 1377TIP3    H228327   3.093   4.416   8.360  0.4713  0.4966  0.6075
 1378TIP3   OH228328   3.955   2.246   8.254 -0.0634 -0.3081  0.1380
 1378TIP3    H128329   3.944   2.234   8.159 -0.3227 -1.0688  0.2649
 1378TIP3    H228330   4.030   2.191   8.277  1.4868  1.6131  0.0075
 1379TIP3   OH228331   1.682   0.081   7.632  0.0763  0.4552 -0.2348
 1379TIP3    H128332   1.740   0.049   7.701 -2.3845 -2.3612  0.7071
 1379TIP3    H228333   1.721   0.047   7.551  0.9859  0.6001  0.1293
 1380TIP3   OH228334   0.248   0.552   7.619  0.5328  0.1444  0.2920
 1380TIP3    H128335   0.217   0.503   7.695  0.8399  0.1819  0.4426
 1380TIP3    H228336   0.343   0.542   7.620  0.7502  1.8599  1.1098
 1381TIP3   OH228337   1.240   3.790   9.337 -0.4213  0.3892  0.2314
 1381TIP3    H128338   1.166   3.739   9.371 -1.3756  0.3058 -1.7990
 1381TIP3    H228339   1.274   3.737   9.265  1.3624  0.6471  0.8508
 1382TIP3   OH228340   6.508   5.278   8.454 -0.0989  0.1143  0.7918
 1382TIP3    H128341   6.538   5.325   8.377 -1.0742 -0.0400  0.3082
 1382TIP3    H228342   6.434   5.225   8.424 -1.5617  1.2829  2.1514
 1383TIP3   OH228343   4.156   1.020   7.289 -0.4868  0.1838 -0.7695
 1383TIP3    H128344   4.222   1.015   7.219 -0.5699  1.3633 -0.9569
 1383TIP3    H228345   4.206   1.049   7.365 -0.6461  0.2899 -0.7066
 1384TIP3   OH228346   2.206   2.827   9.077  0.1191 -0.0280  0.8992
 1384TIP3    H128347   2.162   2.912   9.077 -1.5008 -0.7675 -1.1899
 1384TIP3    H228348   2.195   2.794   9.166 -0.1440  1.4623  1.4558
 1385TIP3   OH228349   7.532   7.296   7.521  0.4655 -0.4047  0.0282
 1385TIP3    H128350   7.548   7.257   7.435  0.0044  1.1409 -0.7856
 1385TIP3    H228351   7.619   7.317   7.555  0.7600 -2.3927  0.6552
 1386TIP3   OH228352   1.637   4.011   7.967  0.2021 -0.1851  0.2477
 1386TIP3    H128353   1.541   4.014   7.971  0.2423  0.8526  0.5373
 1386TIP3    H228354   1.664   4.002   8.059  0.4106  0.7966  0.2939
 1387TIP3   OH228355   4.013   4.047   8.248 -0.3311 -0.3769 -0.3613
 1387TIP3    H128356   4.074   4.037   8.175 -0.2241  2.2028 -0.7193
 1387TIP3    H228357   3.926   4.040   8.207 -0.2639 -0.1451 -0.5505
 1388TIP3   OH228358   2.069   4.738   7.670 -0.3561 -0.1819  0.0472
 1388TIP3    H128359   1.983   4.780   7.679 -0.5209 -0.2603 -1.0238
 1388TIP3    H228360   2.083   4.733   7.575  1.3686  0.9325  0.1962
 1389TIP3   OH228361   4.038   0.878   6.682  0.0666 -0.2796  0.5362
 1389TIP3    H128362   3.953   0.922   6.671  0.3722  0.1889  0.0250
 1389TIP3    H228363   4.019   0.785   6.669 -0.2438 -0.1048 -0.2818
 1390TIP3   OH228364   3.725   7.619   7.893  0.3831 -0.2765  0.2171
 1390TIP3    H128365   3.639   7.643   7.929  0.1318  0.9968 -1.1241
 1390TIP3    H228366   3.786   7.629   7.966 -0.4810 -0.3832  0.9701
 1391TIP3   OH228367   0.260   1.251   6.721 -0.5835  0.5288 -0.3187
 1391TIP3    H128368   0.266   1.280   6.812 -1.7873  0.2503 -0.1305
 1391TIP3    H228369   0.169   1.222   6.711 -0.9654  2.1615 -2.0913
 1392TIP3   OH228370   2.390   5.843   8.130  0.6061 -0.2924 -0.3516
 1392TIP3    H128371   2.392   5.793   8.049  0.9453  1.9812 -1.8614
 1392TIP3    H228372   2.482   5.856   8.154  0.5194 -0.4721  0.1075
 1393TIP3   OH228373   1.277   1.489   8.206  0.1213  0.2908 -0.0549
 1393TIP3    H128374   1.344   1.544   8.166  0.1264  0.8139  0.6493
 1393TIP3    H228375   1.299   1.489   8.299 -0.0518 -0.6701 -0.0089
 1394TIP3   OH228376   6.933   4.970   9.685  0.3889  0.1537  0.4622
 1394TIP3    H128377   6.977   4.921   9.755 -0.2019  0.2804  0.9357
 1394TIP3    H228378   6.873   4.906   9.646 -0.7348  0.5932  1.3965
 1395TIP3   OH228379   7.092   5.297   8.661  0.3562  0.1962 -0.3029
 1395TIP3    H128380   7.123   5.332   8.745 -0.1321 -1.7186  0.7394
 1395TIP3    H228381   7.003   5.268   8.679  0.4497 -0.7780 -1.3372
 1396TIP3   OH228382   1.530   5.347   9.293  0.8309 -0.6010  0.4673
 1396TIP3    H128383   1.615   5.360   9.335  0.8652 -1.7779  0.8052
 1396TIP3    H228384   1.467   5.379   9.357  0.8796 -2.4540  1.5189
 1397TIP3   OH228385   6.149   5.974   8.699 -0.0501  0.1202 -0.1500
 1397TIP3    H128386   6.139   5.963   8.794  0.1110 -0.6818 -0.2225
 1397TIP3    H228387   6.131   6.067   8.684  0.1531  0.3043  0.6967
 1398TIP3   OH228388   1.824   6.631   7.741 -0.1217  0.0970 -0.6754
 1398TIP3    H128389   1.914   6.603   7.758  0.4267  1.7662 -0.6781
 1398TIP3    H228390   1.771   6.555   7.764  1.3576 -1.4322 -1.9839
 1399TIP3   OH228391   1.658   5.902   7.303  0.6278  0.0769  0.4622
 1399TIP3    H128392   1.651   5.954   7.383 -0.2801  0.5844  0.0643
 1399TIP3    H228393   1.650   5.811   7.332  3.9525 -0.0405  1.3960
 1400TIP3   OH228394   4.482   0.215   8.093  0.2428  0.0326 -0.6836
 1400TIP3    H128395   4.422   0.142   8.078  1.3552 -0.9462 -0.4843
 1400TIP3    H228396   4.499   0.215   8.187  0.1324  0.6568 -0.6536
 1401TIP3   OH228397   6.870   6.072   7.716 -0.0948  0.5399 -0.7378
 1401TIP3    H128398   6.775   6.074   7.704 -0.2683  1.8735  0.5130
 1401TIP3    H228399   6.889   5.987   7.754 -0.9197  0.6223 -0.1342
 1402TIP3   OH228400   0.344   3.565   9.227 -0.1908  0.0235  0.0054
 1402TIP3    H128401   0.428   3.540   9.265  0.5688  2.0133 -0.2582
 1402TIP3    H228402   0.343   3.522   9.141 -0.8785 -2.5472  1.2057
 1403TIP3   OH228403   7.113   2.865   8.747  0.4480  0.0366 -0.3428
 1403TIP3    H128404   7.038   2.874   8.688  0.0800  0.8263  0.2245
 1403TIP3    H228405   7.092   2.788   8.800 -0.5832  0.9632  0.6542
 1404TIP3   OH228406   3.192   3.868   6.973 -0.0165 -0.1254  0.5450
 1404TIP3    H128407   3.210   3.855   7.067  0.1087 -3.2381  0.1861
 1404TIP3    H228408   3.097   3.869   6.967 -0.0265  0.2801  0.7030
 1405TIP3   OH228409   0.400   7.317   9.403 -0.5375 -0.0365  0.2878
 1405TIP3    H128410   0.412   7.284   9.314 -2.2497 -0.5123  0.2016
 1405TIP3    H228411   0.422   7.242   9.459  2.1368  0.7227  0.3974
 1406TIP3   OH228412   4.337   6.686   7.094  0.0144  0.2573  0.1914
 1406TIP3    H128413   4.256   6.638   7.110  0.7442 -0.6703  1.2228
 1406TIP3    H228414   4.363   6.660   7.006 -1.0933  1.0167 -0.3819
 1407TIP3   OH228415   1.314   5.355   8.461  0.2539 -0.2292 -0.4760
 1407TIP3    H128416   1.399   5.348   8.504  0.0609 -1.2204 -0.2123
 1407TIP3    H228417   1.250   5.341   8.531 -0.1262  0.2681 -0.7126
 1408TIP3   OH228418   5.486   6.775   8.663 -0.3981  0.5671  0.1616
 1408TIP3    H128419   5.580   6.785   8.651 -0.2495 -0.2225  0.6065
 1408TIP3    H228420   5.476   6.753   8.756 -0.8783 -0.9217 -0.2082
 1409TIP3   OH228421   5.185   0.119   8.978 -0.5736  0.3680  0.2128
 1409TIP3    H128422   5.127   0.059   8.932  1.1369 -1.6755  0.5652
 1409TIP3    H228423   5.139   0.203   8.976 -2.9401 -0.8569 -0.5553
 1410TIP3   OH228424   0.781   2.593   9.041 -0.1376  0.4913  0.1628
 1410TIP3    H128425   0.833   2.522   9.004  0.1559 -0.3939  2.1334
 1410TIP3    H228426   0.825   2.615   9.123 -1.2046  1.7829  0.4350
 1411TIP3   OH228427   4.733   2.660   7.650  0.1876 -0.0973  0.3685
 1411TIP3    H128428   4.810   2.690   7.699  0.0609 -0.3104  0.7008
 1411TIP3    H228429   4.731   2.716   7.572  0.5721  0.0341  0.4482
 1412TIP3   OH228430   7.036   3.671   7.545 -0.2683 -0.1330  0.4684
 1412TIP3    H128431   7.067   3.616   7.617 -0.2929 -1.0780 -0.2404
 1412TIP3    H228432   7.057   3.623   7.466  1.1863  1.6057 -0.2647
 1413TIP3   OH228433   7.218   1.521   8.995  0.3227  0.6415 -0.2655
 1413TIP3    H128434   7.125   1.530   9.019 -0.5509 -1.8659 -2.3106
 1413TIP3    H228435   7.225   1.565   8.910  0.4836 -0.8924 -1.0775
 1414TIP3   OH228436   3.377   5.905   8.000  0.4938 -0.2495  0.3927
 1414TIP3    H128437   3.391   5.997   8.023 -0.9079 -0.5140  2.5764
 1414TIP3    H228438   3.294   5.904   7.952  0.3735 -0.4158  0.6050
 1415TIP3   OH228439   5.584   1.546   7.171  0.0111  0.2103 -0.5740
 1415TIP3    H128440   5.639   1.498   7.234  0.4576  0.7609 -0.5423
 1415TIP3    H228441   5.502   1.498   7.171  0.4440 -0.5536 -0.5249
 1416TIP3   OH228442   0.974   3.222   9.670 -0.0282 -0.0554 -0.5163
 1416TIP3    H128443   1.069   3.227   9.678  0.0730 -0.9897 -1.0060
 1416TIP3    H228444   0.960   3.195   9.579 -0.7005 -1.3747 -0.0455
 1417TIP3   OH228445   1.358   5.241   7.975  0.1415  0.4677  0.1576
 1417TIP3    H128446   1.292   5.189   7.929 -0.4823  1.9276 -0.6660
 1417TIP3    H228447   1.422   5.265   7.908  0.3359  0.8923  0.4844
 1418TIP3   OH228448   2.156   3.684   8.720  0.4199 -0.2337 -0.3303
 1418TIP3    H128449   2.084   3.628   8.692 -1.0613 -0.1196  2.8600
 1418TIP3    H228450   2.166   3.747   8.648 -1.3202 -1.4477 -1.7251
 1419TIP3   OH228451   2.013   2.189   8.623  0.3726 -0.6839  0.3843
 1419TIP3    H128452   2.000   2.141   8.705  2.0259 -1.0924  0.4463
 1419TIP3    H228453   2.039   2.277   8.652  0.9193 -0.8173  0.3132
 1420TIP3   OH228454   1.416   2.178   8.143 -0.8060  0.3211 -0.6716
 1420TIP3    H128455   1.467   2.197   8.065 -0.2169  2.2546  0.1236
 1420TIP3    H228456   1.481   2.158   8.210 -1.2377 -0.0585 -0.3596
 1421TIP3   OH228457   1.013   4.511   7.654  0.3429  0.1059  0.5609
 1421TIP3    H128458   0.955   4.457   7.601  1.7564 -2.0732  1.0838
 1421TIP3    H228459   0.982   4.498   7.744  0.6661  0.1851  0.6844
 1422TIP3   OH228460   7.153   6.943   8.941  0.3950 -0.7790 -0.0695
 1422TIP3    H128461   7.119   6.968   8.855  0.7592 -0.0224 -0.0094
 1422TIP3    H228462   7.101   6.867   8.966 -1.9475  0.8812  0.4452
 1423TIP3   OH228463   6.159   2.640   9.031  0.2784 -0.2181 -0.0536
 1423TIP3    H128464   6.177   2.703   8.960 -1.4039  1.7992  1.1972
 1423TIP3    H228465   6.064   2.632   9.033  0.2078  0.4617  2.4890
 1424TIP3   OH228466   4.572   5.152   9.516 -0.7343 -0.1501 -0.1688
 1424TIP3    H128467   4.598   5.183   9.430  1.0366  0.0118  0.3931
 1424TIP3    H228468   4.516   5.076   9.498  1.5295 -1.6364 -1.4773
 1425TIP3   OH228469   2.507   2.850   7.566  0.0705 -0.2067 -0.1612
 1425TIP3    H128470   2.568   2.916   7.598  0.6838 -0.6776 -0.3500
 1425TIP3    H228471   2.496   2.871   7.473 -0.7590  0.4184  0.0679
 1426TIP3   OH228472   7.309   7.334   8.391  0.1013  0.1657 -0.4694
 1426TIP3    H128473   7.360   7.330   8.472 -0.8040 -1.4127  0.0699
 1426TIP3    H228474   7.352   7.271   8.332  0.8776  1.4484 -1.3265
 1427TIP3   OH228475   2.593   0.242   7.449 -0.0107 -0.4304 -0.7839
 1427TIP3    H128476   2.538   0.200   7.383 -1.4365  0.3542 -0.1366
 1427TIP3    H228477   2.625   0.321   7.406 -1.2727  0.2946 -0.4491
 1428TIP3   OH228478   5.317   2.682   7.724 -0.6374  0.4051 -0.5737
 1428TIP3    H128479   5.248   2.715   7.782  0.6722  0.4256  1.0284
 1428TIP3    H228480   5.283   2.599   7.691 -0.2408 -1.2282  2.7027
 1429TIP3   OH228481   4.325   1.790   7.105 -0.4194 -0.4731  0.1279
 1429TIP3    H128482   4.287   1.866   7.148  0.1384  0.6208 -1.2563
 1429TIP3    H228483   4.418   1.811   7.098 -0.1516 -1.5569  0.2632
 1430TIP3   OH228484   5.165   1.559   7.212  0.8577 -0.0987  0.2462
 1430TIP3    H128485   5.083   1.581   7.168 -0.3192 -1.6596  1.5001
 1430TIP3    H228486   5.155   1.467   7.237  1.2670  0.6669  3.9420
 1431TIP3   OH228487   3.663   4.532   8.479  0.4391 -0.3314 -0.1032
 1431TIP3    H128488   3.593   4.557   8.539  0.8026  0.2675  0.0763
 1431TIP3    H228489   3.618   4.489   8.406 -0.1253  0.1381 -0.0347
 1432TIP3   OH228490   3.374   0.395   8.359 -0.2061  0.0806  0.4942
 1432TIP3    H128491   3.434   0.423   8.429 -0.4579  0.7061  0.4645
 1432TIP3    H228492   3.305   0.348   8.405 -0.7202  1.0658  0.7508
 1433TIP3   OH228493   4.253   2.021   8.239  0.1431 -0.1678  0.8075
 1433TIP3    H128494   4.271   1.987   8.151 -1.7581  0.1937  0.2360
 1433TIP3    H228495   4.303   2.102   8.244  0.0323 -0.0260 -0.0843
 1434TIP3   OH228496   2.543   7.121   6.875 -0.2618 -1.1082  0.3295
 1434TIP3    H128497   2.572   7.127   6.784  1.7340  4.0150  0.9563
 1434TIP3    H228498   2.618   7.083   6.921 -0.0526 -0.9096  0.1621
 1435TIP3   OH228499   1.257   7.477   8.813 -0.1532 -1.0575  0.0668
 1435TIP3    H128500   1.265   7.490   8.908 -0.4284 -0.0426 -0.0318
 1435TIP3    H228501   1.172   7.514   8.791  0.8532  0.8582 -0.8969
 1436TIP3   OH228502   5.353   6.051   9.131 -0.6642 -0.2487  0.0890
 1436TIP3    H128503   5.347   5.964   9.091  0.7020  0.5728 -2.0603
 1436TIP3    H228504   5.266   6.066   9.168 -1.5738 -1.6867 -1.3100
 1437TIP3   OH228505   1.516   4.104   8.706 -0.4183  0.4779 -0.5099
 1437TIP3    H128506   1.549   4.085   8.794  0.7156  1.0540 -0.7977
 1437TIP3    H228507   1.432   4.148   8.721  0.6701  2.3773  0.3718
 1438TIP3   OH228508   5.951   2.289   6.815 -0.1760 -0.0169 -0.1078
 1438TIP3    H128509   5.999   2.206   6.810 -0.1442  0.0661 -1.3429
 1438TIP3    H228510   5.964   2.318   6.905  1.9985 -0.0413 -0.3743
 1439TIP3   OH228511   7.052   6.893   7.711 -0.0852  1.0417  0.2867
 1439TIP3    H128512   6.967   6.851   7.724  0.2411  0.6330  1.2621
 1439TIP3    H228513   7.040   6.983   7.742 -0.9266  1.8919 -2.2869
 1440TIP3   OH228514   1.516   2.681   7.793 -0.0710 -0.2690 -0.2815
 1440TIP3    H128515   1.437   2.719   7.755  0.5348  0.8499 -0.4851
 1440TIP3    H228516   1.580   2.753   7.792  0.2391 -0.4327  2.0696
 1441TIP3   OH228517   7.138   5.418   7.738  1.3338 -0.1517 -0.8887
 1441TIP3    H128518   7.098   5.455   7.659  0.5934 -0.7568 -0.7959
 1441TIP3    H228519   7.211   5.478   7.757 -0.8374  2.3019  0.2397
 1442TIP3   OH228520   5.387   4.424   8.685  0.1018  0.0851 -0.0354
 1442TIP3    H128521   5.367   4.484   8.613 -0.0767  0.8127  0.6126
 1442TIP3    H228522   5.437   4.476   8.747 -0.0586 -0.4383  0.5402
 1443TIP3   OH228523   0.808   1.531   7.272 -0.2449 -0.4366  0.3548
 1443TIP3    H128524   0.861   1.527   7.192 -1.9694 -2.1818 -0.7797
 1443TIP3    H228525   0.743   1.599   7.253  0.3405  0.3146  0.9699
 1444TIP3   OH228526   6.002   4.786   7.252  0.7425 -0.0059  0.2242
 1444TIP3    H128527   5.927   4.841   7.230 -0.2830 -0.8123  1.5220
 1444TIP3    H228528   6.005   4.787   7.347  0.8575 -1.9307  0.2840
 1445TIP3   OH228529   5.620   7.364   9.414  0.0955 -0.4025 -0.0577
 1445TIP3    H128530   5.629   7.277   9.376 -2.2016 -0.2836 -1.0521
 1445TIP3    H228531   5.700   7.410   9.389  0.8721 -1.8835 -0.4168
 1446TIP3   OH228532   5.678   3.609   8.912 -0.6347 -0.1929  0.3075
 1446TIP3    H128533   5.598   3.635   8.958 -1.4889 -2.1030 -0.0046
 1446TIP3    H228534   5.749   3.645   8.965 -1.6564  3.0820 -0.3368
 1447TIP3   OH228535   4.590   2.943   9.249  0.6952  0.6344  0.2697
 1447TIP3    H128536   4.609   3.007   9.180 -1.3667  1.6827  0.5739
 1447TIP3    H228537   4.656   2.875   9.237 -0.9009 -0.5133 -4.3377
 1448TIP3   OH228538   6.631   5.105   8.614 -0.2125  0.3071 -0.4031
 1448TIP3    H128539   6.591   5.023   8.586  2.5483 -0.8660 -1.2955
 1448TIP3    H228540   6.588   5.173   8.561 -0.2933 -0.9817 -2.0621
 1449TIP3   OH228541   2.985   6.728   7.784  0.0784  0.1357 -0.4129
 1449TIP3    H128542   3.005   6.747   7.692 -1.9937  1.4669 -0.6436
 1449TIP3    H228543   3.038   6.790   7.834 -1.6595  2.1569 -0.9225
 1450TIP3   OH228544   2.928   0.570   8.430  0.1644 -0.1399  0.3854
 1450TIP3    H128545   3.022   0.567   8.447  0.1098 -0.8594  0.5650
 1450TIP3    H228546   2.909   0.489   8.383 -0.4151 -0.1257  0.5895
 1451TIP3   OH228547   1.127   3.117   8.971  0.4197  0.5403 -0.0927
 1451TIP3    H128548   1.107   3.161   9.053 -2.0249 -1.3274  0.4331
 1451TIP3    H228549   1.143   3.026   8.996  2.9157  0.5462 -1.3884
 1452TIP3   OH228550   0.210   0.928   9.214 -0.2451 -0.0555  0.1506
 1452TIP3    H128551   0.200   0.950   9.122  2.0332  1.2422  0.1402
 1452TIP3    H228552   0.305   0.927   9.228 -0.5239  2.0805  2.9931
 1453TIP3   OH228553   2.813   6.282   7.792 -0.0085 -0.0330 -0.3307
 1453TIP3    H128554   2.884   6.335   7.828  0.2177  1.6825 -3.0442
 1453TIP3    H228555   2.734   6.335   7.806 -0.1784 -0.1725 -0.7449
 1454TIP3   OH228556   2.705   0.521   9.329 -0.5786 -0.4507  0.0370
 1454TIP3    H128557   2.655   0.600   9.308  0.9178  0.0107 -2.0846
 1454TIP3    H228558   2.676   0.456   9.265 -0.1463 -0.9224  0.3100
 1455TIP3   OH228559   1.681   4.961   8.557  0.0633 -0.1608 -0.7442
 1455TIP3    H128560   1.616   4.960   8.487 -1.7184 -0.8415  0.8483
 1455TIP3    H228561   1.736   4.884   8.540  1.7917  1.4578 -3.1910
 1456TIP3   OH228562   0.712   1.876   7.864  0.1525 -0.2556 -0.6130
 1456TIP3    H128563   0.642   1.921   7.911 -0.3032 -0.6246 -0.9354
 1456TIP3    H228564   0.695   1.783   7.879  0.2410 -0.3626 -1.1762
 1457TIP3   OH228565   1.944   2.502   8.948  0.7645  0.2178  0.2286
 1457TIP3    H128566   1.922   2.587   8.986 -0.4717  0.3837 -0.7941
 1457TIP3    H228567   1.964   2.522   8.856  1.9734 -0.4050  0.3365
 1458TIP3   OH228568   6.308   3.736   9.088  0.0274  0.1195 -0.2442
 1458TIP3    H128569   6.303   3.670   9.157  0.2136  0.2089 -0.1438
 1458TIP3    H228570   6.238   3.713   9.027  0.3780 -0.4398 -0.4466
 1459TIP3   OH228571   4.310   0.756   7.488  1.0105 -0.1924 -0.0357
 1459TIP3    H128572   4.283   0.817   7.556 -1.0524  0.5194 -1.4066
 1459TIP3    H228573   4.272   0.672   7.514 -2.2651  0.6541 -1.5941
 1460TIP3   OH228574   1.825   3.382   7.819 -0.5184 -0.3228  0.0483
 1460TIP3    H128575   1.892   3.407   7.755 -0.0596 -0.6702  0.3843
 1460TIP3    H228576   1.756   3.447   7.809 -0.8910 -0.9223 -1.4618
 1461TIP3   OH228577   5.549   7.485   7.881  0.4106 -0.0810 -0.2942
 1461TIP3    H128578   5.592   7.564   7.849  0.8244 -0.6778 -1.2280
 1461TIP3    H228579   5.459   7.512   7.897  0.3180  0.3575 -1.4825
 1462TIP3   OH228580   2.156   0.971   6.592 -0.2768  0.2788 -0.2504
 1462TIP3    H128581   2.242   1.002   6.564 -0.2241 -0.8794 -1.4790
 1462TIP3    H228582   2.094   1.032   6.552 -0.1670 -0.9922 -2.5206
 1463TIP3   OH228583   5.497   2.611   9.225  0.1406  0.3233 -0.2158
 1463TIP3    H128584   5.511   2.526   9.183 -1.8883 -0.4839  0.6033
 1463TIP3    H228585   5.462   2.589   9.312 -1.7567  1.9528 -0.4916
 1464TIP3   OH228586   1.788   4.936   8.224 -0.0102 -0.4506  0.7848
 1464TIP3    H128587   1.747   5.019   8.246  0.0547 -0.0384 -0.5591
 1464TIP3    H228588   1.764   4.921   8.132  0.2968 -1.7257  0.8907
 1465TIP3   OH228589   0.860   5.205   7.638  0.2839 -0.3680  0.2615
 1465TIP3    H128590   0.875   5.166   7.724  0.9832 -2.0746 -0.5779
 1465TIP3    H228591   0.765   5.199   7.625  0.0587  0.7564  1.2721
 1466TIP3   OH228592   3.995   2.301   9.293 -0.2805  0.7260  0.2738
 1466TIP3    H128593   4.086   2.289   9.320  0.6105  0.5367 -2.4874
 1466TIP3    H228594   3.981   2.396   9.302  0.6862  0.9760 -0.5755
 1467TIP3   OH228595   2.356   2.672   8.153 -0.2324 -0.1947 -0.2710
 1467TIP3    H128596   2.425   2.738   8.155  0.8003 -1.2637 -0.1813
 1467TIP3    H228597   2.349   2.641   8.243 -0.0181 -0.9041 -0.4902
 1468TIP3   OH228598   0.716   7.507   8.212  0.2001 -0.3457 -0.0983
 1468TIP3    H128599   0.762   7.499   8.295  1.2880 -1.8315 -0.7809
 1468TIP3    H228600   0.784   7.532   8.149 -0.4813  0.1496 -0.6567
 1469TIP3   OH228601   5.761   1.402   9.177 -0.1868  0.0130  0.0796
 1469TIP3    H128602   5.748   1.311   9.148 -0.2518  0.0415  0.0181
 1469TIP3    H228603   5.830   1.435   9.119  1.1847 -0.5687  1.3298
 1470TIP3   OH228604   0.092   6.538   7.268 -0.0205 -0.6090 -0.0157
 1470TIP3    H128605   0.133   6.619   7.298 -0.6313  0.3673 -1.6678
 1470TIP3    H228606   0.164   6.490   7.226 -0.2493  0.6405 -2.0016
 1471TIP3   OH228607   6.357   3.840   9.381 -0.5288  0.0662 -0.0413
 1471TIP3    H128608   6.420   3.771   9.402  0.0751  0.6155 -0.0356
 1471TIP3    H228609   6.307   3.805   9.307  2.0476  0.9481 -2.3636
 1472TIP3   OH228610   2.758   0.463   7.440 -0.0425 -0.3049  0.0706
 1472TIP3    H128611   2.762   0.458   7.345  1.0980 -1.8348  0.1577
 1472TIP3    H228612   2.847   0.444   7.469 -0.3875  0.0438  1.4594
 1473TIP3   OH228613   4.354   6.892   9.353  0.3900 -0.0341 -0.2715
 1473TIP3    H128614   4.406   6.819   9.321  0.3535  0.1747 -0.8251
 1473TIP3    H228615   4.263   6.866   9.338  0.3588 -0.1135  0.0597
 1474TIP3   OH228616   5.302   7.432   7.580 -0.3033 -0.3270  0.4252
 1474TIP3    H128617   5.295   7.504   7.642 -2.1315 -1.5663  1.7500
 1474TIP3    H228618   5.289   7.353   7.633 -1.9977 -1.4279 -1.5051
 1475TIP3   OH228619   7.402   1.397   8.673  0.0661  0.0148 -0.7172
 1475TIP3    H128620   7.338   1.406   8.602  0.2244 -0.8901 -0.9895
 1475TIP3    H228621   7.388   1.308   8.706 -1.0513  0.8965  1.4067
 1476TIP3   OH228622   1.902   1.544   6.964  0.3182  0.2677  0.4814
 1476TIP3    H128623   1.977   1.489   6.988 -0.0201  0.6519  2.6300
 1476TIP3    H228624   1.940   1.631   6.952  0.2513  0.4781  1.6408
 1477TIP3   OH228625   2.373   3.162   7.607 -0.1833  0.0389 -0.9698
 1477TIP3    H128626   2.343   3.212   7.683 -0.1532 -0.6877 -0.4764
 1477TIP3    H228627   2.400   3.077   7.643  3.2484  0.8664 -1.1935
 1478TIP3   OH228628   1.095   4.291   8.506  0.4421  0.4850 -0.9125
 1478TIP3    H128629   1.151   4.226   8.549 -1.5874  0.0508  1.2368
 1478TIP3    H228630   1.145   4.373   8.513  1.9519 -0.3508 -1.4653
 1479TIP3   OH228631   4.787   1.966   7.345 -0.3841 -1.0415 -0.0480
 1479TIP3    H128632   4.737   2.025   7.288  1.0330 -0.3867 -0.6771
 1479TIP3    H228633   4.875   1.965   7.307  0.0440 -2.3022  0.9031
 1480TIP3   OH228634   7.609   4.547   9.121  0.1512  0.3981 -0.3204
 1480TIP3    H128635   7.577   4.635   9.141  1.1313  0.5946  0.4339
 1480TIP3    H228636   7.548   4.515   9.054 -1.3772  0.9056  0.7591
 1481TIP3   OH228637   7.539   4.376   7.827  0.5696 -0.5941 -0.0175
 1481TIP3    H128638   7.468   4.343   7.883  0.5834 -1.1947 -0.3427
 1481TIP3    H228639   7.609   4.399   7.888  0.4799 -0.9746  0.2332
 1482TIP3   OH228640   0.766   6.200   7.760  0.6586 -0.4245  0.6182
 1482TIP3    H128641   0.770   6.221   7.667  0.2648 -2.4210  0.0922
 1482TIP3    H228642   0.849   6.155   7.778  0.6754 -0.1718  1.1914
 1483TIP3   OH228643   3.241   3.128   9.140  0.0596  0.3426 -0.0492
 1483TIP3    H128644   3.174   3.094   9.081  1.0141 -0.3854 -0.7567
 1483TIP3    H228645   3.323   3.092   9.106  0.7709  0.9033  1.0111
 1484TIP3   OH228646   4.475   5.103   7.251  0.1262  0.4092  0.1132
 1484TIP3    H128647   4.567   5.098   7.277  0.5558  0.9321 -1.2078
 1484TIP3    H228648   4.467   5.038   7.181 -0.5057  0.3809  0.2119
 1485TIP3   OH228649   7.402   4.058   9.372  0.5534 -0.0387  0.2534
 1485TIP3    H128650   7.341   4.079   9.302 -1.1851 -0.1780  1.6759
 1485TIP3    H228651   7.462   4.133   9.375 -0.4620  0.8064 -0.1904
 1486TIP3   OH228652   4.204   7.279   7.671 -0.7588  0.0689  0.8462
 1486TIP3    H128653   4.197   7.204   7.730 -0.6122 -0.4477  0.2260
 1486TIP3    H228654   4.144   7.259   7.600  0.5718 -0.3279 -0.2155
 1487TIP3   OH228655   5.802   7.325   8.549  0.0839  0.1712  0.5291
 1487TIP3    H128656   5.810   7.236   8.513  0.4390  0.1337  0.6969
 1487TIP3    H228657   5.735   7.318   8.616 -1.5700  0.5230 -1.0144
 1488TIP3   OH228658   6.197   2.113   8.869 -0.4578 -0.2460 -0.0566
 1488TIP3    H128659   6.233   2.024   8.864 -1.0540 -0.4784 -0.4137
 1488TIP3    H228660   6.159   2.118   8.957 -2.0444 -1.0105 -0.6560
 1489TIP3   OH228661   1.875   4.496   8.214 -0.2139 -0.3500 -0.2690
 1489TIP3    H128662   1.960   4.526   8.183 -0.2664 -0.5182 -0.5752
 1489TIP3    H228663   1.877   4.401   8.201 -0.0883 -0.4752  0.5963
 1490TIP3   OH228664   6.608   0.814   8.092  0.3690 -0.4881  0.5320
 1490TIP3    H128665   6.555   0.859   8.159 -0.5059 -0.0822 -0.4082
 1490TIP3    H228666   6.679   0.773   8.142  1.0193  1.6440  1.4944
 1491TIP3   OH228667   4.353   2.231   9.064 -0.0847 -0.0408  0.0155
 1491TIP3    H128668   4.442   2.214   9.033 -0.0366  0.3222 -0.0443
 1491TIP3    H228669   4.321   2.302   9.009 -0.5352 -0.3953 -0.1903
 1492TIP3   OH228670   0.626   2.777   9.714  0.0526  0.1270  0.0860
 1492TIP3    H128671   0.537   2.802   9.688  1.1596  1.5642 -2.7535
 1492TIP3    H228672   0.637   2.815   9.801 -1.9086  0.3875  0.2668
 1493TIP3   OH228673   4.488   3.414   7.930  1.3743  0.1821  0.2365
 1493TIP3    H128674   4.576   3.386   7.954  1.5244  1.0284  0.6683
 1493TIP3    H228675   4.470   3.491   7.984  1.0400  1.0651 -1.0759
 1494TIP3   OH228676   7.274   4.182   7.553 -0.5866 -0.1934  0.1641
 1494TIP3    H128677   7.322   4.212   7.476 -1.7857 -0.9741 -0.9180
 1494TIP3    H228678   7.203   4.129   7.518  0.5187 -3.0353  1.9022
 1495TIP3   OH228679   7.095   1.421   7.073 -0.4589 -0.1975 -0.6153
 1495TIP3    H128680   7.001   1.424   7.093 -0.3614  1.0621 -0.2656
 1495TIP3    H228681   7.138   1.422   7.159 -0.1043  1.0594 -0.7936
 1496TIP3   OH228682   1.202   4.924   6.875 -0.1485 -0.0372  0.6980
 1496TIP3    H128683   1.133   4.964   6.928  0.0772  0.1840  0.8243
 1496TIP3    H228684   1.155   4.865   6.816 -0.4193 -0.1196  0.9935
 1497TIP3   OH228685   0.914   5.537   9.754  0.4251 -0.0974 -0.2557
 1497TIP3    H128686   0.828   5.499   9.773 -0.3271  1.2983 -0.7639
 1497TIP3    H228687   0.930   5.598   9.825  0.6059  0.2823 -0.6186
 1498TIP3   OH228688   6.382   4.343   9.475 -0.3333  0.4692  0.0276
 1498TIP3    H128689   6.469   4.344   9.514 -0.8247  1.6933  1.1865
 1498TIP3    H228690   6.348   4.256   9.494  0.5336  0.0683 -0.2165
 1499TIP3   OH228691   1.317   0.400   6.946  0.4540  0.0994  0.4061
 1499TIP3    H128692   1.396   0.437   6.907  1.0459 -0.9263  0.6020
 1499TIP3    H228693   1.246   0.457   6.916  1.0240 -0.0293 -1.2530
 1500TIP3   OH228694   5.756   0.228   8.575  0.0935 -0.5675 -0.2415
 1500TIP3    H128695   5.714   0.182   8.648  0.4929  0.3716  0.6120
 1500TIP3    H228696   5.846   0.193   8.574  0.0048 -0.7912 -0.4774
 1501TIP3   OH228697   7.084   5.720   7.883 -0.1116  0.2541 -0.1878
 1501TIP3    H128698   7.128   5.763   7.957 -0.2768 -0.7265  0.5064
 1501TIP3    H228699   7.155   5.700   7.821  0.0345  1.0443 -0.2861
 1502TIP3   OH228700   7.067   4.956   9.184 -0.1072 -0.1420  0.4884
 1502TIP3    H128701   7.110   4.932   9.266  0.4016 -0.2337  0.1997
 1502TIP3    H228702   7.129   5.016   9.142  0.0874 -0.8620 -0.2826
 1503TIP3   OH228703   5.899   4.307   9.397  0.1930 -0.2683  0.4618
 1503TIP3    H128704   5.844   4.240   9.439  2.1432 -1.2917  1.4975
 1503TIP3    H228705   5.987   4.271   9.400  1.2982  2.2882  0.8742
 1504TIP3   OH228706   6.702   2.064   8.974 -0.0630 -0.0268  0.1748
 1504TIP3    H128707   6.622   2.115   8.963 -0.8207 -1.1996 -0.0006
 1504TIP3    H228708   6.676   1.974   8.951  1.1948 -0.5035  0.5360
 1505TIP3   OH228709   0.095   7.491   9.524 -0.5614 -0.2070 -0.0777
 1505TIP3    H128710   0.067   7.425   9.461 -1.4766 -0.9134  1.0329
 1505TIP3    H228711   0.086   7.575   9.477 -1.8441 -0.6542 -0.6702
 1506TIP3   OH228712   3.789   3.343   7.099 -0.2397  0.2713  0.3077
 1506TIP3    H128713   3.744   3.426   7.113  0.2272  0.8484 -1.3682
 1506TIP3    H228714   3.874   3.353   7.140  0.4934  1.3172 -1.3694
 1507TIP3   OH228715   7.372   0.192   6.665 -0.1293  0.1057  0.2493
 1507TIP3    H128716   7.456   0.200   6.619 -0.5824  1.1853 -0.4384
 1507TIP3    H228717   7.371   0.102   6.698  1.6363  0.3013  0.9632
 1508TIP3   OH228718   5.463   0.413   8.337 -0.0876 -0.6048 -0.0035
 1508TIP3    H128719   5.373   0.445   8.341 -0.7300 -2.1805 -0.8190
 1508TIP3    H228720   5.505   0.468   8.271 -0.9285 -0.8987 -0.8048
 1509TIP3   OH228721   0.573   6.437   6.820  0.7694  0.3069  0.4064
 1509TIP3    H128722   0.636   6.448   6.750 -0.1442  1.4922 -0.2815
 1509TIP3    H228723   0.496   6.399   6.778  0.2506  0.9245  0.7709
 1510TIP3   OH228724   6.685   3.831   9.517 -0.2149  0.0343 -0.6385
 1510TIP3    H128725   6.760   3.887   9.498 -1.0413  1.2692 -0.3535
 1510TIP3    H228726   6.639   3.876   9.587 -0.9865 -0.9423 -0.5042
 1511TIP3   OH228727   3.299   0.880   8.847 -0.0250 -0.1195  0.1059
 1511TIP3    H128728   3.249   0.847   8.773  0.2922  0.0099 -0.1652
 1511TIP3    H228729   3.363   0.812   8.866  1.3549  0.7620 -1.1428
 1512TIP3   OH228730   3.506   0.613   9.352  0.1456  0.6001 -0.1557
 1512TIP3    H128731   3.487   0.519   9.353  0.1254  0.5929 -0.6983
 1512TIP3    H228732   3.472   0.646   9.435  0.3520  0.0871  0.1287
 1513TIP3   OH228733   7.363   5.832   7.712 -0.2784  0.4036  0.0146
 1513TIP3    H128734   7.371   5.745   7.749 -2.2930 -0.6221 -1.7235
 1513TIP3    H228735   7.440   5.842   7.656  0.0078 -0.2047  0.2953
 1514TIP3   OH228736   4.993   2.971   9.623  0.0312  0.0852 -0.4223
 1514TIP3    H128737   4.977   2.991   9.531  1.7957  1.0498 -0.5580
 1514TIP3    H228738   4.907   2.977   9.664 -0.8065 -0.4559 -2.0075
 1515TIP3   OH228739   1.675   5.438   7.271  0.1227 -0.1022  0.1387
 1515TIP3    H128740   1.673   5.501   7.343 -0.4866 -0.3074  0.3123
 1515TIP3    H228741   1.606   5.469   7.211 -2.1407 -2.0748  1.5291
 1516TIP3   OH228742   0.654   4.231   8.977 -0.0375 -0.8507  0.1238
 1516TIP3    H128743   0.626   4.301   8.917  0.3130  1.3366  2.3510
 1516TIP3    H228744   0.587   4.231   9.045 -1.0096 -4.0309 -0.6631
 1517TIP3   OH228745   6.111   5.157   9.660  0.5680 -0.3983 -0.2239
 1517TIP3    H128746   6.045   5.222   9.637  1.1241  0.0434 -0.5939
 1517TIP3    H228747   6.186   5.178   9.605  1.4977 -0.0750  1.1219
 1518TIP3   OH228748   2.832   0.116   8.071 -0.1643  0.5702 -0.0742
 1518TIP3    H128749   2.745   0.151   8.054 -0.1607  0.9511  0.6688
 1518TIP3    H228750   2.860   0.080   7.987 -2.2877 -2.3380  0.3131
 1519TIP3   OH228751   4.254   1.374   9.035  0.0750  0.1574  0.6389
 1519TIP3    H128752   4.271   1.469   9.032 -0.6029  0.3461  1.9217
 1519TIP3    H228753   4.170   1.367   9.081  0.7129 -1.1400  1.6276
 1520TIP3   OH228754   7.023   6.232   8.396  0.2542  0.1350 -0.5296
 1520TIP3    H128755   6.979   6.246   8.312 -1.5041 -3.7793 -0.4956
 1520TIP3    H228756   6.952   6.213   8.458  1.6176  1.1047  1.4405
 1521TIP3   OH228757   6.326   3.964   8.765  0.6371  0.5043 -0.2779
 1521TIP3    H128758   6.359   3.936   8.679 -0.0818 -0.7684 -0.1716
 1521TIP3    H228759   6.389   3.929   8.827 -0.7947 -1.9342 -0.0732
 1522TIP3   OH228760   6.840   6.959   8.337  0.6732  0.1310 -0.6513
 1522TIP3    H128761   6.796   7.034   8.378  1.1099  0.2884 -0.4634
 1522TIP3    H228762   6.835   6.889   8.403  1.2713  0.3484 -0.3622
 1523TIP3   OH228763   2.591   1.076   7.711  0.4251  0.0466 -0.2826
 1523TIP3    H128764   2.680   1.109   7.706  0.1385  0.9867  0.4730
 1523TIP3    H228765   2.538   1.141   7.664  0.2544 -1.0297 -1.6288
 1524TIP3   OH228766   3.611   0.908   8.127  0.5343 -0.4916  0.8593
 1524TIP3    H128767   3.687   0.903   8.185 -0.2690 -0.5731  1.9377
 1524TIP3    H228768   3.563   0.826   8.143 -0.9774  0.5435  1.9455
 1525TIP3   OH228769   0.491   3.310   9.793 -0.1309 -0.0106 -0.3225
 1525TIP3    H128770   0.583   3.328   9.815  0.6530 -1.6727 -1.9752
 1525TIP3    H228771   0.463   3.387   9.745 -0.0447  1.0833  1.3046
 1526TIP3   OH228772   0.478   3.810   9.199  0.1005 -1.4863  0.0371
 1526TIP3    H128773   0.561   3.766   9.218 -0.4183 -2.1486  0.8621
 1526TIP3    H228774   0.412   3.746   9.224 -0.6699 -0.6320  0.2228
 1527TIP3   OH228775   7.297   4.049   8.485 -0.2916  0.7013 -0.1173
 1527TIP3    H128776   7.203   4.065   8.492  0.0417  2.4081  0.8258
 1527TIP3    H228777   7.304   3.954   8.473 -2.1402  0.5942 -0.7109
 1528TIP3   OH228778   4.256   2.928   8.500  0.1469 -0.2162  0.5907
 1528TIP3    H128779   4.328   2.991   8.499 -0.7459  0.8374 -0.2631
 1528TIP3    H228780   4.269   2.874   8.422 -1.2050  1.4844 -0.9072
 1529TIP3   OH228781   4.548   5.592   9.770 -0.1765  0.4416  0.0036
 1529TIP3    H128782   4.598   5.523   9.812 -1.2047  1.0721  2.3963
 1529TIP3    H228783   4.518   5.553   9.687  0.5286 -1.4321  0.5879
 1530TIP3   OH228784   2.276   0.905   8.528  0.4858  0.2793  0.5371
 1530TIP3    H128785   2.252   0.815   8.549 -1.3517  0.6140 -0.0115
 1530TIP3    H228786   2.342   0.896   8.459  1.2340 -0.6455  1.3440
 1531TIP3   OH228787   2.708   3.941   7.493  0.2548 -0.0467  0.4375
 1531TIP3    H128788   2.708   3.846   7.478 -0.1574 -0.0171  0.2303
 1531TIP3    H228789   2.709   3.978   7.405 -1.7004  0.1343  0.4644
 1532TIP3   OH228790   4.416   3.978   9.392 -0.3313  0.2598 -0.0502
 1532TIP3    H128791   4.418   3.947   9.483  0.0687 -0.3786 -0.2760
 1532TIP3    H228792   4.508   3.988   9.368 -0.3862 -1.0844 -0.8951
 1533TIP3   OH228793   4.040   4.257   8.634  0.1809 -0.0110  0.1308
 1533TIP3    H128794   4.084   4.332   8.676 -0.4053 -0.0761  0.8787
 1533TIP3    H228795   4.091   4.241   8.555  1.1891  0.2613  0.7014
 1534TIP3   OH228796   1.697   1.967   8.480  0.0429  0.3326  0.3518
 1534TIP3    H128797   1.703   1.964   8.575  0.5880  0.3686  0.3218
 1534TIP3    H228798   1.786   1.950   8.450 -0.0496  0.7086 -0.1436
 1535TIP3   OH228799   1.671   5.503   8.969 -0.2256  0.4816  0.3588
 1535TIP3    H128800   1.661   5.534   9.059  2.1911  0.0432  0.8483
 1535TIP3    H228801   1.613   5.559   8.918 -2.5321  0.0182  2.2776
 1536TIP3   OH228802   6.700   0.146   7.690  0.0040  0.3207 -0.4433
 1536TIP3    H128803   6.710   0.142   7.785 -0.7758  1.1931 -0.3171
 1536TIP3    H228804   6.789   0.141   7.656  0.4054  1.4555  0.3974
 1537TIP3   OH228805   7.112   3.509   8.725  0.3745 -0.8099 -0.2732
 1537TIP3    H128806   7.159   3.514   8.642 -0.7195  0.9134 -0.8350
 1537TIP3    H228807   7.074   3.421   8.726 -0.7155 -0.4043 -2.2626
 1538TIP3   OH228808   0.766   6.616   9.149 -0.4154  0.5922 -0.0242
 1538TIP3    H128809   0.696   6.669   9.188 -1.1536 -0.0433 -0.4644
 1538TIP3    H228810   0.732   6.526   9.152  1.3539 -0.0850  1.9436
 1539TIP3   OH228811   6.982   4.559   8.887 -0.0049  0.2392  0.1117
 1539TIP3    H128812   6.991   4.477   8.838  0.1695 -0.5866  1.4785
 1539TIP3    H228813   7.060   4.564   8.941  0.0402  1.3782 -0.0255
 1540TIP3   OH228814   1.343   2.945   8.315  0.2090  0.2701  0.6798
 1540TIP3    H128815   1.343   2.876   8.247 -0.1349  0.4753  0.4670
 1540TIP3    H228816   1.420   2.926   8.368 -0.1524 -0.5714  0.9145
 1541TIP3   OH228817   6.994   2.173   8.253 -0.1926  0.1333  0.5000
 1541TIP3    H128818   7.044   2.091   8.253 -0.6985 -0.1886  1.5297
 1541TIP3    H228819   7.023   2.218   8.174  1.4852 -0.1855  0.8979
 1542TIP3   OH228820   0.684   5.180   6.565  0.0409  0.3952  0.4033
 1542TIP3    H128821   0.594   5.208   6.545 -0.1718  0.7585  1.8226
 1542TIP3    H228822   0.725   5.172   6.479 -1.5866 -0.6124 -0.3346
 1543TIP3   OH228823   4.958   1.522   9.064  0.2074 -0.0262  0.1877
 1543TIP3    H128824   4.889   1.527   8.998  0.4971 -0.3919 -0.1520
 1543TIP3    H228825   5.039   1.514   9.013  0.3217 -1.7111  0.5657
 1544TIP3   OH228826   6.174   4.003   8.423  0.3562  0.3131 -1.1096
 1544TIP3    H128827   6.118   4.046   8.358 -0.9269  0.9688  0.3627
 1544TIP3    H228828   6.115   3.947   8.473  1.0918  0.5643  0.1063
 1545TIP3   OH228829   1.347   2.690   8.517  0.2867  0.3967 -0.3534
 1545TIP3    H128830   1.366   2.607   8.474  0.3101  0.7412 -1.0082
 1545TIP3    H228831   1.284   2.667   8.586  1.3191 -0.3711  0.3535
 1546TIP3   OH228832   4.721   6.820   8.055  0.2460 -0.1510  0.0571
 1546TIP3    H128833   4.744   6.853   7.968 -1.5557 -0.2318 -0.4953
 1546TIP3    H228834   4.636   6.861   8.074 -1.2659 -3.0511  0.0826
 1547TIP3   OH228835   2.104   6.558   7.688 -0.5898  0.4172 -0.2239
 1547TIP3    H128836   2.096   6.495   7.759 -0.4586  1.2530  0.5505
 1547TIP3    H228837   2.175   6.524   7.633  1.6085  1.3860  1.8195
 1548TIP3   OH228838   0.364   2.949   7.605  0.2713  0.0876  0.2616
 1548TIP3    H128839   0.418   2.941   7.684 -0.9470  0.0021  1.1038
 1548TIP3    H228840   0.278   2.974   7.637  0.3019  2.2984 -1.2178
 1549TIP3   OH228841   5.150   2.851   7.008 -0.0753 -0.6371 -0.5532
 1549TIP3    H128842   5.065   2.819   7.038 -0.0702  1.4484  2.0055
 1549TIP3    H228843   5.129   2.931   6.959  0.4085  0.3874  0.8627
 1550TIP3   OH228844   4.497   7.044   6.663 -0.3047 -0.2141 -0.2506
 1550TIP3    H128845   4.481   6.960   6.707  1.6330 -0.7622 -0.5056
 1550TIP3    H228846   4.519   7.019   6.573  1.4525  0.4513 -0.0360
 1551TIP3   OH228847   2.140   0.081   7.718  0.2256  0.2495 -0.4260
 1551TIP3    H128848   2.185   0.089   7.634  0.0587  0.5470 -0.4879
 1551TIP3    H228849   2.175   0.153   7.772 -0.5776  0.8412 -0.6627
 1552TIP3   OH228850   6.651   5.995   7.561  0.0471  0.6637 -0.7501
 1552TIP3    H128851   6.657   5.995   7.466 -0.8967 -0.5689 -0.8376
 1552TIP3    H228852   6.571   6.045   7.580 -2.5408 -3.0060 -0.9377
 1553TIP3   OH228853   0.918   7.476   7.285 -0.1242 -0.0687  0.5017
 1553TIP3    H128854   0.981   7.415   7.247  0.6107  0.4299  0.8999
 1553TIP3    H228855   0.879   7.520   7.210  0.0451 -0.3349  0.2561
 1554TIP3   OH228856   4.215   0.651   8.096 -1.0470 -0.4382 -0.7529
 1554TIP3    H128857   4.169   0.673   8.015 -1.6456 -0.5834 -0.4562
 1554TIP3    H228858   4.308   0.650   8.071 -1.1458  0.5564 -1.1970
 1555TIP3   OH228859   3.985   5.575   7.066 -0.3960  0.2279 -0.4076
 1555TIP3    H128860   4.064   5.580   7.119 -1.4320 -2.0753  1.5780
 1555TIP3    H228861   3.986   5.486   7.030 -2.0735  0.0989 -0.2346
 1556TIP3   OH228862   3.702   6.310   7.422  0.5586  0.0572  0.1239
 1556TIP3    H128863   3.645   6.332   7.349  0.5422  2.1889  0.7220
 1556TIP3    H228864   3.789   6.300   7.383  0.5126  0.9516 -0.2202
 1557TIP3   OH228865   0.350   2.499   8.069  0.2298 -0.1817 -0.2350
 1557TIP3    H128866   0.367   2.487   8.163 -0.6279  1.2523  0.1293
 1557TIP3    H228867   0.434   2.526   8.033  0.5061 -0.4872  0.1595
 1558TIP3   OH228868   3.214   1.306   8.032  0.0435  0.3106  0.0618
 1558TIP3    H128869   3.257   1.223   8.054 -2.2626 -1.1369 -0.6415
 1558TIP3    H228870   3.155   1.323   8.105  1.1529  1.9018  0.6611
 1559TIP3   OH228871   0.220   1.268   8.468  0.1428  0.0135 -0.1842
 1559TIP3    H128872   0.125   1.273   8.472  0.0688 -1.4496  0.6391
 1559TIP3    H228873   0.239   1.175   8.472  1.6766  0.3514  1.7696
 1560TIP3   OH228874   6.046   6.811   8.645  0.2699  0.0343 -0.4833
 1560TIP3    H128875   6.122   6.837   8.593  1.1631 -0.1255  0.6894
 1560TIP3    H228876   5.973   6.862   8.608  1.1218  0.8863 -1.0515
 1561TIP3   OH228877   6.878   1.126   8.511 -0.6230  0.5362 -0.5830
 1561TIP3    H128878   6.882   1.217   8.538 -0.0904  0.1396  0.7599
 1561TIP3    H228879   6.823   1.083   8.577  0.5467 -0.4225 -0.1716
 1562TIP3   OH228880   4.107   3.106   7.870  0.3637 -0.0743  0.1333
 1562TIP3    H128881   4.086   3.199   7.874 -0.2068 -0.2016  0.2207
 1562TIP3    H228882   4.086   3.073   7.958  1.0356 -0.1896  0.2564
 1563TIP3   OH228883   2.434   2.105   8.826 -0.4368 -0.2873  0.5728
 1563TIP3    H128884   2.405   2.058   8.748  1.1858  1.1881 -1.0336
 1563TIP3    H228885   2.463   2.037   8.886 -0.5327 -1.4255 -0.6232
 1564TIP3   OH228886   2.157   4.654   9.537 -0.4670 -0.6014  0.4251
 1564TIP3    H128887   2.084   4.708   9.564 -0.5975  0.2935 -1.5533
 1564TIP3    H228888   2.234   4.710   9.548 -0.5327 -0.1985 -1.0603
 1565TIP3   OH228889   0.306   0.977   8.177  0.3267  0.2611  0.1233
 1565TIP3    H128890   0.241   1.036   8.137  0.4767  0.1098 -0.3504
 1565TIP3    H228891   0.383   1.032   8.189  0.5310  0.1217 -0.4974
 1566TIP3   OH228892   1.914   6.414   8.830 -0.3620 -0.2892 -0.0002
 1566TIP3    H128893   1.897   6.321   8.845  0.3793 -0.4753 -0.2671
 1566TIP3    H228894   1.973   6.416   8.755 -2.1770  0.5135 -1.5093
 1567TIP3   OH228895   7.217   6.991   8.510 -0.3599 -0.4405 -0.0075
 1567TIP3    H128896   7.263   6.939   8.576  1.1691  0.3842 -0.3862
 1567TIP3    H228897   7.285   7.044   8.469 -2.0173  3.3447  1.6475
 1568TIP3   OH228898   2.733   2.909   7.397  0.2598 -0.4597 -0.3997
 1568TIP3    H128899   2.818   2.954   7.394  0.0278 -0.0106 -0.2852
 1568TIP3    H228900   2.669   2.978   7.380 -0.2844 -0.2153  2.2356
 1569TIP3   OH228901   0.866   5.219   8.626 -0.0407 -0.5643  0.1256
 1569TIP3    H128902   0.797   5.267   8.581  0.6390  0.3454  0.0399
 1569TIP3    H228903   0.838   5.216   8.717 -1.0580 -1.7687 -0.2025
 1570TIP3   OH228904   1.380   2.102   9.525  0.4089 -0.9139  0.4499
 1570TIP3    H128905   1.357   2.186   9.564  0.6327 -0.5469 -0.2050
 1570TIP3    H228906   1.319   2.091   9.452  0.2945 -1.3854  0.6103
 1571TIP3   OH228907   0.952   0.805   7.560 -0.5367 -0.4552  0.3137
 1571TIP3    H128908   0.915   0.790   7.473 -0.0243  0.9226 -0.1624
 1571TIP3    H228909   0.979   0.717   7.589  0.9327 -0.7604 -1.6941
 1572TIP3   OH228910   4.779   5.067   7.623 -0.6022 -0.2625  0.3865
 1572TIP3    H128911   4.807   5.011   7.551 -0.4952  1.2071 -0.7706
 1572TIP3    H228912   4.684   5.060   7.625 -0.9774  2.2085 -2.1954
 1573TIP3   OH228913   4.722   1.086   7.243 -0.7423 -0.5972  0.0231
 1573TIP3    H128914   4.677   1.147   7.301 -0.1697 -0.6675  0.5495
 1573TIP3    H228915   4.763   1.141   7.176  0.9907 -0.2443  1.3057
 1574TIP3   OH228916   0.366   4.156   8.510 -0.0947  0.3704  0.3617
 1574TIP3    H128917   0.438   4.093   8.519  0.5659  0.6011 -2.3006
 1574TIP3    H228918   0.293   4.105   8.475 -0.8328  0.4015  1.7902
 1575TIP3   OH228919   2.992   1.917   8.670 -0.0340 -0.1147  0.2544
 1575TIP3    H128920   2.946   1.918   8.754  1.0931 -1.0160  0.9172
 1575TIP3    H228921   3.065   1.857   8.684  1.3908  1.3186 -0.7343
 1576TIP3   OH228922   5.976   4.270   8.367 -0.0690  0.0141 -0.4635
 1576TIP3    H128923   6.068   4.269   8.393 -0.1263  0.9511 -0.1937
 1576TIP3    H228924   5.928   4.245   8.445 -0.1660  1.7017  0.0645
 1577TIP3   OH228925   4.301   2.719   7.081 -0.2099  0.4345  0.0714
 1577TIP3    H128926   4.264   2.634   7.056 -1.7759  1.4935 -1.4849
 1577TIP3    H228927   4.230   2.763   7.128  0.5242  0.9702  0.7086
 1578TIP3   OH228928   3.979   1.300   7.484  0.3537 -0.4915  0.3855
 1578TIP3    H128929   3.915   1.231   7.504 -2.7432  1.3478 -2.1082
 1578TIP3    H228930   3.950   1.376   7.534  3.4329 -0.6775  2.7225
 1579TIP3   OH228931   4.947   7.548   7.010  0.0103  0.4502 -0.3296
 1579TIP3    H128932   4.969   7.458   7.033 -1.1149  0.4877  1.0007
 1579TIP3    H228933   4.860   7.542   6.969  0.7055  0.7433 -1.9234
 1580TIP3   OH228934   4.023   6.471   7.698 -0.2176 -0.1754  0.1128
 1580TIP3    H128935   4.099   6.515   7.735 -0.7125  0.9746 -0.2037
 1580TIP3    H228936   3.951   6.532   7.711 -1.1665 -1.4021  0.7266
 1581TIP3   OH228937   7.279   6.396   7.478 -0.2197  0.4641 -0.6437
 1581TIP3    H128938   7.316   6.480   7.449  0.1139  0.4763 -0.2007
 1581TIP3    H228939   7.262   6.349   7.396  1.8375  0.0160 -0.8840
 1582TIP3   OH228940   1.435   6.706   9.049  0.3778  0.5369  0.1891
 1582TIP3    H128941   1.492   6.772   9.010 -0.6408  0.5971 -1.2645
 1582TIP3    H228942   1.380   6.676   8.977 -0.0903 -0.9372  1.1237
 1583TIP3   OH228943   4.936   0.347   8.324  0.0959 -0.2910  0.7844
 1583TIP3    H128944   4.885   0.293   8.263 -0.0936  0.2795  0.4301
 1583TIP3    H228945   4.963   0.286   8.393  0.5060 -1.0062  0.0183
 1584TIP3   OH228946   0.141   7.446   8.617  0.3828  0.3352 -0.2116
 1584TIP3    H128947   0.232   7.447   8.646  0.6779  1.2561 -1.0942
 1584TIP3    H228948   0.138   7.509   8.544 -0.2551 -1.9798 -2.3205
 1585TIP3   OH228949   5.894   1.246   8.297 -0.8906  0.0145  0.2933
 1585TIP3    H128950   5.872   1.190   8.372 -4.0702  0.8726  0.1260
 1585TIP3    H228951   5.813   1.253   8.248 -0.0125  2.9519 -0.9106
 1586TIP3   OH228952   2.917   4.372   8.384  0.6615  0.0717 -0.4189
 1586TIP3    H128953   2.894   4.281   8.368  0.7711  0.4177 -3.1387
 1586TIP3    H228954   2.837   4.421   8.362  1.4866  0.7717 -2.0365
 1587TIP3   OH228955   0.510   3.185   9.532 -0.0337  0.3051  0.1025
 1587TIP3    H128956   0.510   3.211   9.624 -1.2810 -2.0083  0.8688
 1587TIP3    H228957   0.577   3.117   9.526  0.2368  0.6331 -0.7793
 1588TIP3   OH228958   2.900   2.992   7.911 -0.1308 -0.2304  0.1903
 1588TIP3    H128959   2.868   2.966   7.997  0.5683 -0.6498  0.3291
 1588TIP3    H228960   2.903   2.911   7.860  1.9365 -0.4552  0.5874
 1589TIP3   OH228961   7.617   4.917   7.587  0.0645  0.0853  0.1782
 1589TIP3    H128962   7.560   4.862   7.535  1.7901  0.0470 -1.8174
 1589TIP3    H228963   7.629   4.996   7.535  0.5148  0.7912  1.3058
 1590TIP3   OH228964   1.345   1.891   8.149  0.0888 -0.2493  0.3471
 1590TIP3    H128965   1.285   1.963   8.134 -1.0760 -1.4532 -1.2141
 1590TIP3    H228966   1.425   1.916   8.102 -0.4562 -0.1370 -0.5464
 1591TIP3   OH228967   7.163   7.174   7.546 -0.0181 -0.5254 -0.2161
 1591TIP3    H128968   7.193   7.128   7.468 -0.4524 -0.0960 -0.6437
 1591TIP3    H228969   7.228   7.153   7.613 -0.0599 -1.5364 -0.4705
 1592TIP3   OH228970   2.166   6.088   8.784 -0.3247 -0.1264 -0.1439
 1592TIP3    H128971   2.222   6.053   8.853  0.1129 -1.3754 -1.1035
 1592TIP3    H228972   2.185   6.182   8.784 -1.2637  0.1501  2.2528
 1593TIP3   OH228973   5.645   2.542   8.704  0.4336 -0.5345 -0.2876
 1593TIP3    H128974   5.604   2.536   8.790 -1.3561 -0.6865 -1.0975
 1593TIP3    H228975   5.738   2.533   8.721 -0.0217 -3.2092  1.3998
 1594TIP3   OH228976   6.880   1.307   9.165  0.1082  0.1035 -0.5861
 1594TIP3    H128977   6.948   1.254   9.206  1.6975  0.0844 -3.0557
 1594TIP3    H228978   6.861   1.263   9.083  1.1665  2.9767 -2.5483
 1595TIP3   OH228979   4.502   7.104   8.795 -0.7393  0.7588  0.5482
 1595TIP3    H128980   4.568   7.075   8.732 -1.5872 -1.7083  0.6548
 1595TIP3    H228981   4.418   7.088   8.751 -1.3604 -1.0601  2.2008
 1596TIP3   OH228982   3.144   0.751   7.483 -0.4046 -0.2668 -0.2230
 1596TIP3    H128983   3.212   0.794   7.533 -0.1129 -1.3429  0.3460
 1596TIP3    H228984   3.177   0.749   7.393  0.2898 -0.7090  0.0330
 1597TIP3   OH228985   0.635   0.386   8.808  0.1546  0.0293  0.2162
 1597TIP3    H128986   0.727   0.412   8.805 -0.0593  0.7847 -2.7708
 1597TIP3    H228987   0.633   0.301   8.765 -0.4661 -0.4192  1.0983
 1598TIP3   OH228988   2.664   4.724   7.584 -0.4380 -0.0730  0.3515
 1598TIP3    H128989   2.581   4.742   7.629 -1.4050 -1.1182 -0.9308
 1598TIP3    H228990   2.650   4.640   7.541  0.9923  0.1674 -0.6505
 1599TIP3   OH228991   3.868   4.660   8.311 -0.1034 -0.3038 -0.3838
 1599TIP3    H128992   3.888   4.596   8.380  0.4304  1.2251  0.9379
 1599TIP3    H228993   3.801   4.618   8.258 -0.1106 -1.7680  0.7271
 1600TIP3   OH228994   0.811   3.702   8.632  0.2265 -0.1497 -0.5048
 1600TIP3    H128995   0.902   3.726   8.647  0.7623 -1.6757 -1.0543
 1600TIP3    H228996   0.760   3.769   8.678  1.6260  0.0649  0.8119
 1601TIP3   OH228997   4.488   2.624   8.705 -0.2133  0.1304 -0.9094
 1601TIP3    H128998   4.544   2.573   8.763 -1.1964 -0.3777 -0.3768
 1601TIP3    H228999   4.524   2.712   8.708  0.3803 -0.1261 -0.3564
 1602TIP3   OH229000   6.425   6.372   8.933 -0.0031 -0.1358 -0.1418
 1602TIP3    H129001   6.481   6.391   8.858  0.0760 -0.0120 -0.0512
 1602TIP3    H229002   6.403   6.458   8.969 -0.2684 -0.1826 -0.1902
 1603TIP3   OH229003   0.284   4.871   7.158  0.4451  0.7742  0.1407
 1603TIP3    H129004   0.378   4.882   7.173  0.4369  1.6424 -0.3489
 1603TIP3    H229005   0.274   4.884   7.064 -0.2968  1.8610  0.3512
 1604TIP3   OH229006   0.481   3.098   6.374  0.5716  0.0871  0.1797
 1604TIP3    H129007   0.440   3.108   6.460  2.0281 -0.2776  0.9557
 1604TIP3    H229008   0.558   3.154   6.378  2.3153 -2.1597  0.2604
 1605TIP3   OH229009   6.638   1.387   7.763  0.5316  0.0277 -0.0453
 1605TIP3    H129010   6.686   1.453   7.814  0.8372  0.0156 -0.3178
 1605TIP3    H229011   6.598   1.331   7.830 -1.0277  1.3876  0.2326
 1606TIP3   OH229012   0.531   6.884   7.715 -0.6708  0.0262 -0.1649
 1606TIP3    H129013   0.538   6.963   7.768  0.6358  0.1446 -0.4802
 1606TIP3    H229014   0.496   6.818   7.775 -1.6087  0.7759  0.1460
 1607TIP3   OH229015   2.304   4.393   7.595  0.4814  0.0884  0.3167
 1607TIP3    H129016   2.354   4.473   7.582 -0.5868  0.6955 -0.2144
 1607TIP3    H229017   2.351   4.326   7.545  0.2841  0.8446 -0.9141
 1608TIP3   OH229018   7.402   4.205   7.981  0.2378 -0.5298 -0.2150
 1608TIP3    H129019   7.353   4.197   8.063  0.8007 -0.3496  0.1516
 1608TIP3    H229020   7.490   4.172   8.002  0.6134  0.2388 -0.5240
 1609TIP3   OH229021   3.857   6.609   9.387 -0.2213  0.4775 -0.3510
 1609TIP3    H129022   3.935   6.617   9.443 -0.0998  0.0286 -0.4549
 1609TIP3    H229023   3.867   6.524   9.344 -1.0904  0.1360  0.1167
 1610TIP3   OH229024   7.017   1.261   8.723 -0.4406 -0.3007 -0.1918
 1610TIP3    H129025   7.056   1.186   8.767 -1.5484 -0.0242  1.3245
 1610TIP3    H229026   6.937   1.279   8.772 -0.1154  1.9856 -0.4030
 1611TIP3   OH229027   7.536   2.271   7.143 -0.4111 -0.0945 -0.0940
 1611TIP3    H129028   7.579   2.350   7.110 -0.3681  0.2951  0.8821
 1611TIP3    H229029   7.545   2.208   7.071  0.6193  0.3992 -0.4162
 1612TIP3   OH229030   6.375   5.201   8.796  0.1472  0.4605  0.4153
 1612TIP3    H129031   6.303   5.182   8.736  1.5300 -1.4442 -0.7515
 1612TIP3    H229032   6.418   5.278   8.758 -0.1427  0.4498  0.0555
 1613TIP3   OH229033   0.213   2.307   7.006  0.5982  0.3912 -0.4385
 1613TIP3    H129034   0.281   2.342   6.948  1.9823  1.0880  1.4918
 1613TIP3    H229035   0.143   2.372   7.003  0.3105  0.0456 -1.8676
 1614TIP3   OH229036   6.006   5.436   7.878 -0.3512 -0.1421  0.0177
 1614TIP3    H129037   6.056   5.367   7.834  0.2579  0.1985  0.1730
 1614TIP3    H229038   6.033   5.432   7.969  0.9647  1.3964 -0.2691
 1615TIP3   OH229039   5.669   6.775   9.667  0.3357 -0.3667  0.3934
 1615TIP3    H129040   5.647   6.725   9.745  1.3535 -0.2772  0.7421
 1615TIP3    H229041   5.725   6.716   9.616 -0.0664 -0.3080 -0.1356
 1616TIP3   OH229042   5.277   3.912   9.254  0.0925 -0.5280  0.1049
 1616TIP3    H129043   5.279   4.006   9.233 -0.0818 -0.3293  0.9623
 1616TIP3    H229044   5.339   3.873   9.192  0.4119  0.2004 -0.0465
 1617TIP3   OH229045   2.987   0.869   9.063 -0.2919  0.0407  0.5193
 1617TIP3    H129046   2.934   0.948   9.070 -0.3077  0.1359 -0.4902
 1617TIP3    H229047   2.924   0.798   9.052 -0.3561  0.4947 -4.2461
 1618TIP3   OH229048   0.239   4.667   7.980 -0.1951 -0.2743 -0.1427
 1618TIP3    H129049   0.242   4.617   8.061 -1.2927  0.4659  0.3861
 1618TIP3    H229050   0.228   4.602   7.911 -0.9531 -0.8061  0.4663
 1619TIP3   OH229051   3.461   3.322   8.590  0.2392 -0.2765 -0.3111
 1619TIP3    H129052   3.461   3.352   8.681  0.2442 -1.4473  0.0851
 1619TIP3    H229053   3.552   3.326   8.563  0.5148 -1.6993  0.3487
 1620TIP3   OH229054   7.529   7.673   8.192  0.6062 -0.3347  0.1487
 1620TIP3    H129055   7.553   7.766   8.183  1.5869 -0.5242  0.6661
 1620TIP3    H229056   7.569   7.631   8.115 -1.5713 -0.0454 -1.2241
 1621TIP3   OH229057   5.588   3.812   7.482 -0.0172  0.0564  0.9393
 1621TIP3    H129058   5.605   3.843   7.394  0.0446 -1.3921  0.4141
 1621TIP3    H229059   5.495   3.830   7.497 -0.0208  0.3244  0.5885
 1622TIP3   OH229060   3.030   6.737   7.494 -0.1454 -0.0457 -0.2762
 1622TIP3    H129061   2.981   6.790   7.431  1.0282 -0.7927 -1.8615
 1622TIP3    H229062   3.083   6.678   7.441  1.2721 -0.3688  1.4073
 1623TIP3   OH229063   7.656   0.553   8.161  0.4313  0.0354  0.4279
 1623TIP3    H129064   7.583   0.599   8.201 -0.3859 -1.2874  0.5152
 1623TIP3    H229065   7.734   0.591   8.202 -0.3316 -0.6704  2.6775
 1624TIP3   OH229066   0.346   0.889   7.668  0.1162 -0.1893  0.2199
 1624TIP3    H129067   0.269   0.861   7.617  0.9554 -0.5383 -0.9079
 1624TIP3    H229068   0.321   0.874   7.759 -1.7802  1.2984  0.0097
 1625TIP3   OH229069   0.329   0.098   8.492 -0.1318  0.5398 -0.1631
 1625TIP3    H129070   0.310   0.040   8.419 -1.2536 -2.3385  2.2240
 1625TIP3    H229071   0.407   0.060   8.534  0.9127  2.5126 -0.1538
 1626TIP3   OH229072   6.693   3.205   6.942 -0.0809  0.2314  0.1730
 1626TIP3    H129073   6.642   3.280   6.913 -0.4356 -0.5349 -1.3156
 1626TIP3    H229074   6.727   3.166   6.861  2.2808  0.2799  1.0551
 1627TIP3   OH229075   6.538   2.652   9.247  0.0904 -0.4377 -0.5251
 1627TIP3    H129076   6.486   2.721   9.206  0.4102  0.6772  0.8686
 1627TIP3    H229077   6.592   2.698   9.312  1.6862 -1.7612 -0.8522
 1628TIP3   OH229078   2.345   5.219   6.742  0.2732  0.6019 -0.0910
 1628TIP3    H129079   2.395   5.181   6.670  1.8358 -0.0340  1.2641
 1628TIP3    H229080   2.365   5.313   6.739 -1.3846  0.9501 -1.7499
 1629TIP3   OH229081   6.742   3.346   7.626  0.3143  0.5473  0.1751
 1629TIP3    H129082   6.692   3.384   7.698  0.3220 -1.2060  1.1563
 1629TIP3    H229083   6.692   3.369   7.547 -1.7045 -0.5657  1.0733
 1630TIP3   OH229084   0.721   1.999   9.039  0.0484 -0.1699 -0.2340
 1630TIP3    H129085   0.649   1.948   9.001  0.0442  0.5315 -1.2147
 1630TIP3    H229086   0.786   2.003   8.969  0.4968  0.2664  0.2062
 1631TIP3   OH229087   3.406   3.368   7.491  0.7462 -0.2128 -0.1730
 1631TIP3    H129088   3.441   3.440   7.439 -1.9421  0.1795 -1.6097
 1631TIP3    H229089   3.360   3.411   7.563 -1.5794 -0.3383 -1.4899
 1632TIP3   OH229090   2.639   5.745   8.911 -0.0136  0.4847 -0.2327
 1632TIP3    H129091   2.641   5.784   8.998  0.9624  2.1713 -0.9615
 1632TIP3    H229092   2.729   5.753   8.879 -0.5626  0.7982 -1.7804
 1633TIP3   OH229093   2.231   5.623   9.394  0.8598  0.4735 -0.7091
 1633TIP3    H129094   2.155   5.667   9.356  1.4101  2.1284  0.0086
 1633TIP3    H229095   2.306   5.670   9.358  1.4293  1.1602  1.2751
 1634TIP3   OH229096   6.447   0.348   7.926  0.1171  0.4984  0.3315
 1634TIP3    H129097   6.514   0.312   7.985  2.2309  2.3497 -0.7577
 1634TIP3    H229098   6.373   0.288   7.933  1.9782 -1.8216  1.4339
 1635TIP3   OH229099   0.088   3.554   8.755  0.3485 -0.5240  0.1076
 1635TIP3    H129100   0.062   3.482   8.812 -0.2817 -1.4594 -1.3137
 1635TIP3    H229101   0.009   3.575   8.705  0.7171  0.6906 -0.0107
 1636TIP3   OH229102   5.952   4.588   9.598  0.3303 -0.1661 -0.6010
 1636TIP3    H129103   6.044   4.562   9.590  0.1961 -0.6780 -0.5003
 1636TIP3    H229104   5.955   4.682   9.620  0.8158 -0.0594 -1.1037
 1637TIP3   OH229105   3.167   4.394   9.303  0.1983  0.9567  0.6649
 1637TIP3    H129106   3.172   4.482   9.341  0.5147  0.5176  1.6681
 1637TIP3    H229107   3.168   4.335   9.379  1.6329  0.0145 -0.0369
 1638TIP3   OH229108   4.638   7.344   7.027 -0.0571 -0.1931 -0.0512
 1638TIP3    H129109   4.626   7.400   7.104  0.5458  0.9389 -0.7495
 1638TIP3    H229110   4.656   7.405   6.955 -2.6412 -1.0481 -1.5750
 1639TIP3   OH229111   7.516   2.700   9.530 -0.4758  0.4295  0.5463
 1639TIP3    H129112   7.543   2.728   9.618 -0.7864 -1.1863  1.1935
 1639TIP3    H229113   7.597   2.668   9.490 -0.0996  2.2360 -0.2318
 1640TIP3   OH229114   4.605   1.298   9.072  0.6809 -0.4807 -0.2939
 1640TIP3    H129115   4.629   1.320   9.162 -0.7900 -0.7874  0.1974
 1640TIP3    H229116   4.688   1.280   9.029  1.4141 -0.2538  0.9837
 1641TIP3   OH229117   3.564   3.660   8.798 -0.1315  0.3137  0.2333
 1641TIP3    H129118   3.557   3.565   8.789 -1.1415  0.2228  1.7503
 1641TIP3    H229119   3.613   3.674   8.879 -1.1596  1.0744  0.7470
 1642TIP3   OH229120   5.513   4.842   8.182 -0.0438 -0.8436 -0.6154
 1642TIP3    H129121   5.491   4.893   8.260 -0.0309 -0.8894 -0.5814
 1642TIP3    H229122   5.526   4.907   8.113 -3.5990 -0.9005 -1.5073
 1643TIP3   OH229123   0.242   4.452   7.754  0.3609 -0.2699  0.0122
 1643TIP3    H129124   0.255   4.380   7.692  0.6150  0.1273 -0.3941
 1643TIP3    H229125   0.196   4.411   7.827  0.1162 -0.7598 -0.4041
 1644TIP3   OH229126   6.054   7.493   7.332 -0.2898 -0.0436  0.6820
 1644TIP3    H129127   6.067   7.439   7.254  0.1940  1.1215 -0.0694
 1644TIP3    H229128   6.136   7.542   7.341  0.5106 -1.6363  3.1451
 1645TIP3   OH229129   6.507   0.276   8.460  0.0534 -0.2479 -0.3066
 1645TIP3    H129130   6.571   0.207   8.442  0.0847 -0.5161  0.7512
 1645TIP3    H229131   6.559   0.355   8.473  0.2808 -0.6713  1.5746
 1646TIP3   OH229132   2.313   6.596   9.063  0.2114  0.3875  0.1971
 1646TIP3    H129133   2.385   6.536   9.044 -0.2907  0.0823 -0.7870
 1646TIP3    H229134   2.280   6.622   8.977 -0.9470  0.4092  0.6320
 1647TIP3   OH229135   7.278   0.465   8.018 -0.3017 -0.7039 -0.6434
 1647TIP3    H129136   7.184   0.464   8.002 -0.4527 -1.4040  0.2137
 1647TIP3    H229137   7.288   0.427   8.105  0.4222  3.5362  1.3809
 1648TIP3   OH229138   4.737   4.856   8.545 -0.7347 -0.1286 -0.6732
 1648TIP3    H129139   4.827   4.877   8.570 -0.7267 -0.6996 -0.2043
 1648TIP3    H229140   4.701   4.812   8.621 -1.5414  0.4475 -0.7149
 1649TIP3   OH229141   7.677   5.795   7.618  0.2095  0.1360 -0.2583
 1649TIP3    H129142   7.638   5.864   7.565  0.0603 -0.0409 -0.3835
 1649TIP3    H229143   7.653   5.714   7.572 -0.4527 -0.0577  0.4246
 1650TIP3   OH229144   0.767   3.129   7.391  0.6554  0.0936 -0.6385
 1650TIP3    H129145   0.827   3.055   7.403  1.0115  0.5324  0.3870
 1650TIP3    H229146   0.687   3.102   7.436  0.3228 -0.1855 -1.3742
 1651TIP3   OH229147   3.979   2.748   8.940 -0.2872  0.0158  0.2355
 1651TIP3    H129148   4.016   2.802   8.871 -0.5985 -0.3141 -0.1985
 1651TIP3    H229149   4.020   2.780   9.021  2.7441 -1.7964 -0.4088
 1652TIP3   OH229150   2.899   0.186   6.961  0.6479 -0.2779 -0.1511
 1652TIP3    H129151   2.887   0.126   6.887  0.1884 -0.6592  0.2255
 1652TIP3    H229152   2.990   0.215   6.952  0.4684  0.0417 -1.1215
 1653TIP3   OH229153   2.812   1.315   8.682 -0.2306  0.1228 -0.4811
 1653TIP3    H129154   2.824   1.300   8.588 -0.6765  1.7516 -0.8266
 1653TIP3    H229155   2.863   1.246   8.724  1.6043  0.5246 -1.9171
 1654TIP3   OH229156   7.268   2.541   8.389  0.2758  0.2500  0.3862
 1654TIP3    H129157   7.231   2.623   8.356  2.0378  1.0959  0.3834
 1654TIP3    H229158   7.362   2.549   8.374  0.3787 -2.5566 -1.3368
 1655TIP3   OH229159   3.318   6.797   6.726 -0.4053  0.1136  0.3190
 1655TIP3    H129160   3.299   6.723   6.784  1.2593  1.7001  3.1006
 1655TIP3    H229161   3.385   6.763   6.666 -1.0526 -1.1457  0.2730
 1656TIP3   OH229162   7.638   3.254   7.368  0.0981 -0.1833  0.8753
 1656TIP3    H129163   7.576   3.249   7.295  0.5497 -1.2789  0.5456
 1656TIP3    H229164   7.674   3.343   7.363 -0.0231 -0.1819 -0.1172
 1657TIP3   OH229165   4.180   0.915   7.695 -0.0504 -0.2614 -0.2382
 1657TIP3    H129166   4.121   0.841   7.683 -0.1010 -0.2100 -0.3108
 1657TIP3    H229167   4.139   0.969   7.762  0.2962 -0.6134  0.2683
 1658TIP3   OH229168   1.191   1.601   7.614  0.4773 -0.3690  0.0916
 1658TIP3    H129169   1.179   1.509   7.593  0.1378 -0.0110 -1.3733
 1658TIP3    H229170   1.259   1.631   7.554 -1.2508  0.9464 -1.3391
 1659TIP3   OH229171   6.697   4.636   8.155 -0.2335  0.1601 -0.1847
 1659TIP3    H129172   6.629   4.681   8.205 -0.8074 -1.2869  0.3925
 1659TIP3    H229173   6.731   4.570   8.215  1.3698  0.5279 -0.6270
 1660TIP3   OH229174   2.712   3.698   9.095 -0.1743  0.1889  0.1133
 1660TIP3    H129175   2.769   3.770   9.069 -0.8124  0.4616 -0.5768
 1660TIP3    H229176   2.665   3.730   9.172 -1.3834  1.0189 -0.9303
 1661TIP3   OH229177   6.274   1.838   8.299  0.0562  0.2244  0.0765
 1661TIP3    H129178   6.318   1.923   8.299 -3.2173  2.0888  0.6277
 1661TIP3    H229179   6.317   1.788   8.368  1.2813  1.8745  0.5611
 1662TIP3   OH229180   5.622   3.705   7.770 -0.1460 -0.3202  0.0522
 1662TIP3    H129181   5.544   3.682   7.721 -1.3434  1.3405  1.0828
 1662TIP3    H229182   5.604   3.678   7.860  0.1992  0.6491  0.4234
 1663TIP3   OH229183   5.562   7.178   7.018  0.8286  0.0768 -0.1618
 1663TIP3    H129184   5.634   7.232   6.986  1.4867 -0.7243 -0.0619
 1663TIP3    H229185   5.603   7.096   7.044 -0.3179 -1.0351 -1.6441
 1664TIP3   OH229186   0.876   1.512   8.297  0.3238  0.1277  0.1715
 1664TIP3    H129187   0.925   1.528   8.216 -1.4500  0.5204 -0.8771
 1664TIP3    H229188   0.822   1.436   8.277 -1.7664  1.5437  0.1705
 1665TIP3   OH229189   0.771   6.677   7.665 -0.2200 -0.3735  0.0156
 1665TIP3    H129190   0.778   6.771   7.647 -0.1586 -0.4316 -0.2581
 1665TIP3    H229191   0.712   6.643   7.598  1.0063 -0.8115 -0.8766
 1666TIP3   OH229192   4.805   3.615   8.219  0.0670  0.2044  0.3371
 1666TIP3    H129193   4.879   3.652   8.268  0.8127 -0.3272 -0.3791
 1666TIP3    H229194   4.786   3.680   8.152  0.1258  0.1705  0.2877
 1667TIP3   OH229195   6.870   2.949   8.594  1.1775  0.7060 -0.4463
 1667TIP3    H129196   6.887   3.004   8.517  0.5794  0.5947 -0.6686
 1667TIP3    H229197   6.779   2.970   8.618  1.3804  0.7865  0.2707
 1668TIP3   OH229198   2.442   7.420   8.239 -0.1162 -0.1059 -0.5070
 1668TIP3    H129199   2.355   7.387   8.218  1.0153 -3.0323 -1.0487
 1668TIP3    H229200   2.483   7.439   8.154  0.7710 -1.6583 -0.4583
 1669TIP3   OH229201   0.475   5.315   6.490  0.3706  0.4618  0.1273
 1669TIP3    H129202   0.495   5.408   6.478 -1.5692  0.9508  0.4176
 1669TIP3    H229203   0.382   5.313   6.513  0.6518 -1.4538  1.3533
 1670TIP3   OH229204   1.999   0.545   7.717  0.1979 -0.2460  1.1172
 1670TIP3    H129205   2.090   0.531   7.690  0.7926 -1.0408  3.3517
 1670TIP3    H229206   1.981   0.636   7.693  0.7956 -0.7115 -1.3860
 1671TIP3   OH229207   1.459   2.737   6.748 -0.1655  0.1595 -0.0649
 1671TIP3    H129208   1.537   2.699   6.790 -0.6331 -0.1234  0.5838
 1671TIP3    H229209   1.397   2.664   6.745 -0.7575  0.6319  0.3605
 1672TIP3   OH229210   7.326   4.161   8.245 -0.4968 -0.0429  0.6446
 1672TIP3    H129211   7.324   4.255   8.264 -1.2181  0.0475  0.1440
 1672TIP3    H229212   7.325   4.120   8.332 -2.3325  0.3926  0.8731
 1673TIP3   OH229213   1.027   3.476   8.261 -0.0986 -0.1323  0.9022
 1673TIP3    H129214   0.933   3.484   8.282 -0.2209  0.6203  0.1368
 1673TIP3    H229215   1.070   3.473   8.346 -0.9024 -1.7950  1.2868
 1674TIP3   OH229216   1.171   5.150   6.491 -0.1695 -0.1846 -0.2220
 1674TIP3    H129217   1.145   5.236   6.522 -0.6555  0.1966 -1.5971
 1674TIP3    H229218   1.109   5.090   6.531 -0.0352  0.1377  0.4765
 1675TIP3   OH229219   5.703   0.037   6.805 -0.3599  0.2384 -0.2535
 1675TIP3    H129220   5.710   0.125   6.842 -0.7839 -0.1758  0.8448
 1675TIP3    H229221   5.793   0.011   6.787 -0.0435  0.0740  1.4320
 1676TIP3   OH229222   0.038   1.447   6.848 -0.1293 -0.5043  0.2053
 1676TIP3    H129223   0.045   1.448   6.752 -1.8722 -0.6885  0.0455
 1676TIP3    H229224   0.102   1.512   6.877  0.5214 -0.5329 -1.0673
 1677TIP3   OH229225   5.319   6.296   7.959 -0.0388  0.1075  0.2679
 1677TIP3    H129226   5.273   6.258   8.034 -0.6406 -1.2733 -0.7563
 1677TIP3    H229227   5.265   6.370   7.932  1.1764  1.8542  2.3223
 1678TIP3   OH229228   3.609   5.080   7.947 -0.1420  0.0574 -0.2555
 1678TIP3    H129229   3.554   5.138   8.000 -0.1907  0.6150 -0.9063
 1678TIP3    H229230   3.687   5.065   8.001  0.6422  2.0756 -0.7382
 1679TIP3   OH229231   1.281   4.863   8.189  0.3574  0.3102 -0.4389
 1679TIP3    H129232   1.315   4.939   8.141 -1.2356  0.4672 -1.3860
 1679TIP3    H229233   1.225   4.818   8.126 -0.9987 -0.0607  0.9797
 1680TIP3   OH229234   1.183   3.738   7.126 -0.2641 -0.0711  0.0896
 1680TIP3    H129235   1.249   3.692   7.075 -0.4780 -0.5210  0.2133
 1680TIP3    H229236   1.223   3.750   7.212  0.1809  0.8821 -0.2378
 1681TIP3   OH229237   4.819   0.822   8.653  0.0878 -0.7494  0.6719
 1681TIP3    H129238   4.787   0.735   8.629  1.7473 -0.7231 -2.1433
 1681TIP3    H229239   4.879   0.806   8.726  0.1116 -1.9396  0.4111
 1682TIP3   OH229240   4.969   1.023   7.556  0.2268  0.2425  0.2130
 1682TIP3    H129241   4.993   1.027   7.463  0.8454  0.7769  0.3895
 1682TIP3    H229242   4.875   1.004   7.555  0.1056  0.8186 -0.5385
 1683TIP3   OH229243   7.517   1.039   8.528  0.5381  0.7381  0.9037
 1683TIP3    H129244   7.429   1.046   8.564  0.8247  0.3488  1.7076
 1683TIP3    H229245   7.550   1.129   8.527  0.1570  0.8775  0.6481
 1684TIP3   OH229246   5.034   3.036   9.206  0.1639  0.4127  0.5744
 1684TIP3    H129247   5.024   3.091   9.284 -0.7336 -0.6322  1.2190
 1684TIP3    H229248   5.125   3.050   9.178  0.0348  1.9966  0.8747
 1685TIP3   OH229249   1.486   0.708   8.567  0.5925  0.1125 -0.0366
 1685TIP3    H129250   1.575   0.694   8.600  1.1349  2.4773 -0.3108
 1685TIP3    H229251   1.435   0.733   8.644  0.4466 -0.1159 -0.0597
 1686TIP3   OH229252   1.970   5.924   8.707  0.0482  0.0344  0.4797
 1686TIP3    H129253   1.938   5.976   8.634 -0.7789  0.1391  0.9041
 1686TIP3    H229254   2.024   5.984   8.758  0.0666  0.1492  0.3240
 1687TIP3   OH229255   1.440   2.500   8.344  0.1091  0.0780 -0.2100
 1687TIP3    H129256   1.472   2.489   8.254 -1.5875  0.3634 -0.8934
 1687TIP3    H229257   1.350   2.529   8.333 -0.0428  0.3649  1.6095
 1688TIP3   OH229258   3.856   1.337   8.086  0.2850 -0.3925  0.1124
 1688TIP3    H129259   3.890   1.250   8.106 -0.8910 -0.3149  2.9570
 1688TIP3    H229260   3.762   1.324   8.072 -0.0291  0.4707  1.2602
 1689TIP3   OH229261   7.237   3.251   8.291 -0.0641  0.2883 -0.0733
 1689TIP3    H129262   7.331   3.261   8.274  0.1180  0.4797  0.9910
 1689TIP3    H229263   7.216   3.163   8.260  0.3936  0.3503 -0.5895
 1690TIP3   OH229264   1.037   1.764   8.164  0.7573  0.4846  0.9453
 1690TIP3    H129265   1.040   1.817   8.084 -2.7474  1.1458  1.0886
 1690TIP3    H229266   1.090   1.812   8.227 -0.5343  2.7470  0.4154
 1691TIP3   OH229267   4.739   3.382   8.065  0.6997 -0.1933  0.0857
 1691TIP3    H129268   4.827   3.345   8.059  1.2836  1.2143 -0.4912
 1691TIP3    H229269   4.746   3.451   8.131 -0.2290 -0.7040  0.7448
 1692TIP3   OH229270   2.683   3.628   7.631  0.6234  0.4614 -0.3264
 1692TIP3    H129271   2.589   3.640   7.624  0.4334 -1.1589 -1.0641
 1692TIP3    H229272   2.713   3.616   7.541  1.5378  0.9812 -0.1055
 1693TIP3   OH229273   1.210   4.153   7.751  0.1930 -0.7297  0.1317
 1693TIP3    H129274   1.132   4.207   7.737  1.3358  0.9392 -0.0476
 1693TIP3    H229275   1.240   4.131   7.663  0.9318  0.1689  0.1454
 1694TIP3   OH229276   7.672   3.801   9.167 -0.1053  0.1618 -0.0314
 1694TIP3    H129277   7.620   3.864   9.216  1.4187  0.5604  1.1069
 1694TIP3    H229278   7.709   3.851   9.094  0.4725  0.4195  0.4302
 1695TIP3   OH229279   4.930   7.271   6.961  0.2939  0.0477 -0.0391
 1695TIP3    H129280   5.014   7.294   6.921  0.4809 -2.8882 -1.6497
 1695TIP3    H229281   4.880   7.230   6.890 -1.1994 -1.2739  1.6713
 1696TIP3   OH229282   1.905   2.523   8.119  0.0834  0.1825  0.5674
 1696TIP3    H129283   1.921   2.492   8.030  1.9971  1.6642  0.3236
 1696TIP3    H229284   1.864   2.609   8.108  2.4808  1.4759  0.9630
 1697TIP3   OH229285   0.391   1.575   8.586  0.6097  0.5041 -0.2273
 1697TIP3    H129286   0.456   1.645   8.595  0.1202  1.1758 -1.6062
 1697TIP3    H229287   0.440   1.501   8.550  0.8508  0.6257 -0.1482
 1698TIP3   OH229288   1.277   6.760   6.879  0.1683  0.1284  0.1445
 1698TIP3    H129289   1.320   6.692   6.931 -0.7437 -1.1680 -0.6993
 1698TIP3    H229290   1.296   6.735   6.788  1.2821  2.0304 -0.2037
 1699TIP3   OH229291   1.795   4.726   7.706  0.7702 -0.4490  0.2684
 1699TIP3    H129292   1.713   4.771   7.685  1.1478 -0.6568 -1.8745
 1699TIP3    H229293   1.768   4.649   7.756 -0.1326  0.5806  1.4205
 1700TIP3   OH229294   6.941   7.298   6.951  0.0322 -0.5300  0.3393
 1700TIP3    H129295   6.915   7.390   6.948 -1.0401 -0.8409 -2.1720
 1700TIP3    H229296   6.867   7.254   6.994  0.3549 -0.3225  1.1420
 1701TIP3   OH229297   6.691   1.913   9.309 -0.1266  0.6117 -0.1589
 1701TIP3    H129298   6.632   1.963   9.366 -2.3886  0.0431 -1.8364
 1701TIP3    H229299   6.640   1.898   9.229  2.0038 -0.7499 -1.3647
 1702TIP3   OH229300   7.212   1.788   7.801  0.6507  0.2961  0.8114
 1702TIP3    H129301   7.273   1.754   7.735  0.6947 -1.5553  1.7448
 1702TIP3    H229302   7.171   1.864   7.759  2.0790  0.3323 -0.6046
 1703TIP3   OH229303   6.410   4.262   8.805 -0.1216 -0.0487 -0.5100
 1703TIP3    H129304   6.330   4.210   8.814  0.0448 -0.1158  0.7923
 1703TIP3    H229305   6.449   4.260   8.893  0.6853  0.9826 -0.8362
 1704TIP3   OH229306   2.184   7.357   8.170  0.0457  0.6746 -0.0228
 1704TIP3    H129307   2.149   7.287   8.225  0.6899  1.3051  1.2474
 1704TIP3    H229308   2.154   7.336   8.082  0.1402 -1.1483  0.3365
 1705TIP3   OH229309   5.816   0.596   7.322  0.6372 -0.0327  0.0528
 1705TIP3    H129310   5.800   0.665   7.257  1.5450 -0.6291 -0.8296
 1705TIP3    H229311   5.788   0.515   7.278  2.0659 -0.5507  0.0652
 1706TIP3   OH229312   2.818   5.191   9.202 -0.2027  0.7649 -0.3041
 1706TIP3    H129313   2.906   5.218   9.226  1.1379 -3.4191  0.2828
 1706TIP3    H229314   2.764   5.219   9.275  1.3549  0.3219  1.0788
 1707TIP3   OH229315   7.186   0.081   9.204  0.2677  0.4014 -0.3028
 1707TIP3    H129316   7.183   0.132   9.124 -1.3154  0.0164 -0.5249
 1707TIP3    H229317   7.202   0.145   9.273  3.1441  0.5787 -0.9969
 1708TIP3   OH229318   2.144   0.443   7.489  0.1595  0.4522 -0.3141
 1708TIP3    H129319   2.225   0.493   7.495  0.8300 -0.6502  0.1200
 1708TIP3    H229320   2.158   0.382   7.417 -0.3234  0.2980 -0.2856
 1709TIP3   OH229321   6.924   1.533   7.615 -0.0597 -0.5181 -0.0297
 1709TIP3    H129322   7.004   1.528   7.562  0.9267  0.6573  1.2511
 1709TIP3    H229323   6.956   1.540   7.705 -1.5627  1.3007  0.4221
 1710TIP3   OH229324   7.383   1.009   9.298  0.2317 -0.2285 -0.2851
 1710TIP3    H129325   7.416   1.089   9.339 -0.9682  0.7502 -1.1680
 1710TIP3    H229326   7.411   0.939   9.357  1.7690  0.7660  0.2294
 1711TIP3   OH229327   5.204   6.222   8.840  0.8624 -0.2663 -0.7816
 1711TIP3    H129328   5.217   6.240   8.932  2.5325  1.3818 -1.2990
 1711TIP3    H229329   5.269   6.274   8.794  1.9767 -3.1086 -2.7809
 1712TIP3   OH229330   5.595   3.073   7.764 -0.1189  0.5234 -0.2615
 1712TIP3    H129331   5.560   3.087   7.852  0.9765 -0.1324  0.3160
 1712TIP3    H229332   5.519   3.057   7.709 -0.7225 -2.5378  1.2454
 1713TIP3   OH229333   3.605   6.497   7.595  0.2870  0.2278  0.0033
 1713TIP3    H129334   3.647   6.429   7.543  1.2212  1.2685 -0.6638
 1713TIP3    H229335   3.569   6.451   7.671  0.8421 -0.9999 -0.4513
 1714TIP3   OH229336   5.684   7.444   6.832 -0.4420 -0.0362  0.0153
 1714TIP3    H129337   5.730   7.437   6.915  3.8160  1.3133 -1.9146
 1714TIP3    H229338   5.662   7.537   6.824 -1.7854 -0.3353  0.0269
 1715TIP3   OH229339   5.433   0.166   7.968  0.0519  0.0556 -0.0752
 1715TIP3    H129340   5.395   0.253   7.953 -0.4051  0.0970  1.1932
 1715TIP3    H229341   5.519   0.170   7.927 -0.0764  1.0153 -0.2757
 1716TIP3   OH229342   2.862   6.883   7.306  0.2650 -0.1591 -0.0444
 1716TIP3    H129343   2.888   6.972   7.284  1.0390  0.1582  1.9429
 1716TIP3    H229344   2.841   6.842   7.222  1.2812  1.4560 -1.1270
 1717TIP3   OH229345   1.705   1.880   8.770  0.0510 -0.2689 -0.3681
 1717TIP3    H129346   1.653   1.915   8.843  1.2371  0.8130 -0.0106
 1717TIP3    H229347   1.796   1.886   8.801  0.7485  1.8043 -2.5386
 1718TIP3   OH229348   4.437   6.175   9.129 -0.0378  0.1034 -0.0060
 1718TIP3    H129349   4.440   6.215   9.042 -3.2298 -0.1686 -0.3400
 1718TIP3    H229350   4.441   6.081   9.113 -0.6933  0.0505  0.1040
 1719TIP3   OH229351   7.648   3.363   8.559  0.5104 -0.6961  0.0261
 1719TIP3    H129352   7.592   3.312   8.617 -0.0805  1.0063  1.0528
 1719TIP3    H229353   7.726   3.382   8.611 -0.1883  1.1653  0.4909
 1720TIP3   OH229354   4.476   6.921   8.046 -0.2733 -0.0082  0.1051
 1720TIP3    H129355   4.380   6.921   8.044 -0.2917  1.6536  0.3949
 1720TIP3    H229356   4.501   7.002   8.003  1.0744 -1.2187 -1.5411
 1721TIP3   OH229357   1.383   2.701   8.906  0.1387  0.6185  0.2761
 1721TIP3    H129358   1.357   2.665   8.821  0.4434 -2.9548  1.5048
 1721TIP3    H229359   1.326   2.657   8.969  0.8736  2.0836  2.0603
 1722TIP3   OH229360   5.641   7.232   7.864  0.3952  0.0679 -0.6531
 1722TIP3    H129361   5.579   7.168   7.900  0.1877  0.9238  0.5673
 1722TIP3    H229362   5.593   7.315   7.864  2.0300  1.1298  1.9801
 1723TIP3   OH229363   0.542   1.969   9.679  0.1650  0.0560  0.1562
 1723TIP3    H129364   0.511   1.881   9.656  1.4349  0.0721 -1.8868
 1723TIP3    H229365   0.462   2.020   9.691 -0.5892 -1.1350  0.4209
 1724TIP3   OH229366   5.254   0.601   8.970  0.3188  0.9368  0.1362
 1724TIP3    H129367   5.189   0.541   9.006  0.5389  1.6341  1.7643
 1724TIP3    H229368   5.336   0.552   8.971  0.1496  0.6463 -0.2700
 1725TIP3   OH229369   0.247   0.320   8.601 -0.3323  0.2241  0.2752
 1725TIP3    H129370   0.327   0.370   8.612  0.5308 -1.6262  3.6257
 1725TIP3    H229371   0.273   0.244   8.549 -0.0840 -0.0204  0.7571
 1726TIP3   OH229372   7.030   0.436   8.891  0.8422  0.0890  0.2856
 1726TIP3    H129373   7.084   0.366   8.929 -0.9959 -0.2963  2.4360
 1726TIP3    H229374   6.944   0.423   8.931 -0.3069  1.8824 -1.4680
 1727TIP3   OH229375   2.787   2.046   8.244 -0.1544 -0.0792  0.6226
 1727TIP3    H129376   2.860   2.024   8.302  0.2057 -1.1528 -0.1968
 1727TIP3    H229377   2.740   2.116   8.289  1.0051  0.1775  1.4726
 1728TIP3   OH229378   3.834   6.636   7.800 -0.0504  0.2588 -0.4015
 1728TIP3    H129379   3.822   6.730   7.787 -0.3242  0.0013 -2.2397
 1728TIP3    H229380   3.790   6.617   7.883  1.5912  2.0288  0.9796
 1729TIP3   OH229381   4.288   7.670   8.164 -0.0595 -0.4184  0.2606
 1729TIP3    H129382   4.204   7.666   8.211  0.7265 -0.9280  1.6749
 1729TIP3    H229383   4.301   7.581   8.131 -1.5953  0.3651 -2.8533
 1730TIP3   OH229384   1.240   4.847   9.009  0.2360 -0.2794 -0.6004
 1730TIP3    H129385   1.193   4.775   9.049  0.7316 -1.0604 -1.3881
 1730TIP3    H229386   1.257   4.908   9.081  0.8183 -1.4865  0.3197
 1731TIP3   OH229387   1.649   7.443   8.907 -0.0375  0.1953  0.0552
 1731TIP3    H129388   1.670   7.471   8.996  0.6781 -0.9398  0.2591
 1731TIP3    H229389   1.732   7.409   8.873 -0.8027 -1.4230 -0.2597
 1732TIP3   OH229390   2.941   6.991   9.201  0.3200  0.0608  0.4593
 1732TIP3    H129391   3.012   6.992   9.137 -0.0079  0.2273  0.0928
 1732TIP3    H229392   2.942   7.079   9.239 -0.2910  0.3747 -0.2262
 1733TIP3   OH229393   0.072   7.606   8.370  0.3161 -0.0594 -0.1165
 1733TIP3    H129394   0.010   7.676   8.391  0.2685 -0.1520  0.0498
 1733TIP3    H229395   0.017   7.538   8.330  0.1571 -0.5374  0.8982
 1734TIP3   OH229396   0.048   5.699   6.880  0.0170 -0.0835  0.3656
 1734TIP3    H129397   0.112   5.770   6.892 -0.0173 -0.0138  0.1330
 1734TIP3    H229398  -0.028   5.726   6.931  0.0990 -0.0752  0.4851
 1735TIP3   OH229399   6.073   5.440   8.640 -0.4976 -0.1641  0.1100
 1735TIP3    H129400   6.096   5.531   8.619  2.5867 -0.8059  0.2051
 1735TIP3    H229401   6.060   5.440   8.735  1.3458 -0.0710  0.4086
 1736TIP3   OH229402   1.366   0.430   6.655  0.0450  0.2719 -0.4237
 1736TIP3    H129403   1.381   0.521   6.629 -0.8962  0.7722  0.6329
 1736TIP3    H229404   1.452   0.390   6.655  0.4545  1.1186 -1.0806
 1737TIP3   OH229405   5.917   3.772   8.997 -0.0234 -0.1308 -0.2567
 1737TIP3    H129406   5.972   3.715   8.943  0.6284 -1.3398  1.6079
 1737TIP3    H229407   5.975   3.844   9.022  0.2844 -0.6188  0.4623
 1738TIP3   OH229408   1.517   5.982   8.965  0.6568  0.4028  0.0712
 1738TIP3    H129409   1.557   5.924   8.900  0.1566  0.8489 -0.6454
 1738TIP3    H229410   1.425   5.988   8.940 -0.5373 -2.5194  3.0848
 1739TIP3   OH229411   0.917   2.773   9.260  0.7105 -0.0109 -0.2440
 1739TIP3    H129412   0.863   2.836   9.211 -0.3927 -0.8725 -0.1672
 1739TIP3    H229413   0.876   2.770   9.347  1.3479 -0.1148  0.0555
 1740TIP3   OH229414   5.583   2.335   7.467 -0.1154 -0.2164 -0.1202
 1740TIP3    H129415   5.570   2.409   7.526  0.1433  0.0600 -0.4070
 1740TIP3    H229416   5.567   2.370   7.380 -2.3258 -1.0499 -0.1084
 1741TIP3   OH229417   5.278   5.019   9.123 -0.6029 -0.6696  0.5544
 1741TIP3    H129418   5.347   4.970   9.077 -0.8547 -0.8770  0.3932
 1741TIP3    H229419   5.221   4.951   9.160 -0.0320 -0.5096  1.7475
 1742TIP3   OH229420   2.518   3.265   8.632 -0.0450  0.2035  0.0300
 1742TIP3    H129421   2.478   3.343   8.671 -0.4321  0.0120  0.0104
 1742TIP3    H229422   2.612   3.285   8.632 -0.2427  1.2174 -1.1695
 1743TIP3   OH229423   5.768   2.513   7.961  0.0859  0.5396 -0.2616
 1743TIP3    H129424   5.688   2.482   7.921 -0.8448  1.1731  1.0277
 1743TIP3    H229425   5.798   2.441   8.017 -1.0383  1.1925  1.2596
 1744TIP3   OH229426   4.016   3.159   9.270  0.0018  0.2273  0.3798
 1744TIP3    H129427   4.072   3.236   9.263 -0.7228  0.8309  1.0462
 1744TIP3    H229428   3.941   3.178   9.213 -0.3967  0.2127  0.8959
 1745TIP3   OH229429   6.524   1.158   8.935  0.1195 -0.2216 -0.2949
 1745TIP3    H129430   6.477   1.238   8.913  2.6513  1.4993  0.1743
 1745TIP3    H229431   6.466   1.113   8.997 -1.5231  1.0314 -0.8537
 1746TIP3   OH229432   4.845   5.368   9.018  0.5345 -0.5515  0.0868
 1746TIP3    H129433   4.839   5.272   9.011 -0.2505 -0.4852 -0.2124
 1746TIP3    H229434   4.826   5.400   8.930 -1.4290 -0.0336  0.6633
 1747TIP3   OH229435   6.148   7.401   6.950  0.2785 -0.0738  0.2028
 1747TIP3    H129436   6.185   7.388   6.862  0.5244  0.2139  0.2609
 1747TIP3    H229437   6.187   7.483   6.980  1.6091 -1.0374  1.2864
 1748TIP3   OH229438   3.765   3.975   9.307 -0.4157 -0.3328 -0.5109
 1748TIP3    H129439   3.687   3.950   9.258  0.0195 -1.4560 -0.6636
 1748TIP3    H229440   3.838   3.953   9.249  0.1704 -2.6197  0.9361
 1749TIP3   OH229441   4.126   5.635   8.710  0.2332 -0.2242  0.3805
 1749TIP3    H129442   4.098   5.724   8.735  2.2757  0.7590 -0.6143
 1749TIP3    H229443   4.112   5.584   8.790 -0.6329  1.0592  1.1089
 1750TIP3   OH229444   3.705   5.607   8.458  0.2012 -0.6613 -0.4648
 1750TIP3    H129445   3.749   5.535   8.414  1.9615 -0.7740  1.3567
 1750TIP3    H229446   3.659   5.566   8.532  1.6180  0.0564  0.8757
 1751TIP3   OH229447   4.577   0.253   7.479 -0.0622  0.3275 -0.3613
 1751TIP3    H129448   4.499   0.208   7.514  0.5189  0.7778  1.6620
 1751TIP3    H229449   4.544   0.336   7.445 -0.6149  0.0083 -0.6272
 1752TIP3   OH229450   5.023   1.925   7.187 -0.4043 -0.1900 -0.3005
 1752TIP3    H129451   5.115   1.901   7.178 -0.6269 -2.4084  2.1611
 1752TIP3    H229452   4.975   1.848   7.160 -1.4635  0.2278  0.3349
 1753TIP3   OH229453   1.557   3.752   9.221  0.0663 -0.0973  0.6325
 1753TIP3    H129454   1.637   3.710   9.189 -1.3600 -1.1885 -1.8396
 1753TIP3    H229455   1.579   3.845   9.227  1.0848 -0.1285 -1.6964
 1754TIP3   OH229456   4.626   5.922   8.751 -0.0670  0.0799  0.3786
 1754TIP3    H129457   4.719   5.917   8.770  0.1710  1.2235 -0.3742
 1754TIP3    H229458   4.621   5.922   8.655 -0.7016  1.6962  0.3859
 1755TIP3   OH229459   7.665   2.921   7.943  0.1248  0.0229 -0.5470
 1755TIP3    H129460   7.664   2.834   7.901  0.6545  0.2603 -1.0704
 1755TIP3    H229461   7.752   2.955   7.925  0.6103 -0.1243  1.3304
 1756TIP3   OH229462   5.728   3.393   8.723 -0.4522  0.1440 -0.0701
 1756TIP3    H129463   5.684   3.467   8.764 -0.1151  0.8926 -1.0186
 1756TIP3    H229464   5.798   3.433   8.671 -0.0972 -0.8633 -0.3805
 1757TIP3   OH229465   1.001   3.624   9.144  0.4108  0.5534 -0.4303
 1757TIP3    H129466   0.945   3.654   9.072 -0.6649 -0.7368 -0.1650
 1757TIP3    H229467   1.080   3.592   9.100  0.0278  0.3772 -1.0107
 1758TIP3   OH229468   1.679   4.050   8.282 -0.1277  0.4507 -0.1732
 1758TIP3    H129469   1.706   4.076   8.370  0.1833 -2.5584  0.7286
 1758TIP3    H229470   1.587   4.025   8.291 -0.6914  1.9634 -1.2108
 1759TIP3   OH229471   5.151   7.086   9.187 -0.5189 -0.0411 -0.6907
 1759TIP3    H129472   5.203   7.119   9.113  2.3052  0.6310  1.4179
 1759TIP3    H229473   5.162   6.991   9.184 -2.0679 -0.2328 -2.1678
 1760TIP3   OH229474   5.860   0.053   8.995  0.1137 -0.7965  0.0029
 1760TIP3    H129475   5.826   0.039   8.906  0.1103  0.0054 -0.1320
 1760TIP3    H229476   5.955   0.053   8.985  0.1220  1.8664 -0.4588
 1761TIP3   OH229477   5.691   2.335   6.704 -0.5260 -0.4290 -0.1259
 1761TIP3    H129478   5.778   2.358   6.736 -0.0369  0.7204 -2.1142
 1761TIP3    H229479   5.653   2.418   6.675 -1.4401 -1.1951 -1.2296
 1762TIP3   OH229480   6.416   4.985   8.223 -0.6487 -0.5368  0.6028
 1762TIP3    H129481   6.382   4.923   8.159 -0.7214 -1.6819  1.7174
 1762TIP3    H229482   6.465   4.931   8.285 -0.8060  0.5065  1.6585
 1763TIP3   OH229483   0.214   2.170   7.786  0.0107 -0.6350  0.2575
 1763TIP3    H129484   0.262   2.095   7.821  0.2476 -0.6347 -0.0676
 1763TIP3    H229485   0.218   2.236   7.856 -0.9369 -1.2246  0.8983
 1764TIP3   OH229486   6.293   5.419   9.166  0.0289 -0.3369 -0.3568
 1764TIP3    H129487   6.337   5.500   9.193  2.1170 -1.2605 -0.7908
 1764TIP3    H229488   6.214   5.415   9.220  1.5998  0.3017  2.1419
 1765TIP3   OH229489   5.049   5.792   9.116  0.3367 -0.4402  0.2288
 1765TIP3    H129490   5.054   5.709   9.163  0.9978 -0.5529 -0.0405
 1765TIP3    H229491   5.047   5.768   9.024  2.2098 -0.1043  0.0765
 1766TIP3   OH229492   0.481   3.128   7.430  1.1126  0.5623  0.3628
 1766TIP3    H129493   0.402   3.149   7.381  1.8749  0.1405 -1.1444
 1766TIP3    H229494   0.456   3.055   7.487  0.6721 -0.3676 -0.9652
 1767TIP3   OH229495   3.555   3.205   7.110  0.3633 -0.2757  0.1395
 1767TIP3    H129496   3.496   3.264   7.062  0.6967 -0.7943 -0.9406
 1767TIP3    H229497   3.642   3.240   7.094  0.3641  0.6703  1.9950
 1768TIP3   OH229498   4.959   5.404   8.243 -0.1943 -0.4330 -0.0344
 1768TIP3    H129499   5.002   5.337   8.296  0.9581 -0.5195 -1.0343
 1768TIP3    H229500   4.922   5.355   8.169  0.5436 -0.0169 -0.7029
 1769TIP3   OH229501   6.438   4.328   7.966 -0.0079  0.4184 -0.2483
 1769TIP3    H129502   6.523   4.350   7.928 -0.9031 -1.5159 -3.7623
 1769TIP3    H229503   6.378   4.392   7.930 -0.4175  0.4109  0.4047
 1770TIP3   OH229504   7.203   1.861   6.597 -0.2983  0.4824  0.2588
 1770TIP3    H129505   7.231   1.771   6.581 -0.8921  0.6119 -1.8323
 1770TIP3    H229506   7.240   1.884   6.682  0.8229 -1.3452  0.2957
 1771TIP3   OH229507   0.547   1.551   9.078  0.3679  0.6831  0.1119
 1771TIP3    H129508   0.467   1.579   9.034  1.9160  0.0493 -3.3670
 1771TIP3    H229509   0.553   1.458   9.060  1.6576  0.6164  0.7685
 1772TIP3   OH229510   6.542   4.722   7.787 -0.8103  0.0277  0.3937
 1772TIP3    H129511   6.519   4.764   7.704  0.5625  0.5132  0.2341
 1772TIP3    H229512   6.479   4.650   7.796  0.4927 -1.6085 -2.3185
 1773TIP3   OH229513   3.113   5.011   7.580  0.5270  0.6682 -0.6634
 1773TIP3    H129514   3.027   4.973   7.601  0.0991  1.5512 -0.7445
 1773TIP3    H229515   3.151   5.031   7.666  1.4066 -1.2812 -0.5588
 1774TIP3   OH229516   4.819   7.102   7.216 -0.6194  0.1001  0.2037
 1774TIP3    H129517   4.862   7.044   7.153 -0.8104  0.8487 -0.6474
 1774TIP3    H229518   4.810   7.185   7.169 -1.5510  0.4266  0.9277
 1775TIP3   OH229519   2.581   5.155   8.547  0.4968  0.3928  0.8477
 1775TIP3    H129520   2.537   5.089   8.492 -0.2805  0.0153  1.8700
 1775TIP3    H229521   2.534   5.236   8.529  0.1909  0.2527  0.9924
 1776TIP3   OH229522   1.235   1.908   6.774 -0.7825 -1.2302 -0.6170
 1776TIP3    H129523   1.203   1.991   6.738 -1.9445 -1.6688 -0.6379
 1776TIP3    H229524   1.312   1.932   6.825 -1.4768 -0.0286 -0.0954
 1777TIP3   OH229525   5.979   6.995   7.439  0.2170  0.3540  0.2028
 1777TIP3    H129526   5.918   7.017   7.369 -0.0686  1.1630  0.6896
 1777TIP3    H229527   6.035   7.073   7.447  0.7407 -0.0332  0.3538
 1778TIP3   OH229528   6.850   6.898   7.231 -0.2879 -0.0549 -0.0576
 1778TIP3    H129529   6.782   6.834   7.250  0.4551 -1.4202 -1.6773
 1778TIP3    H229530   6.907   6.897   7.308 -0.4315 -1.1923  0.0458
 1779TIP3   OH229531   2.718   4.585   9.188 -0.2360 -0.3182  0.0284
 1779TIP3    H129532   2.746   4.657   9.244 -2.4749  0.5901  0.0824
 1779TIP3    H229533   2.779   4.514   9.208  2.1384  1.5600 -0.1326
 1780TIP3   OH229534   3.184   0.539   9.199 -0.5233  0.3453  0.4104
 1780TIP3    H129535   3.109   0.492   9.234 -1.6618  1.4677 -0.4504
 1780TIP3    H229536   3.260   0.492   9.234 -1.6064 -0.7263  1.4103
 1781TIP3   OH229537   2.089   2.801   8.393  0.7210  0.5960  0.0298
 1781TIP3    H129538   2.143   2.730   8.429 -0.6512 -0.1804  0.6532
 1781TIP3    H229539   2.115   2.878   8.443 -0.8735 -0.3794  2.5771
 1782TIP3   OH229540   0.550   5.904   9.326 -0.0565 -0.2519 -0.4232
 1782TIP3    H129541   0.462   5.879   9.356  0.3639 -0.7025  0.4678
 1782TIP3    H229542   0.539   5.992   9.290 -1.1719 -0.9024 -1.7452
 1783TIP3   OH229543   4.572   2.815   8.905 -0.5074  0.4136  0.7004
 1783TIP3    H129544   4.583   2.761   8.983  0.7151 -0.0064  0.2651
 1783TIP3    H229545   4.610   2.900   8.928 -1.3362  0.7066  0.9897
 1784TIP3   OH229546   7.238   4.032   9.626  0.0301  0.2096 -0.1706
 1784TIP3    H129547   7.288   4.032   9.708 -1.6947  1.6061  0.9401
 1784TIP3    H229548   7.298   4.069   9.561  0.4257  2.0017  1.1487
 1785TIP3   OH229549   3.336   6.720   7.972 -0.2647  0.4938 -0.5671
 1785TIP3    H129550   3.250   6.761   7.970 -0.1625  0.7118 -2.2481
 1785TIP3    H229551   3.327   6.648   8.033 -2.5000 -1.1938 -2.6694
 1786TIP3   OH229552   1.586   0.769   8.949  0.2725 -0.4041  0.5723
 1786TIP3    H129553   1.518   0.816   8.998  0.4157 -0.2222  0.5968
 1786TIP3    H229554   1.560   0.677   8.955  0.0703 -0.3431  0.6477
 1787TIP3   OH229555   7.634   7.363   9.318  0.1924  0.0158  0.8545
 1787TIP3    H129556   7.576   7.439   9.316  0.5772  0.3024 -0.7366
 1787TIP3    H229557   7.580   7.291   9.284  0.2579 -0.0968  0.9886
 1788TIP3   OH229558   1.804   1.299   7.653 -0.4592 -0.1925 -0.0281
 1788TIP3    H129559   1.783   1.391   7.641 -0.8037 -0.1032  1.1505
 1788TIP3    H229560   1.809   1.288   7.748 -1.0239 -1.5226 -0.1344
 1789TIP3   OH229561   3.218   6.915   9.450 -0.0392 -0.3076  1.0680
 1789TIP3    H129562   3.132   6.876   9.435  0.1469 -0.1137 -0.6904
 1789TIP3    H229563   3.209   7.005   9.421  1.2002 -0.7582 -0.9026
 1790TIP3   OH229564   7.601   4.338   6.938 -0.2303 -0.4755  0.6711
 1790TIP3    H129565   7.540   4.265   6.946 -0.0526 -1.3060 -3.2961
 1790TIP3    H229566   7.684   4.304   6.972 -0.9416 -0.8485  2.0997
 1791TIP3   OH229567   1.798   4.068   7.435 -0.4722 -0.3200 -0.6707
 1791TIP3    H129568   1.865   4.061   7.503 -2.4379 -1.7949  1.2452
 1791TIP3    H229569   1.734   4.130   7.471 -3.0343 -3.2913  0.3427
 1792TIP3   OH229570   0.964   6.030   7.050 -0.0180  0.2559 -0.0828
 1792TIP3    H129571   0.971   5.959   6.986  0.2617 -0.0996  0.3375
 1792TIP3    H229572   1.055   6.050   7.074 -0.1570 -0.5150  1.1746
 1793TIP3   OH229573   6.009   4.910   7.782  0.0640  0.1622 -0.5156
 1793TIP3    H129574   5.953   4.851   7.832 -0.0772  0.9698  0.3099
 1793TIP3    H229575   6.091   4.914   7.832  0.1947  0.4010 -0.7442
 1794TIP3   OH229576   5.034   2.969   8.497 -0.0472  0.5789 -0.1459
 1794TIP3    H129577   5.094   2.997   8.566  1.2166 -2.3720  0.0745
 1794TIP3    H229578   5.081   2.986   8.415 -0.4444  1.6011 -0.1752
 1795TIP3   OH229579   0.597   2.790   9.323  0.0064  0.1679  0.3956
 1795TIP3    H129580   0.649   2.846   9.265 -1.0574  0.4918 -0.2707
 1795TIP3    H229581   0.515   2.776   9.275  0.6775 -3.0167 -0.1037
 1796TIP3   OH229582   3.209   0.215   8.027 -0.0539 -0.0802  0.3241
 1796TIP3    H129583   3.163   0.204   8.111 -0.9298 -0.8372 -0.2262
 1796TIP3    H229584   3.285   0.268   8.048  0.2632 -1.0541  1.7918
 1797TIP3   OH229585   2.413   5.879   6.388  0.4399 -0.2742  0.4578
 1797TIP3    H129586   2.467   5.810   6.349 -1.1932 -1.1115 -0.3852
 1797TIP3    H229587   2.364   5.836   6.457 -1.4117 -0.2569 -0.7927
 1798TIP3   OH229588   2.840   1.972   8.910 -0.0906 -0.3700 -0.5253
 1798TIP3    H129589   2.893   1.928   8.977  0.7412  1.8053  0.3378
 1798TIP3    H229590   2.780   2.027   8.960  0.7336  1.5170 -1.4913
 1799TIP3   OH229591   3.904   7.568   6.879 -0.1469 -0.0851 -0.3637
 1799TIP3    H129592   3.820   7.525   6.895 -1.0539  1.1208 -1.6521
 1799TIP3    H229593   3.904   7.585   6.784  1.4946  0.0583 -0.3562
 1800TIP3   OH229594   5.944   0.654   8.010 -0.3749 -0.2932 -0.3764
 1800TIP3    H129595   5.898   0.634   7.928 -2.3820  0.2146  0.5693
 1800TIP3    H229596   5.914   0.742   8.033 -0.3150 -0.6758  1.2265
 1801TIP3   OH229597   1.009   1.183   6.951  0.5836 -0.2337  0.2222
 1801TIP3    H129598   0.984   1.135   6.873 -0.0309 -1.1430  0.9528
 1801TIP3    H229599   1.062   1.121   7.001  0.6099  0.1862  0.7236
 1802TIP3   OH229600   0.932   3.337   7.489  0.1164  0.1927  0.2668
 1802TIP3    H129601   0.952   3.410   7.431 -0.8068 -0.3066 -0.7334
 1802TIP3    H229602   0.903   3.267   7.430 -0.4047 -0.4932  1.2969
 1803TIP3   OH229603   3.384   2.402   8.601  0.0999  0.1398 -0.2105
 1803TIP3    H129604   3.363   2.405   8.694 -0.1623  1.4308 -0.2923
 1803TIP3    H229605   3.422   2.488   8.582 -0.4099  0.1239 -1.4128
 1804TIP3   OH229606   5.127   7.559   9.502  0.6511 -0.2096  0.6067
 1804TIP3    H129607   5.164   7.491   9.558  0.0287 -0.5313  0.6260
 1804TIP3    H229608   5.049   7.519   9.463 -0.8318  1.1105  2.1025
 1805TIP3   OH229609   5.865   1.829   7.565 -0.1147  0.0197 -0.4599
 1805TIP3    H129610   5.944   1.867   7.605 -0.1848 -0.1217 -0.1882
 1805TIP3    H229611   5.795   1.888   7.592 -0.7168 -1.7710  2.3481
 1806TIP3   OH229612   6.728   5.118   7.752  0.1071  0.1635  0.0081
 1806TIP3    H129613   6.756   5.028   7.739 -0.2867  0.2949 -2.2349
 1806TIP3    H229614   6.810   5.168   7.756  0.3069 -0.1436 -0.2022
 1807TIP3   OH229615   5.361   5.396   9.765  0.4756 -0.0688  0.1476
 1807TIP3    H129616   5.288   5.342   9.795  0.4699  0.7727  1.7450
 1807TIP3    H229617   5.407   5.341   9.702  0.2614 -1.7863  1.4260
 1808TIP3   OH229618   4.682   3.370   8.753 -0.1562 -0.4751 -0.2978
 1808TIP3    H129619   4.694   3.379   8.658  0.3831  1.3149 -0.0856
 1808TIP3    H229620   4.587   3.362   8.764 -0.2635 -0.1420 -0.9406
 1809TIP3   OH229621   2.540   4.721   8.327  0.2474 -0.6404 -0.3742
 1809TIP3    H129622   2.460   4.682   8.361  0.4565 -2.6505 -1.9884
 1809TIP3    H229623   2.609   4.686   8.384  0.0362  1.3936  1.2596
 1810TIP3   OH229624   5.928   2.011   9.027 -0.2795  0.1458 -0.7289
 1810TIP3    H129625   5.912   1.991   8.935 -1.4757  0.3435 -0.5785
 1810TIP3    H229626   5.859   1.964   9.074  1.0954 -1.0302  0.1937
 1811TIP3   OH229627   5.232   0.666   8.418  0.3110  0.3271 -0.0065
 1811TIP3    H129628   5.141   0.695   8.420  1.1737  3.4204 -1.0027
 1811TIP3    H229629   5.236   0.597   8.485 -3.0636 -1.1309 -1.0643
 1812TIP3   OH229630   5.125   1.288   7.342  0.2776  0.6503  0.1926
 1812TIP3    H129631   5.096   1.228   7.274 -0.8909  1.0658  0.2984
 1812TIP3    H229632   5.050   1.295   7.401  1.3503  0.1080  1.6768
 1813TIP3   OH229633   1.816   5.324   6.992  0.3217  0.4140  0.0690
 1813TIP3    H129634   1.820   5.384   7.066  1.2160  0.4921 -0.0293
 1813TIP3    H229635   1.865   5.247   7.021  0.1408  0.1889 -0.2166
 1814TIP3   OH229636   5.688   1.007   7.324  0.3928  0.0061 -0.1176
 1814TIP3    H129637   5.599   1.034   7.300  0.4705 -0.2664 -0.7316
 1814TIP3    H229638   5.710   1.061   7.399 -0.9090 -1.0094  1.0667
 1815TIP3   OH229639   2.320   6.047   8.310 -0.2936  0.0115 -0.3972
 1815TIP3    H129640   2.379   6.030   8.383 -1.2597 -0.3551  0.3175
 1815TIP3    H229641   2.328   5.970   8.254 -1.3238 -0.8381  0.5635
 1816TIP3   OH229642   3.912   6.862   8.606  0.1508 -0.3167 -0.0357
 1816TIP3    H129643   3.934   6.813   8.526 -2.0751 -0.0849 -0.8578
 1816TIP3    H229644   3.873   6.944   8.574 -0.6331 -0.1531  1.2840
 1817TIP3   OH229645   4.804   3.446   9.280  0.4615 -0.6635 -0.3931
 1817TIP3    H129646   4.757   3.526   9.303  1.6713  0.1913 -0.7907
 1817TIP3    H229647   4.887   3.452   9.328  1.1551 -0.9939 -1.5262
 1818TIP3   OH229648   4.362   3.270   8.582 -0.0950 -0.1418  0.1839
 1818TIP3    H129649   4.430   3.210   8.553  0.6931  1.2198 -0.8626
 1818TIP3    H229650   4.346   3.327   8.507 -1.5718  0.3204  0.8029
 1819TIP3   OH229651   2.019   6.341   7.849  1.0149  0.1956  0.5172
 1819TIP3    H129652   1.979   6.393   7.919  1.0430 -1.3677  1.7682
 1819TIP3    H229653   2.071   6.276   7.895  1.8285 -0.2809 -1.0109
 1820TIP3   OH229654   5.459   5.811   7.965  0.3679 -0.2579  0.6287
 1820TIP3    H129655   5.452   5.800   8.060  0.9505  0.3564  0.7554
 1820TIP3    H229656   5.408   5.890   7.946  1.3509  0.4142  0.6439
 1821TIP3   OH229657   0.627   6.518   8.103 -0.2242 -0.0347 -0.1447
 1821TIP3    H129658   0.610   6.538   8.195  0.7347 -0.0746  0.0583
 1821TIP3    H229659   0.621   6.423   8.098 -1.2189  0.0296 -0.3362
 1822TIP3   OH229660   6.186   4.483   9.026 -0.0064 -0.4867  0.1169
 1822TIP3    H129661   6.237   4.479   9.106 -1.5246  2.9532  1.4644
 1822TIP3    H229662   6.228   4.552   8.974 -1.5073  0.3533 -0.0375
 1823TIP3   OH229663   2.930   6.032   9.708 -0.0565 -0.3125 -0.2859
 1823TIP3    H129664   2.939   5.983   9.789 -1.1741 -0.2608 -0.1095
 1823TIP3    H229665   3.017   6.032   9.670  1.1940  1.8988  2.1978
 1824TIP3   OH229666   4.307   2.833   9.263 -0.2887 -0.1569 -0.0324
 1824TIP3    H129667   4.396   2.858   9.241  0.2279 -0.2879  1.7725
 1824TIP3    H229668   4.297   2.745   9.226  0.3320 -0.1642 -0.1925
 1825TIP3   OH229669   5.003   1.147   8.106 -0.0249  0.1054  0.3554
 1825TIP3    H129670   4.966   1.080   8.048 -1.8650  1.4047 -0.0616
 1825TIP3    H229671   4.995   1.228   8.056 -1.3055  1.2064  2.2275
 1826TIP3   OH229672   1.479   7.508   6.935  0.0209  0.1531  0.1054
 1826TIP3    H129673   1.433   7.458   6.867 -1.0821  0.3909  0.6542
 1826TIP3    H229674   1.409   7.545   6.989  0.7307  2.7445 -0.5952
 1827TIP3   OH229675   4.743   1.025   8.485  0.5327 -0.0616 -0.2632
 1827TIP3    H129676   4.785   0.961   8.543  0.6100  0.1269 -0.1114
 1827TIP3    H229677   4.807   1.095   8.475  0.0477  0.4954  0.4182
 1828TIP3   OH229678   7.145   1.072   8.472 -0.2334 -0.6006 -0.3510
 1828TIP3    H129679   7.066   1.107   8.512  1.3245  0.8956  1.6249
 1828TIP3    H229680   7.183   1.015   8.539  0.3489 -1.3445 -1.2865
 1829TIP3   OH229681   6.166   2.788   9.287 -0.6295 -0.1905 -0.1979
 1829TIP3    H129682   6.088   2.793   9.342 -0.4976 -1.0898  0.0897
 1829TIP3    H229683   6.154   2.709   9.234 -1.4110  1.3750 -2.5292
 1830TIP3   OH229684   6.512   3.776   8.011  0.3768 -0.6889 -0.5302
 1830TIP3    H129685   6.527   3.690   8.050  0.5142 -0.5117 -0.1917
 1830TIP3    H229686   6.585   3.789   7.951  0.4256 -0.7504 -0.4838
 1831TIP3   OH229687   4.205   0.143   9.277 -0.4304 -0.5477  0.2812
 1831TIP3    H129688   4.176   0.150   9.185  1.9285  1.9303 -0.4054
 1831TIP3    H229689   4.173   0.057   9.305 -1.6941 -1.2037 -2.6817
 1832TIP3   OH229690   6.527   4.902   7.564  0.1023 -0.1300  0.4420
 1832TIP3    H129691   6.476   4.961   7.509  0.2231 -0.8196 -0.4369
 1832TIP3    H229692   6.605   4.953   7.588 -0.3848  0.4886  0.7438
 1833TIP3   OH229693   4.713   1.528   7.033  0.0583  0.1963 -0.1347
 1833TIP3    H129694   4.643   1.471   7.062  0.5923 -0.9004 -0.9243
 1833TIP3    H229695   4.793   1.487   7.067  0.4825  0.2110 -1.0832
 1834TIP3   OH229696   6.244   7.040   7.666  0.3872  0.7635  0.1147
 1834TIP3    H129697   6.297   7.078   7.736 -0.9200  1.2949  0.8372
 1834TIP3    H229698   6.223   7.113   7.609  0.3556  0.5639 -0.1341
 1835TIP3   OH229699   6.375   2.085   8.231  0.5700 -0.4177  0.6720
 1835TIP3    H129700   6.400   2.097   8.139 -0.4888  0.5038  0.4954
 1835TIP3    H229701   6.301   2.144   8.245 -0.1909 -1.5674  1.7493
 1836TIP3   OH229702   3.398   6.998   8.987  0.1102 -0.4438  0.3238
 1836TIP3    H129703   3.417   6.905   8.983  1.8116 -0.0973 -1.2403
 1836TIP3    H229704   3.457   7.032   9.055  0.5146 -0.3283 -0.0751
 1837TIP3   OH229705   4.202   4.892   8.522  0.0402 -0.5994 -0.1555
 1837TIP3    H129706   4.236   4.806   8.546  1.0366 -0.1268  0.1865
 1837TIP3    H229707   4.134   4.910   8.587  1.2324 -0.2669  1.0470
 1838TIP3   OH229708   2.199   1.339   8.451  0.5853 -0.4046 -0.3039
 1838TIP3    H129709   2.215   1.247   8.473 -1.7804 -0.7840  0.0581
 1838TIP3    H229710   2.170   1.379   8.533  1.0139  0.5327 -0.5942
 1839TIP3   OH229711   1.148   6.428   7.705 -0.3317  0.0185 -0.1297
 1839TIP3    H129712   1.070   6.373   7.696 -0.3084  0.0370 -0.4540
 1839TIP3    H229713   1.166   6.429   7.799 -0.6681 -0.0612 -0.0636
 1840TIP3   OH229714   4.558   3.754   9.030 -0.7890  0.3498  0.1804
 1840TIP3    H129715   4.624   3.710   8.976  0.3861  1.2562  0.8433
 1840TIP3    H229716   4.577   3.847   9.020 -0.8487  0.5535  1.7685
 1841TIP3   OH229717   7.174   6.571   7.713 -0.4242 -0.9352  0.1173
 1841TIP3    H129718   7.139   6.653   7.680 -2.1311 -1.6506  0.0744
 1841TIP3    H229719   7.234   6.541   7.645  0.2300  0.2451  0.1404
 1842TIP3   OH229720   2.964   2.089   8.011 -0.1622 -0.7177  0.3824
 1842TIP3    H129721   2.951   2.183   7.998  0.2401 -0.9092 -1.8324
 1842TIP3    H229722   2.917   2.069   8.092  0.5465  1.5341  1.4483
 1843TIP3   OH229723   4.044   3.102   8.513 -0.3184  0.3165 -0.8047
 1843TIP3    H129724   4.005   3.113   8.426  1.2177  1.2280 -1.4377
 1843TIP3    H229725   4.129   3.061   8.496 -0.5829 -0.7939  0.4205
 1844TIP3   OH229726   0.813   2.188   9.255  0.2879 -1.0089 -0.2493
 1844TIP3    H129727   0.776   2.123   9.195 -2.0240  0.1775 -0.2668
 1844TIP3    H229728   0.739   2.214   9.310  1.0663  1.6051 -0.2765
 1845TIP3   OH229729   4.157   1.268   7.815 -0.2814 -0.3584 -0.2189
 1845TIP3    H129730   4.087   1.206   7.832 -0.9749  0.9198  2.0518
 1845TIP3    H229731   4.121   1.353   7.842  1.8612  0.4605  0.3099
 1846TIP3   OH229732   6.368   5.637   8.248 -0.1739 -0.0634  0.2650
 1846TIP3    H129733   6.351   5.601   8.161  0.2842  2.2601 -0.8579
 1846TIP3    H229734   6.294   5.607   8.301 -0.6344 -1.2555 -0.9920
 1847TIP3   OH229735   3.220   3.871   7.283  0.6639  0.3767 -0.5145
 1847TIP3    H129736   3.299   3.925   7.295  0.1733  1.2230 -0.9757
 1847TIP3    H229737   3.149   3.935   7.277  0.3794 -0.0975 -3.9633
 1848TIP3   OH229738   6.187   3.572   9.292 -0.0183  0.2939  0.3483
 1848TIP3    H129739   6.096   3.581   9.321 -1.0053  0.1121 -2.3881
 1848TIP3    H229740   6.210   3.481   9.314  0.1471  0.7965  2.5194
 1849TIP3   OH229741   5.603   5.462   9.256  0.1267  0.2875  0.1186
 1849TIP3    H129742   5.541   5.512   9.203  0.5856  0.2201 -0.4880
 1849TIP3    H229743   5.638   5.526   9.318  0.2490  0.5775 -0.2466
 1850TIP3   OH229744   0.098   4.408   8.350 -0.1110 -0.1721 -0.3114
 1850TIP3    H129745   0.042   4.390   8.274 -0.7832 -0.4745  0.2446
 1850TIP3    H229746   0.187   4.399   8.316 -0.3560 -3.2094 -0.4562
 1851TIP3   OH229747   2.387   3.921   7.405 -0.2498  0.5299  0.0814
 1851TIP3    H129748   2.320   3.868   7.361 -0.6715 -0.8583  2.2118
 1851TIP3    H229749   2.470   3.879   7.382 -0.3392  0.6790 -0.5142
 1852TIP3   OH229750   0.121   7.678   9.249 -0.6763  0.4433  0.0906
 1852TIP3    H129751   0.127   7.597   9.199  1.8449  1.1795 -0.9382
 1852TIP3    H229752   0.049   7.727   9.208 -0.1213  0.0728 -1.3662
 1853TIP3   OH229753   7.086   2.521   8.785  0.3869 -0.3563  0.4309
 1853TIP3    H129754   7.008   2.567   8.815 -0.5871 -1.0386 -0.9615
 1853TIP3    H229755   7.126   2.486   8.864 -2.1511 -2.2369  0.9982
 1854TIP3   OH229756   1.074   6.849   8.910  0.0848  0.0031 -0.0651
 1854TIP3    H129757   1.143   6.801   8.865 -0.7492 -0.6031 -0.7362
 1854TIP3    H229758   1.051   6.794   8.985 -0.5975 -0.4673 -0.6107
 1855TIP3   OH229759   2.865   0.315   8.908  0.2092  0.1172  0.0134
 1855TIP3    H129760   2.865   0.226   8.874  2.0165 -0.0855  0.4393
 1855TIP3    H229761   2.826   0.308   8.995 -0.4712 -0.0933 -0.3030
 1856TIP3   OH229762   6.154   2.799   8.822 -0.1943 -0.3423 -0.4157
 1856TIP3    H129763   6.202   2.850   8.757  0.3987 -0.1910  0.1270
 1856TIP3    H229764   6.062   2.808   8.797 -0.1157  1.0031 -0.3467
 1857TIP3   OH229765   5.129   2.777   9.131  0.0489  0.1985 -0.3743
 1857TIP3    H129766   5.069   2.847   9.155  0.9532  0.7292  0.3974
 1857TIP3    H229767   5.205   2.790   9.187  0.7586 -0.6532 -1.1110
 1858TIP3   OH229768   1.169   0.191   7.133 -0.2448 -0.4541 -0.1826
 1858TIP3    H129769   1.209   0.263   7.084 -0.6187  0.7118  1.1450
 1858TIP3    H229770   1.095   0.163   7.078 -1.4055  1.6326  0.1991
 1859TIP3   OH229771   7.323   0.930   9.062  0.2531 -0.2033  0.3397
 1859TIP3    H129772   7.257   0.866   9.088  0.8519 -0.5288  1.1123
 1859TIP3    H229773   7.356   0.965   9.144 -0.1381  1.1958 -0.0813
 1860TIP3   OH229774   3.047   1.982   9.299  0.6864 -0.7794  0.4287
 1860TIP3    H129775   2.971   1.924   9.303  0.6939 -0.8302 -0.1712
 1860TIP3    H229776   3.083   1.980   9.388 -0.1915 -0.5062  0.8009
 1861TIP3   OH229777   2.542   2.379   8.915 -0.1590 -0.5098  0.0905
 1861TIP3    H129778   2.620   2.350   8.869 -0.8749 -2.4325 -0.0108
 1861TIP3    H229779   2.493   2.299   8.932 -1.0412  0.3897  2.1475
 1862TIP3   OH229780   1.262   5.756   6.934 -0.0348 -0.2460 -0.1188
 1862TIP3    H129781   1.253   5.839   6.887  0.7236  0.3572  0.7744
 1862TIP3    H229782   1.211   5.694   6.882 -2.4772  1.2310  0.3292
 1863TIP3   OH229783   3.725   2.289   9.084  0.3879  0.0082  0.4042
 1863TIP3    H129784   3.774   2.350   9.029 -0.4361  1.5377  1.3111
 1863TIP3    H229785   3.762   2.301   9.172  1.2702 -1.9575  0.3613
 1864TIP3   OH229786   2.858   5.970   8.669  0.4611 -0.5370 -0.1754
 1864TIP3    H129787   2.944   5.979   8.629  0.3536 -0.8877 -0.4964
 1864TIP3    H229788   2.866   6.014   8.754  1.0088 -0.7257 -0.1212
 1865TIP3   OH229789   2.274   1.141   9.320 -0.3553 -0.1671  0.3374
 1865TIP3    H129790   2.224   1.061   9.336 -0.3019 -0.3381 -0.2854
 1865TIP3    H229791   2.364   1.110   9.308 -0.2276  0.0572  0.7308
 1866TIP3   OH229792   2.731   2.750   7.761 -0.3618  0.6220 -0.1025
 1866TIP3    H129793   2.640   2.763   7.736 -0.8857  2.6386  2.4029
 1866TIP3    H229794   2.778   2.739   7.679 -2.8734 -0.8397 -1.4399
 1867TIP3   OH229795   5.817   3.891   7.048  0.1060 -0.1849 -0.3289
 1867TIP3    H129796   5.796   3.959   7.112  1.0759 -1.4125  1.3873
 1867TIP3    H229797   5.832   3.812   7.101 -2.1349 -2.0940 -2.2827
 1868TIP3   OH229798   0.915   7.646   9.070 -0.5473  0.3116  0.0456
 1868TIP3    H129799   0.909   7.594   9.151  3.1569 -1.2917 -0.4970
 1868TIP3    H229800   0.974   7.718   9.093 -0.2800  0.4159 -0.9490
 1869TIP3   OH229801   2.592   5.485   7.112 -0.4780  0.6232 -0.1039
 1869TIP3    H129802   2.546   5.446   7.186 -1.0753  2.1104  0.3331
 1869TIP3    H229803   2.676   5.513   7.148 -0.3038  0.3088 -0.2657
 1870TIP3   OH229804   7.313   2.029   8.877  0.1144  0.0616 -0.0517
 1870TIP3    H129805   7.347   2.118   8.865  1.1306 -0.1520  0.9304
 1870TIP3    H229806   7.281   2.028   8.968  0.6552 -0.7201  0.1461
 1871TIP3   OH229807   5.644   4.170   8.412  0.0110  0.0316  0.2579
 1871TIP3    H129808   5.596   4.092   8.439  0.7284 -1.3852 -2.3511
 1871TIP3    H229809   5.673   4.152   8.323  4.1640  1.3903  1.1192
 1872TIP3   OH229810   2.790   0.007   8.324 -0.9711 -0.0825  0.2613
 1872TIP3    H129811   2.792  -0.003   8.229 -0.8520 -3.4787  0.4906
 1872TIP3    H229812   2.737   0.085   8.339  0.3887  1.5631 -2.5699
 1873TIP3   OH229813   0.417   0.556   8.834  0.2090 -0.7147 -0.1412
 1873TIP3    H129814   0.398   0.552   8.928  0.4381  0.2914 -0.0420
 1873TIP3    H229815   0.509   0.531   8.827  0.2762 -0.4940 -0.0606
 1874TIP3   OH229816   0.289   1.660   7.738  0.3696 -0.7558  0.1867
 1874TIP3    H129817   0.345   1.616   7.674  0.0764 -1.2660  0.2748
 1874TIP3    H229818   0.290   1.602   7.814  0.3117 -0.4011  0.4638
 1875TIP3   OH229819   1.629   3.141   7.002  0.2953  0.0482  0.0024
 1875TIP3    H129820   1.712   3.124   7.047  1.9683 -1.3112 -3.2545
 1875TIP3    H229821   1.583   3.057   7.003 -0.0942  0.2605  0.0433
 1876TIP3   OH229822   2.268   7.245   8.560 -0.1395  0.1391  0.1607
 1876TIP3    H129823   2.348   7.228   8.510 -0.3829  0.5380 -0.3767
 1876TIP3    H229824   2.219   7.162   8.555 -0.6405  0.4836 -1.1785
 1877TIP3   OH229825   5.746   5.066   9.476 -0.2837 -0.7717 -0.3309
 1877TIP3    H129826   5.672   5.058   9.417 -0.9190 -1.9984  0.5991
 1877TIP3    H229827   5.823   5.063   9.418 -0.9129 -0.6336 -1.1938
 1878TIP3   OH229828   0.699   1.721   8.489 -0.4917 -0.1819  0.4719
 1878TIP3    H129829   0.715   1.770   8.409 -0.2739 -1.9039 -0.5921
 1878TIP3    H229830   0.711   1.629   8.464 -0.7181 -0.7883  2.4056
 1879TIP3   OH229831   1.416   1.508   6.822  0.2287 -0.1602  0.0486
 1879TIP3    H129832   1.369   1.426   6.810  0.5559 -0.4561  0.7370
 1879TIP3    H229833   1.508   1.483   6.826  0.2035 -0.2072  3.4405
 1880TIP3   OH229834   2.802   0.508   6.719 -0.2781 -0.7808  0.1923
 1880TIP3    H129835   2.798   0.435   6.658  1.7978 -0.0231 -0.9357
 1880TIP3    H229836   2.891   0.506   6.754 -0.0467  1.3614 -0.1331
 1881TIP3   OH229837   1.095   4.051   8.325  0.0880 -0.1236 -0.3403
 1881TIP3    H129838   1.027   4.091   8.270 -0.0599  2.7486  1.7151
 1881TIP3    H229839   1.175   4.095   8.300  0.6464 -1.1907 -0.4990
 1882TIP3   OH229840   6.672   4.140   7.745  0.2294 -0.2362  0.0767
 1882TIP3    H129841   6.745   4.156   7.806 -0.0858 -0.1167  0.4234
 1882TIP3    H229842   6.659   4.223   7.700  0.7723 -0.4537 -0.4970
 1883TIP3   OH229843   5.886   3.557   7.742  0.1441  0.6592  0.1351
 1883TIP3    H129844   5.964   3.607   7.718  0.5202  0.5530  1.1240
 1883TIP3    H229845   5.819   3.624   7.758 -0.1340  0.7346 -1.2192
 1884TIP3   OH229846   3.279   0.849   7.273  0.3737  0.1397  0.2250
 1884TIP3    H129847   3.279   0.945   7.275 -0.7165  0.1577  0.3568
 1884TIP3    H229848   3.345   0.826   7.208  0.6040  0.9796  0.1472
 1885TIP3   OH229849   1.671   6.434   8.349 -0.5861 -0.0125 -0.1254
 1885TIP3    H129850   1.705   6.478   8.427 -1.8379 -1.6360  1.4277
 1885TIP3    H229851   1.583   6.469   8.338 -1.0830 -1.0806  0.3164
 1886TIP3   OH229852   5.398   2.301   8.857 -0.3056 -0.1484  0.2232
 1886TIP3    H129853   5.358   2.367   8.800 -0.8790  0.5079  1.3469
 1886TIP3    H229854   5.340   2.224   8.849 -1.3300  0.4945  1.1475
 1887TIP3   OH229855   0.263   2.327   7.279  0.2744  0.3469  0.6815
 1887TIP3    H129856   0.174   2.339   7.313  0.7509  0.5753  1.9035
 1887TIP3    H229857   0.251   2.317   7.185 -0.9331  1.7134  0.6505
 1888TIP3   OH229858   3.478   1.300   8.887 -0.3826  0.1177  0.4026
 1888TIP3    H129859   3.548   1.265   8.833 -0.2115 -0.0260  0.7165
 1888TIP3    H229860   3.414   1.229   8.893 -0.2946  0.0549  0.5813
 1889TIP3   OH229861   1.317   7.641   7.117 -0.3533  0.2121  0.3565
 1889TIP3    H129862   1.251   7.709   7.128 -1.0791 -0.3445 -0.3665
 1889TIP3    H229863   1.386   7.663   7.179 -0.8649  1.2461  0.5719
 1890TIP3   OH229864   3.215   5.626   8.495 -0.0689  0.0824  0.0905
 1890TIP3    H129865   3.230   5.537   8.526  1.6113 -0.1112 -1.1478
 1890TIP3    H229866   3.217   5.620   8.400  0.0801  1.4406 -0.0124
 1891TIP3   OH229867   1.612   1.293   8.157  0.3505 -0.0712 -0.0017
 1891TIP3    H129868   1.648   1.303   8.245 -1.7853  0.4396  0.8484
 1891TIP3    H229869   1.608   1.381   8.122 -1.5536  0.0970  0.5555
 1892TIP3   OH229870   5.226   2.853   9.604 -0.0199 -0.1953 -0.1275
 1892TIP3    H129871   5.145   2.898   9.627 -0.7863 -1.1973 -0.7568
 1892TIP3    H229872   5.290   2.922   9.594 -0.8727  0.6470  0.0971
 1893TIP3   OH229873   6.841   2.692   8.664  0.5027  0.3450  0.4929
 1893TIP3    H129874   6.793   2.684   8.746  2.8517 -0.0598  1.9019
 1893TIP3    H229875   6.829   2.783   8.638  0.6637  0.7929  1.8976
 1894TIP3   OH229876   3.117   6.676   8.885  0.3809  0.0462  0.3237
 1894TIP3    H129877   3.169   6.703   8.961  0.0431  1.5372  0.0531
 1894TIP3    H229878   3.161   6.597   8.853  2.2464  1.0115  0.3653
 1895TIP3   OH229879   7.615   3.421   9.204  0.6842 -0.3372  0.6937
 1895TIP3    H129880   7.593   3.489   9.140 -1.2810 -1.4287  0.1181
 1895TIP3    H229881   7.664   3.467   9.273 -0.6598  1.6880  0.3682
 1896TIP3   OH229882   2.662   5.716   7.326 -0.3995  0.2104 -0.5268
 1896TIP3    H129883   2.715   5.650   7.282  0.6163  1.5251 -1.3836
 1896TIP3    H229884   2.615   5.668   7.394 -0.4921 -1.5422 -1.7621
 1897TIP3   OH229885   1.958   3.698   8.896 -0.2169 -0.5949  0.1112
 1897TIP3    H129886   1.900   3.643   8.844 -0.4754 -0.1435 -0.0840
 1897TIP3    H229887   2.039   3.704   8.845  0.0902 -1.4147  0.4936
 1898TIP3   OH229888   1.534   3.570   8.407 -0.5339 -0.5333 -0.4567
 1898TIP3    H129889   1.541   3.658   8.444  1.1037 -1.1818  0.9170
 1898TIP3    H229890   1.598   3.569   8.336 -2.1661  0.0415 -2.0090
 1899TIP3   OH229891   5.842   0.043   7.518  0.5547  0.2695 -0.4378
 1899TIP3    H129892   5.767   0.045   7.459 -0.8917 -1.5713  1.1953
 1899TIP3    H229893   5.825   0.113   7.581  1.3226  1.2262 -1.2593
 1900TIP3   OH229894   3.470   2.663   7.089 -0.2467 -0.0934 -0.3861
 1900TIP3    H129895   3.484   2.589   7.030  0.9920 -0.1652 -0.0250
 1900TIP3    H229896   3.527   2.732   7.055 -0.7844  0.4341 -0.2426
 1901TIP3   OH229897   0.132   7.238   7.764  0.4438 -0.3177 -0.5166
 1901TIP3    H129898   0.067   7.305   7.787  0.3105 -0.4707 -0.4473
 1901TIP3    H229899   0.213   7.268   7.806 -0.2618 -1.6978  2.0967
 1902TIP3   OH229900   6.154   7.137   8.752 -0.1322 -0.4928 -0.4220
 1902TIP3    H129901   6.136   7.200   8.822  1.8119  0.0001 -0.3147
 1902TIP3    H229902   6.159   7.052   8.796 -1.5509 -0.5872 -0.3902
 1903TIP3   OH229903   2.770   3.419   9.455  0.3832 -0.3155 -0.0074
 1903TIP3    H129904   2.751   3.397   9.364  1.3169 -0.3291 -0.2128
 1903TIP3    H229905   2.786   3.335   9.498  2.3842 -0.2066 -0.4253
 1904TIP3   OH229906   4.977   2.551   6.775 -0.2212  0.3146 -0.1784
 1904TIP3    H129907   4.967   2.623   6.713 -1.3705 -0.5185 -0.9985
 1904TIP3    H229908   4.911   2.568   6.843  0.3440  0.6783  0.2909
 1905TIP3   OH229909   1.685   3.481   8.872  0.0415 -0.0159 -0.4074
 1905TIP3    H129910   1.636   3.558   8.901  0.3134 -0.6049  1.8001
 1905TIP3    H229911   1.645   3.456   8.789 -2.6455  0.2052  0.7405
 1906TIP3   OH229912   7.430   3.788   9.433 -0.4493  0.1093  0.1005
 1906TIP3    H129913   7.416   3.873   9.392  0.9587  0.0892 -0.4740
 1906TIP3    H229914   7.342   3.756   9.454 -1.2323  0.2542 -2.6018
 1907TIP3   OH229915   6.553   3.838   7.362 -0.0309  0.1551 -0.0987
 1907TIP3    H129916   6.599   3.920   7.342  1.8906 -0.9859 -0.5671
 1907TIP3    H229917   6.612   3.792   7.422  0.6348 -2.3886 -2.5424
 1908TIP3   OH229918   7.053   7.350   7.785  0.3134 -0.0179  0.6889
 1908TIP3    H129919   7.087   7.288   7.720  0.0260  0.8848 -0.3614
 1908TIP3    H229920   6.960   7.330   7.791 -0.0424  1.1035 -0.6142
 1909TIP3   OH229921   0.491   1.367   9.427 -0.1087 -0.4213 -0.5801
 1909TIP3    H129922   0.580   1.339   9.402  0.3803 -0.6466  1.2660
 1909TIP3    H229923   0.435   1.297   9.394  0.2951  0.0559 -2.3746
 1910TIP3   OH229924   6.277   2.566   8.626 -0.2390 -0.1594 -0.3274
 1910TIP3    H129925   6.247   2.508   8.695 -0.0648  1.0179  0.7750
 1910TIP3    H229926   6.202   2.623   8.607  0.5907  1.5166  1.0794
 1911TIP3   OH229927   6.160   5.176   8.609  0.0909 -0.1938  0.2162
 1911TIP3    H129928   6.116   5.159   8.526  1.5486 -0.4458 -0.5386
 1911TIP3    H229929   6.141   5.268   8.628  1.0714  0.3388 -1.2532
 1912TIP3   OH229930   4.051   6.657   9.584 -0.2545 -0.1418 -0.3714
 1912TIP3    H129931   4.127   6.701   9.623 -0.6311  3.4264 -3.1100
 1912TIP3    H229932   4.085   6.572   9.556  1.5323 -0.3954  2.1930
 1913TIP3   OH229933   6.160   5.216   7.765 -0.1222 -0.4051  0.0151
 1913TIP3    H129934   6.218   5.253   7.832 -0.5437  1.1907 -0.4639
 1913TIP3    H229935   6.167   5.121   7.777  0.6790 -0.1788  1.5746
 1914TIP3   OH229936   6.034   1.757   8.164 -0.0025 -0.3956  0.0637
 1914TIP3    H129937   6.080   1.678   8.134  1.9941  0.3054  1.1143
 1914TIP3    H229938   6.101   1.810   8.206 -1.3693  1.7186 -0.2479
 1915TIP3   OH229939   5.823   6.643   9.116  0.2685  0.3053 -0.1115
 1915TIP3    H129940   5.757   6.583   9.083  0.2618 -0.3847  1.0755
 1915TIP3    H229941   5.875   6.667   9.040  0.8546 -1.9626 -0.4944
 1916TIP3   OH229942   3.363   2.009   8.915 -0.2115 -0.2166 -0.1273
 1916TIP3    H129943   3.342   1.960   8.836 -0.1007 -0.7915  0.1989
 1916TIP3    H229944   3.343   2.100   8.893 -1.4933 -0.5380 -0.3711
 1917TIP3   OH229945   6.109   5.019   7.045  0.2905 -0.1762 -0.0565
 1917TIP3    H129946   6.140   5.082   7.110  0.7016 -0.4134 -0.0181
 1917TIP3    H229947   6.068   4.949   7.096 -0.3153  0.1334 -0.1067
 1918TIP3   OH229948   3.885   1.881   8.158  0.0496 -0.8182  0.2098
 1918TIP3    H129949   3.874   1.822   8.084 -1.6606 -0.4773  0.1463
 1918TIP3    H229950   3.951   1.839   8.212  1.0728 -1.2621 -1.3085
 1919TIP3   OH229951   4.139   0.212   9.002  0.3279  0.5652  0.2451
 1919TIP3    H129952   4.212   0.265   8.972 -0.4958  2.1324  0.9011
 1919TIP3    H229953   4.097   0.180   8.922  0.6870  1.1251 -0.1735
 1920TIP3   OH229954   0.302   2.565   7.679  0.2525 -0.9104  0.1279
 1920TIP3    H129955   0.332   2.492   7.626 -0.2300 -0.0277 -1.4558
 1920TIP3    H229956   0.361   2.567   7.754  2.4663 -0.8416 -1.5212
 1921TIP3   OH229957   4.444   5.432   8.322  0.1056 -0.2080 -0.2403
 1921TIP3    H129958   4.353   5.445   8.294 -0.1176 -0.1087  0.4989
 1921TIP3    H229959   4.439   5.428   8.418  0.7825 -0.9924 -0.2278
 1922TIP3   OH229960   1.546   2.790   8.655  0.3481 -0.5373 -0.2426
 1922TIP3    H129961   1.487   2.748   8.592  0.2019  0.7939 -1.0292
 1922TIP3    H229962   1.492   2.855   8.699  1.1149  0.3793 -0.6376
 1923TIP3   OH229963   7.331   7.188   7.760  0.0716  0.4393  0.1603
 1923TIP3    H129964   7.418   7.164   7.791 -0.6666 -1.3886  0.9778
 1923TIP3    H229965   7.279   7.200   7.839 -0.3355  1.9917 -0.3042
 1924TIP3   OH229966   2.843   1.155   7.657  0.1353 -0.1102  0.8469
 1924TIP3    H129967   2.927   1.124   7.691  0.1018 -1.3472 -0.1080
 1924TIP3    H229968   2.838   1.117   7.569 -0.9567  0.8153  0.4878
 1925TIP3   OH229969   1.433   1.220   7.242 -0.4483 -0.3475  0.4028
 1925TIP3    H129970   1.475   1.138   7.267  1.8874  0.8568  0.6359
 1925TIP3    H229971   1.490   1.258   7.176 -1.4112  1.1604  0.3781
 1926TIP3   OH229972   7.086   5.663   8.758 -0.3242 -0.5820 -0.3170
 1926TIP3    H129973   7.034   5.633   8.683 -2.2561 -0.5341  0.9522
 1926TIP3    H229974   7.145   5.729   8.721 -1.0921 -0.6920 -1.8190
 1927TIP3   OH229975   4.039   6.971   9.512 -0.3746  0.1045 -0.0969
 1927TIP3    H129976   4.038   6.981   9.416 -1.1747 -0.5246 -0.1619
 1927TIP3    H229977   4.015   6.880   9.527 -0.4308  0.2472  0.7137
 1928TIP3   OH229978   1.738   4.574   7.984 -0.2470 -0.2997 -0.3814
 1928TIP3    H129979   1.727   4.586   8.078  1.9431  0.5558 -0.1740
 1928TIP3    H229980   1.800   4.501   7.977 -1.6738 -1.4882 -1.2543
 1929TIP3   OH229981   0.532   5.696   7.470  0.1125 -0.1293 -0.7797
 1929TIP3    H129982   0.473   5.691   7.545 -0.0948 -0.9782 -0.9880
 1929TIP3    H229983   0.551   5.605   7.448  2.3123  0.0868 -0.0920
 1930TIP3   OH229984   1.090   3.230   8.123  0.1707 -0.2158 -0.5579
 1930TIP3    H129985   1.178   3.247   8.156 -0.5113 -1.1018  1.9007
 1930TIP3    H229986   1.040   3.308   8.145 -0.5011 -1.1563  1.4519
 1931TIP3   OH229987   7.559   2.472   8.610  0.5216 -0.5842  0.2327
 1931TIP3    H129988   7.586   2.505   8.524 -0.1657  1.6224  0.7892
 1931TIP3    H229989   7.471   2.437   8.595 -0.5191  1.7599  0.3512
 1932TIP3   OH229990   1.259   3.727   8.869 -0.3628 -0.0897  0.0521
 1932TIP3    H129991   1.267   3.696   8.960 -2.5750 -0.5410  0.1294
 1932TIP3    H229992   1.192   3.796   8.873 -0.3991 -0.0364 -1.2317
 1933TIP3   OH229993   4.226   6.821   7.952  0.3132 -0.0358 -0.1974
 1933TIP3    H129994   4.243   6.877   7.876  0.6699  0.2399  0.0807
 1933TIP3    H229995   4.164   6.870   8.005  1.1159  0.3897  0.3621
 1934TIP3   OH229996   5.871   3.187   8.809 -0.3782  0.1720 -0.1389
 1934TIP3    H129997   5.890   3.168   8.717  1.9731  0.3549  0.2295
 1934TIP3    H229998   5.915   3.270   8.826 -2.5586  1.2312  0.6651
 1935TIP3   OH229999   0.095   4.277   7.952  0.2908  0.3026 -0.2326
 1935TIP3    H130000   0.045   4.208   7.996  0.9338  0.1836  0.3306
 1935TIP3    H230001   0.144   4.319   8.023 -0.0882  1.3397 -0.5666
 1936TIP3   OH230002   0.627   3.636   7.858 -0.1648 -0.0675  0.9323
 1936TIP3    H130003   0.614   3.554   7.906 -0.7468  0.2207  1.2732
 1936TIP3    H230004   0.720   3.657   7.872  0.2986 -1.2733 -0.1473
 1937TIP3   OH230005   6.648   4.048   8.824  0.3398 -0.3049  0.2005
 1937TIP3    H130006   6.647   4.011   8.736 -0.4525 -0.9686  0.4677
 1937TIP3    H230007   6.605   3.982   8.878 -1.5716  1.1678  0.6248
 1938TIP3   OH230008   7.535   0.955   8.900 -0.3344 -0.4712  0.3535
 1938TIP3    H130009   7.514   0.884   8.839  0.2125 -0.3474  0.0170
 1938TIP3    H230010   7.473   0.944   8.972 -2.2197  0.4367 -1.0455
 1939TIP3   OH230011   2.793   4.691   8.494  0.6803  0.6381  0.1284
 1939TIP3    H130012   2.730   4.743   8.544 -0.6105 -1.9924  1.4961
 1939TIP3    H230013   2.795   4.607   8.540  3.4835 -0.1671 -1.2559
 1940TIP3   OH230014   4.218   0.628   9.528  0.5620 -0.2767  0.1015
 1940TIP3    H130015   4.212   0.581   9.445 -2.9678 -1.2932  0.8015
 1940TIP3    H230016   4.202   0.561   9.595  0.3324  1.0480  1.4258
 1941TIP3   OH230017   6.036   7.421   8.145  1.0396  0.3860  0.7006
 1941TIP3    H130018   6.003   7.485   8.208  0.0122  0.1340  0.4368
 1941TIP3    H230019   6.092   7.363   8.197 -0.2226 -0.1414  1.5342
 1942TIP3   OH230020   7.293   2.264   7.859  0.4825  0.0290  0.1429
 1942TIP3    H130021   7.349   2.294   7.787 -0.8106  0.4365 -0.7410
 1942TIP3    H230022   7.348   2.271   7.937  2.1476 -1.0331 -0.8595
 1943TIP3   OH230023   6.919   4.225   7.853 -0.0044  0.2610  0.2729
 1943TIP3    H130024   6.988   4.189   7.908  1.2818 -0.0838 -1.4903
 1943TIP3    H230025   6.949   4.314   7.832 -0.7922  0.6215  0.6264
 1944TIP3   OH230026   6.383   1.692   9.360  0.1949 -0.0075  0.0633
 1944TIP3    H130027   6.435   1.730   9.288 -1.2946  1.4827 -0.3173
 1944TIP3    H230028   6.390   1.757   9.430 -0.1307 -0.4068  0.4636
 1945TIP3   OH230029   6.353   2.194   9.242 -0.3783  0.1049  0.5000
 1945TIP3    H130030   6.282   2.165   9.186 -0.7065  0.2042  0.8612
 1945TIP3    H230031   6.374   2.282   9.211  0.7153 -0.5369 -0.6924
 1946TIP3   OH230032   1.404   1.303   7.506  0.1766 -0.3175 -0.2790
 1946TIP3    H130033   1.357   1.220   7.509 -0.2658 -0.0427  0.8674
 1946TIP3    H230034   1.443   1.305   7.418 -0.7933 -1.1855 -0.7575
 1947TIP3   OH230035   5.151   3.959   8.242 -0.0941  0.1385 -0.1470
 1947TIP3    H130036   5.112   3.937   8.157 -1.0516  0.8624  0.0909
 1947TIP3    H230037   5.209   4.033   8.224  0.2183 -0.1365 -0.2817
 1948TIP3   OH230038   0.372   6.308   8.354 -0.5546  0.6654  0.4226
 1948TIP3    H130039   0.374   6.213   8.338  0.8933  0.4153  1.8485
 1948TIP3    H230040   0.348   6.346   8.270  1.5447 -0.8304 -0.9458
 1949TIP3   OH230041   7.276   2.481   7.292 -0.2117 -0.0764 -0.5206
 1949TIP3    H130042   7.301   2.402   7.245  1.0175  0.2805 -0.5232
 1949TIP3    H230043   7.349   2.541   7.277 -1.1313  1.0675 -0.5322
 1950TIP3   OH230044   3.982   0.058   7.077  0.1549  0.2068 -0.1681
 1950TIP3    H130045   3.943   0.006   7.007 -0.6404 -0.0165  0.4272
 1950TIP3    H230046   4.067   0.016   7.094  0.0010 -0.2238 -0.4514
 1951TIP3   OH230047   7.561   1.156   7.871 -0.0645 -0.3873 -0.4585
 1951TIP3    H130048   7.470   1.183   7.873 -0.0000  0.0303 -2.2492
 1951TIP3    H230049   7.577   1.130   7.781  1.3791 -1.2345  0.0010
 1952TIP3   OH230050   6.678   0.538   7.326 -0.2962  0.0855 -0.7557
 1952TIP3    H130051   6.655   0.591   7.250 -0.6842  0.5019 -0.3519
 1952TIP3    H230052   6.722   0.461   7.290  0.2006  0.6417 -1.3545
 1953TIP3   OH230053   1.877   5.005   7.745 -0.0717  0.3706  0.0534
 1953TIP3    H130054   1.873   5.070   7.816 -1.9075  0.1150  0.2107
 1953TIP3    H230055   1.866   4.921   7.788  2.4017 -0.1450 -0.1401
 1954TIP3   OH230056   4.353   1.843   8.012 -0.2267  0.4769 -1.0855
 1954TIP3    H130057   4.419   1.812   8.074  0.1382  0.8148 -1.2965
 1954TIP3    H230058   4.391   1.827   7.925 -0.2508  1.0325 -1.2027
 1955TIP3   OH230059   5.296   0.708   9.489  0.1952 -0.2857 -0.1639
 1955TIP3    H130060   5.360   0.686   9.421 -0.0916  1.4263 -1.0440
 1955TIP3    H230061   5.338   0.680   9.571  0.8398 -1.7503 -0.9549
 1956TIP3   OH230062   2.981   5.818   7.412 -0.4331 -0.0966  0.2352
 1956TIP3    H130063   2.951   5.887   7.352 -2.5625 -0.3712  0.9102
 1956TIP3    H230064   3.059   5.855   7.454 -0.6209  1.2622 -0.5566
 1957TIP3   OH230065   7.019   7.141   8.642 -0.1385 -0.4833 -0.3276
 1957TIP3    H130066   7.089   7.081   8.616  1.3740  0.1385  1.9612
 1957TIP3    H230067   7.014   7.205   8.571  0.9646 -1.0670 -0.9616
 1958TIP3   OH230068   1.780   6.203   6.645  0.1808 -0.4439 -0.1561
 1958TIP3    H130069   1.849   6.260   6.679  0.0897  0.7802 -1.8886
 1958TIP3    H230070   1.784   6.125   6.700  1.7677  0.3285  0.8988
 1959TIP3   OH230071   1.424   5.794   7.158 -0.5602  0.0077 -0.0611
 1959TIP3    H130072   1.493   5.861   7.165 -0.0222 -0.7014  2.3942
 1959TIP3    H230073   1.381   5.813   7.075  0.1097  2.8940  0.1361
 1960TIP3   OH230074   7.438   2.899   8.145 -0.5840 -0.4754 -0.0095
 1960TIP3    H130075   7.425   2.974   8.088 -0.8070 -0.6190 -0.1508
 1960TIP3    H230076   7.457   2.826   8.086  0.8239 -0.2959  0.1796
 1961TIP3   OH230077   6.490   7.220   8.049  0.4577  0.4232 -0.3228
 1961TIP3    H130078   6.480   7.134   8.088 -1.1659 -0.2207 -2.0012
 1961TIP3    H230079   6.471   7.281   8.120 -2.6913 -0.6907 -0.0669
 1962TIP3   OH230080   4.528   1.154   9.434 -0.2937 -0.4016 -0.6381
 1962TIP3    H130081   4.600   1.217   9.435 -1.4899  1.0182  0.7283
 1962TIP3    H230082   4.550   1.093   9.504 -0.3290 -0.0819 -0.3478
 1963TIP3   OH230083   7.052   0.692   9.650  0.2699  0.2166 -0.0028
 1963TIP3    H130084   7.133   0.739   9.666  0.5433 -0.2801  0.0853
 1963TIP3    H230085   6.983   0.759   9.657  0.6627  0.6226 -0.0132
 1964TIP3   OH230086   2.036   5.806   6.509 -0.2125 -0.6954 -0.1986
 1964TIP3    H130087   1.965   5.823   6.572 -0.4921 -2.4031  0.0243
 1964TIP3    H230088   2.098   5.876   6.523 -1.0782 -0.0890  0.8070
 1965TIP3   OH230089   2.744   3.442   9.182 -0.1900  0.6211 -0.1449
 1965TIP3    H130090   2.656   3.409   9.163 -0.4940  1.1143  0.3746
 1965TIP3    H230091   2.747   3.527   9.137 -0.4172  1.1545  0.8191
 1966TIP3   OH230092   1.010   0.001   7.463  0.5013  0.4806  0.0963
 1966TIP3    H130093   1.020  -0.056   7.539  0.9902  1.1706  0.5563
 1966TIP3    H230094   0.977  -0.057   7.394 -1.5688  0.1712  1.2645
 1967TIP3   OH230095   2.293   6.962   9.633  0.4765  0.1604  0.4249
 1967TIP3    H130096   2.324   6.877   9.601  0.7934  0.9968 -1.6207
 1967TIP3    H230097   2.212   6.978   9.585  0.9371  1.4448  0.0244
 1968TIP3   OH230098   2.155   3.562   7.836  0.0097 -0.1661  0.8430
 1968TIP3    H130099   2.088   3.540   7.771  1.2201 -0.7598 -0.2375
 1968TIP3    H230100   2.157   3.658   7.837 -0.4117 -0.1483  0.4119
 1969TIP3   OH230101   2.099   3.935   7.336  0.0002 -0.2782 -0.3687
 1969TIP3    H130102   2.132   3.896   7.417  0.9251 -1.1811 -1.1550
 1969TIP3    H230103   2.035   3.873   7.303  0.2841 -0.3505 -0.7893
 1970TIP3   OH230104   3.515   6.338   9.371  0.0665 -0.3300 -0.2196
 1970TIP3    H130105   3.487   6.410   9.429 -0.7685 -0.4658 -0.4445
 1970TIP3    H230106   3.557   6.382   9.297  0.1331 -0.1027 -0.0478
 1971TIP3   OH230107   5.499   5.245   9.581  0.5485  0.2847 -0.0417
 1971TIP3    H130108   5.588   5.216   9.604 -0.3933 -1.5881  1.5515
 1971TIP3    H230109   5.460   5.170   9.537 -0.3213  1.0515 -0.6185
 1972TIP3   OH230110   0.096   7.311   7.068 -0.0878  0.7719 -0.3136
 1972TIP3    H130111   0.039   7.384   7.044 -3.5499 -1.5170  0.2221
 1972TIP3    H230112   0.118   7.327   7.160 -0.2176  1.5199 -0.4091
 1973TIP3   OH230113   4.109   6.202   8.784 -0.0720  0.2579 -0.0989
 1973TIP3    H130114   4.104   6.181   8.691  0.1433 -0.1158 -0.0265
 1973TIP3    H230115   4.050   6.277   8.795  1.1334  1.3465 -0.8461
 1974TIP3   OH230116   3.960   3.487   8.456 -0.1133 -0.2726 -0.3889
 1974TIP3    H130117   4.002   3.447   8.533  1.2405 -0.6897 -1.3088
 1974TIP3    H230118   3.958   3.418   8.391 -0.9528  0.1782 -0.8505
 1975TIP3   OH230119   1.663   6.669   9.628 -0.0745 -0.2151 -0.4341
 1975TIP3    H130120   1.589   6.609   9.636 -0.2569  0.0186 -0.3434
 1975TIP3    H230121   1.629   6.743   9.577  0.2296 -0.3175 -0.7956
 1976TIP3   OH230122   0.511   3.419   8.529  0.4414 -0.1541  0.3180
 1976TIP3    H130123   0.444   3.386   8.589 -0.1058  1.7302  0.8000
 1976TIP3    H230124   0.511   3.357   8.456 -2.1257  0.0031  0.1149
 1977TIP3   OH230125   1.470   5.513   7.120 -0.0220 -0.0121  0.0341
 1977TIP3    H130126   1.395   5.462   7.153  0.8142  0.1063  2.3237
 1977TIP3    H230127   1.435   5.601   7.106 -0.2637  0.1904  1.6343
 1978TIP3   OH230128   2.107   1.007   8.261  0.2843  0.4386 -0.1432
 1978TIP3    H130129   2.126   0.913   8.262 -0.4939  0.2740  0.7248
 1978TIP3    H230130   2.035   1.016   8.198  0.8499  0.5627 -0.7782
 1979TIP3   OH230131   2.112   2.438   8.703  0.2851 -0.6301  0.2578
 1979TIP3    H130132   2.146   2.446   8.792  0.4145  0.0636  0.1521
 1979TIP3    H230133   2.153   2.510   8.655 -0.4100 -0.5044 -0.1620
 1980TIP3   OH230134   1.358   3.856   6.934 -0.1887  0.4218 -0.0947
 1980TIP3    H130135   1.367   3.944   6.970  2.1055  0.9925 -1.8112
 1980TIP3    H230136   1.447   3.833   6.904 -0.6662 -2.5466  0.4375
 1981TIP3   OH230137   6.331   5.028   7.402  0.1050  0.4456 -0.1453
 1981TIP3    H130138   6.243   5.065   7.406 -0.7514 -1.4699  0.0908
 1981TIP3    H230139   6.332   4.976   7.322  0.8140  0.0087  0.1290
 1982TIP3   OH230140   6.688   7.137   8.466 -0.4511 -0.6225 -0.5131
 1982TIP3    H130141   6.603   7.105   8.496 -0.3777  1.0313  1.7191
 1982TIP3    H230142   6.716   7.199   8.533  1.6582  0.3454 -2.1415
 1983TIP3   OH230143   0.768   6.277   9.591 -0.6700  0.0686 -0.2056
 1983TIP3    H130144   0.699   6.301   9.654 -0.6347 -2.2811  0.8148
 1983TIP3    H230145   0.721   6.264   9.509 -1.3060 -0.4230  0.2189
 1984TIP3   OH230146   0.732   6.785   7.268 -0.3222 -0.2821  0.0760
 1984TIP3    H130147   0.647   6.806   7.227 -0.4595 -1.1434 -0.0967
 1984TIP3    H230148   0.795   6.794   7.197 -0.2021  0.7500  0.2969
 1985TIP3   OH230149   2.161   0.754   8.161 -0.3359 -0.1696 -0.7152
 1985TIP3    H130150   2.241   0.725   8.118 -0.6506 -0.6343 -0.9969
 1985TIP3    H230151   2.126   0.675   8.203 -0.1985  0.2118  0.1347
 1986TIP3   OH230152   5.562   4.238   8.787 -0.3889 -0.6496 -0.3924
 1986TIP3    H130153   5.519   4.308   8.739 -0.7772  0.1261  1.0468
 1986TIP3    H230154   5.651   4.269   8.801 -0.5742 -0.4081  0.2871
 1987TIP3   OH230155   7.651   4.700   9.447  0.5767 -0.0506 -0.3464
 1987TIP3    H130156   7.638   4.605   9.443  0.8681 -0.1452  0.7505
 1987TIP3    H230157   7.745   4.711   9.461  0.4298  0.3684  0.3478
 1988TIP3   OH230158   3.034   5.747   9.058  0.2562 -0.2179 -0.5959
 1988TIP3    H130159   2.969   5.705   9.114 -2.3354  2.8351 -1.0369
 1988TIP3    H230160   3.006   5.726   8.969  0.7435 -0.0352 -0.7944
 1989TIP3   OH230161   1.766   6.985   8.057  0.1377 -0.1564  0.0503
 1989TIP3    H130162   1.833   7.030   8.110 -1.7694  0.8163  1.7457
 1989TIP3    H230163   1.814   6.955   7.979  2.3392  1.3527  0.7276
 1990TIP3   OH230164   1.990   2.838   9.405 -0.1433  0.0278 -0.3073
 1990TIP3    H130165   2.076   2.802   9.386  0.1734  0.2938  0.5613
 1990TIP3    H230166   1.940   2.765   9.443  0.4246  0.3940  1.2386
 1991TIP3   OH230167   0.280   4.193   7.612 -0.1668 -0.0713  0.2444
 1991TIP3    H130168   0.288   4.102   7.580 -2.4218 -0.1656 -0.2024
 1991TIP3    H230169   0.186   4.206   7.624  0.2351  1.6850  1.9667
 1992TIP3   OH230170   6.081   0.008   8.267 -0.4342 -0.1178  0.0669
 1992TIP3    H130171   6.126   0.088   8.294  1.0235 -0.6145 -0.7940
 1992TIP3    H230172   6.011  -0.002   8.330 -1.7116  2.7218 -0.7296
 1993TIP3   OH230173   4.997   1.750   8.236  0.3811 -0.4547  0.1126
 1993TIP3    H130174   4.982   1.668   8.189 -0.7870  0.5641 -1.4207
 1993TIP3    H230175   4.931   1.750   8.305  1.1990 -1.3439  0.9160
 1994TIP3   OH230176   1.160   4.839   7.673  0.3393 -0.1083 -0.0050
 1994TIP3    H130177   1.162   4.921   7.623 -3.3716  0.2488  0.1710
 1994TIP3    H230178   1.099   4.783   7.625  2.9984 -3.0084 -0.2797
 1995TIP3   OH230179   0.172   6.282   7.571 -0.6259 -0.3676  0.6044
 1995TIP3    H130180   0.197   6.211   7.630 -1.4315 -1.4086 -0.2790
 1995TIP3    H230181   0.097   6.323   7.614 -0.9958 -0.9074  0.4861
 1996TIP3   OH230182   0.693   7.633   8.903  0.1924 -0.0243 -0.4757
 1996TIP3    H130183   0.761   7.651   8.968 -0.6094  0.9258  0.1458
 1996TIP3    H230184   0.654   7.551   8.931  0.2095  0.1085 -0.0493
 1997TIP3   OH230185   2.065   6.417   9.104 -0.4025  0.1156  0.2608
 1997TIP3    H130186   2.149   6.462   9.105  0.5373 -1.2897 -2.6902
 1997TIP3    H230187   2.001   6.484   9.128  1.3939  1.6355  1.0261
 1998TIP3   OH230188   6.902   0.282   9.186  0.2184  0.1407 -0.4769
 1998TIP3    H130189   6.998   0.287   9.179  0.6165 -1.8466  2.0067
 1998TIP3    H230190   6.876   0.371   9.212  1.7357  0.1414  1.2775
 1999TIP3   OH230191   5.656   6.308   7.249  0.6862 -0.3999  0.6330
 1999TIP3    H130192   5.684   6.217   7.234  3.1007  0.3762 -0.0104
 1999TIP3    H230193   5.651   6.346   7.162  1.9410  0.6725  1.0023
 2000TIP3   OH230194   3.843   1.083   6.722  0.1114  0.2007 -0.4121
 2000TIP3    H130195   3.930   1.079   6.761  0.0373 -1.5227 -0.3533
 2000TIP3    H230196   3.805   1.164   6.757  0.9877  0.0005  1.1088
 2001TIP3   OH230197   3.435   7.332   7.858  0.0513  0.0026  0.1834
 2001TIP3    H130198   3.391   7.411   7.826 -3.4709 -1.1874  1.4982
 2001TIP3    H230199   3.451   7.349   7.951  0.9695 -0.1802  0.0654
 2002TIP3   OH230200   0.112   4.617   7.554 -0.2668  0.4533 -0.2359
 2002TIP3    H130201   0.175   4.567   7.606  2.1884  2.0671 -1.4375
 2002TIP3    H230202   0.027   4.578   7.574  0.9201 -0.9302  2.5700
 2003TIP3   OH230203   2.799   6.771   7.060 -0.1222  0.6592  0.6726
 2003TIP3    H130204   2.781   6.818   6.978  2.0674 -1.3410 -1.0702
 2003TIP3    H230205   2.771   6.681   7.043  0.4325  0.1885  2.1148
 2004TIP3   OH230206   0.416   0.648   7.286  0.2047 -0.3526  0.1661
 2004TIP3    H130207   0.456   0.656   7.200  0.9300 -2.2245  0.2828
 2004TIP3    H230208   0.322   0.663   7.270  0.3397 -0.6023 -0.9448
 2005TIP3   OH230209   2.342   4.466   8.315 -0.2383 -0.1245  0.1697
 2005TIP3    H130210   2.376   4.443   8.402 -0.6092  0.0105  0.3505
 2005TIP3    H230211   2.386   4.405   8.256  1.6674  1.1431  0.1608
 2006TIP3   OH230212   2.364   6.932   8.218  0.2945 -0.0396  0.0119
 2006TIP3    H130213   2.380   6.886   8.301 -0.8781  1.2182  0.9868
 2006TIP3    H230214   2.423   6.890   8.156  0.4922 -1.6896  1.2422
 2007TIP3   OH230215   1.144   3.325   9.260  0.0040 -0.1433 -0.0915
 2007TIP3    H130216   1.221   3.326   9.204  0.8773  1.5947  1.0353
 2007TIP3    H230217   1.074   3.361   9.206  0.8257  1.5074 -0.1239
 2008TIP3   OH230218   5.524   3.218   8.766 -0.0166  0.1894  0.1993
 2008TIP3    H130219   5.615   3.247   8.770 -0.2226  0.8397  0.2809
 2008TIP3    H230220   5.495   3.243   8.678  0.5883 -2.2034 -0.7534
 2009TIP3   OH230221   2.886   3.911   8.518 -0.5801 -0.1743 -0.2369
 2009TIP3    H130222   2.870   3.844   8.585 -0.4069 -1.9351 -1.8839
 2009TIP3    H230223   2.977   3.937   8.532  0.0079 -1.7980 -0.8333
 2010TIP3   OH230224   3.095   4.029   8.826  0.2309 -0.4212 -0.2322
 2010TIP3    H130225   3.160   4.036   8.757  0.3255  1.5838  0.0074
 2010TIP3    H230226   3.132   4.077   8.900 -1.2115  0.2038  0.1360
 2011TIP3   OH230227   2.038   1.606   7.594 -0.1301 -0.6111 -0.5221
 2011TIP3    H130228   1.945   1.584   7.582  0.0259 -1.1981 -0.7003
 2011TIP3    H230229   2.061   1.655   7.516 -0.1006 -1.1221 -0.8406
 2012TIP3   OH230230   6.081   6.127   9.253 -0.0534 -0.2727 -0.2973
 2012TIP3    H130231   6.033   6.075   9.188 -1.5547  0.4189  0.2204
 2012TIP3    H230232   6.163   6.079   9.266 -0.1891 -1.0009 -1.8862
 2013TIP3   OH230233   6.894   6.527   7.940  0.5043 -0.5967  0.5331
 2013TIP3    H130234   6.918   6.453   7.885  1.4501 -3.1696  4.0212
 2013TIP3    H230235   6.978   6.565   7.966  0.0732  0.6892  0.0896
 2014TIP3   OH230236   4.399   1.476   7.445  0.2815 -0.2459  0.1165
 2014TIP3    H130237   4.473   1.532   7.423 -0.2164  0.6718  0.7387
 2014TIP3    H230238   4.347   1.473   7.364 -0.2719  1.1210  0.4015
 2015TIP3   OH230239   6.545   5.466   8.675  0.3581  0.2920  0.4915
 2015TIP3    H130240   6.546   5.561   8.664  3.4126  0.3709  0.8283
 2015TIP3    H230241   6.503   5.433   8.595 -0.2378  1.8703  0.1189
 2016TIP3   OH230242   5.414   7.494   9.200  0.3964  0.7043 -0.1522
 2016TIP3    H130243   5.497   7.459   9.235  0.4481 -0.3434 -1.2722
 2016TIP3    H230244   5.377   7.542   9.274  1.2762 -0.0773  0.8563
 2017TIP3   OH230245   6.699   6.083   7.279 -0.5951 -0.6370 -0.4246
 2017TIP3    H130246   6.645   6.160   7.300  0.6908 -0.1172  1.2230
 2017TIP3    H230247   6.742   6.107   7.197  0.7927  1.0524  0.7029
 2018TIP3   OH230248   4.094   0.816   6.974 -0.1418  0.7708 -0.1521
 2018TIP3    H130249   4.080   0.838   6.882  2.1584  0.8419 -0.5455
 2018TIP3    H230250   4.058   0.728   6.984  0.3747  0.4010 -1.3595
 2019TIP3   OH230251   0.915   5.394   8.242  0.3530 -0.5174  0.2514
 2019TIP3    H130252   0.952   5.464   8.295 -1.2505 -0.5235  1.4529
 2019TIP3    H230253   0.939   5.416   8.152  1.2984  0.6508  0.7698
 2020TIP3   OH230254   4.053   1.460   8.708  0.0696 -0.0380  0.1739
 2020TIP3    H130255   3.994   1.467   8.633 -2.2334 -1.2106  1.7544
 2020TIP3    H230256   4.131   1.417   8.674 -0.7293 -0.1367 -1.6231
 2021TIP3   OH230257   1.611   6.862   7.732 -0.7013  0.0113  0.0628
 2021TIP3    H130258   1.593   6.851   7.826  1.2908  0.5661  0.5550
 2021TIP3    H230259   1.671   6.790   7.711  1.2292  1.5818 -0.0410
 2022TIP3   OH230260   5.770   5.376   7.187  0.2803 -0.4524  0.8591
 2022TIP3    H130261   5.754   5.431   7.264  0.3651 -1.9175  1.9572
 2022TIP3    H230262   5.863   5.354   7.193 -0.2605 -2.6987  1.8358
 2023TIP3   OH230263   4.845   0.481   8.886  0.2724 -0.1890 -0.2482
 2023TIP3    H130264   4.845   0.577   8.889 -0.6015 -0.0816 -2.5070
 2023TIP3    H230265   4.763   0.456   8.927  1.4106 -0.1367  2.2648
 2024TIP3   OH230266   4.941   4.187   7.821 -0.2989 -0.5922 -0.4788
 2024TIP3    H130267   5.016   4.222   7.774 -0.2326 -1.3667 -0.9703
 2024TIP3    H230268   4.957   4.208   7.913 -0.2150  0.5531 -0.7435
 2025TIP3   OH230269   6.922   5.956   8.095  0.2144 -0.4115 -0.6809
 2025TIP3    H130270   7.007   5.985   8.061  0.4169 -0.2282 -0.0264
 2025TIP3    H230271   6.924   5.861   8.087  0.3274 -0.3833 -1.0170
 2026TIP3   OH230272   4.226   6.955   8.377 -0.1664 -0.5921 -0.4209
 2026TIP3    H130273   4.181   6.875   8.403  1.2439 -1.4260 -0.4753
 2026TIP3    H230274   4.219   7.013   8.453 -3.3340  0.2630 -1.2045
 2027TIP3   OH230275   3.898   2.853   8.531  0.4006  0.1901  0.1193
 2027TIP3    H130276   3.866   2.879   8.618 -0.1511 -0.3964  0.1065
 2027TIP3    H230277   3.889   2.931   8.477  0.2940  0.4256  0.4730
 2028TIP3   OH230278   6.112   0.631   8.502  0.1289 -0.2838 -0.2139
 2028TIP3    H130279   6.192   0.638   8.554  0.8665 -2.7726 -0.8727
 2028TIP3    H230280   6.047   0.682   8.551  1.1885 -1.1999  2.3036
 2029TIP3   OH230281   4.364   0.196   7.163 -0.1056  0.3971 -0.4851
 2029TIP3    H130282   4.311   0.210   7.242  1.9941  1.6375  0.7783
 2029TIP3    H230283   4.429   0.131   7.189  1.3579  1.6937 -0.7702
 2030TIP3   OH230284   1.248   6.672   8.801 -0.2038 -0.2733  0.1909
 2030TIP3    H130285   1.315   6.663   8.733 -0.6095 -0.8239 -0.1441
 2030TIP3    H230286   1.209   6.585   8.809  1.4497 -0.8786  2.8343
 2031TIP3   OH230287   0.895   0.714   7.296  0.0749 -0.1491 -0.1887
 2031TIP3    H130288   0.854   0.730   7.212 -0.0021 -0.5765 -0.2365
 2031TIP3    H230289   0.898   0.619   7.304 -1.9054 -0.1499  1.2653
 2032TIP3   OH230290   1.931   3.298   8.427  0.1974 -0.1543  0.7677
 2032TIP3    H130291   2.017   3.322   8.461 -0.2839  0.6129  1.4693
 2032TIP3    H230292   1.888   3.251   8.498  0.9582 -2.8412 -0.4362
 2033TIP3   OH230293   2.414   1.314   8.941  0.0498 -0.3053 -0.2477
 2033TIP3    H130294   2.418   1.222   8.967 -1.6414 -0.1139  0.8019
 2033TIP3    H230295   2.380   1.360   9.018  0.3810  1.1317 -0.9251
 2034TIP3   OH230296   1.034   6.207   9.618  0.1043  0.2769 -0.8499
 2034TIP3    H130297   1.064   6.297   9.602 -1.9102  1.7691  2.5979
 2034TIP3    H230298   0.939   6.211   9.606 -0.4061 -0.5368  2.0898
 2035TIP3   OH230299   7.292   6.950   8.097  0.0491  0.1992 -0.0425
 2035TIP3    H130300   7.211   7.000   8.099 -0.2175 -0.2557  0.8604
 2035TIP3    H230301   7.274   6.871   8.149  0.8588 -0.2200 -0.3738
 2036TIP3   OH230302   4.637   1.577   7.966  0.1000  0.1083  0.6391
 2036TIP3    H130303   4.725   1.615   7.960 -0.3327  1.0354 -0.4601
 2036TIP3    H230304   4.589   1.638   8.022 -0.7534  1.6256 -1.5878
 2037TIP3   OH230305   3.545   1.037   9.270  0.4468  0.0675  0.1332
 2037TIP3    H130306   3.451   1.054   9.261  0.2376 -0.9274  0.3377
 2037TIP3    H230307   3.557   0.950   9.233  1.1108 -0.2390  1.0497
 2038TIP3   OH230308   4.801   1.002   7.935  0.3469  0.5231 -0.1748
 2038TIP3    H130309   4.814   0.910   7.913 -1.5786 -0.4569  2.2520
 2038TIP3    H230310   4.738   1.033   7.869  1.0958  0.1664 -1.0783
 2039TIP3   OH230311   1.661   3.771   7.608 -0.2347  0.1689  0.3878
 2039TIP3    H130312   1.685   3.863   7.619 -4.0930  1.6701 -1.6384
 2039TIP3    H230313   1.663   3.757   7.513 -1.2037 -1.3302  0.5515
 2040TIP3   OH230314   4.261   4.468   9.014 -0.0169  0.3771  0.0939
 2040TIP3    H130315   4.324   4.499   8.948  0.8267  1.0666  1.1863
 2040TIP3    H230316   4.314   4.414   9.074 -1.5313 -4.0605 -2.1220
 2041TIP3   OH230317   7.487   0.943   8.062  0.2216 -0.3021 -0.4446
 2041TIP3    H130318   7.411   0.994   8.092  2.0053  1.4731  1.3985
 2041TIP3    H230319   7.531   1.001   7.999  0.0817 -1.3163 -1.5053
 2042TIP3   OH230320   0.428   7.463   7.300  0.2600 -0.4668  0.2392
 2042TIP3    H130321   0.379   7.401   7.246  1.3236 -0.0146 -1.2950
 2042TIP3    H230322   0.432   7.543   7.247  2.3093 -0.3652  0.4779
 2043TIP3   OH230323   4.363   3.167   7.952 -0.0044 -0.1105  0.0460
 2043TIP3    H130324   4.286   3.152   7.897  0.4261  0.7996 -0.8217
 2043TIP3    H230325   4.402   3.248   7.919  1.8206 -0.9894 -0.0890
 2044TIP3   OH230326   1.944   3.493   8.685  0.4362 -0.2242 -0.0255
 2044TIP3    H130327   1.873   3.545   8.648 -0.4124  0.5213  2.4509
 2044TIP3    H230328   1.902   3.414   8.718  0.9863 -0.4373  0.1842
 2045TIP3   OH230329   0.425   5.486   9.555 -0.4599  0.7707 -0.4385
 2045TIP3    H130330   0.380   5.446   9.630  0.9975 -2.1011 -0.9619
 2045TIP3    H230331   0.362   5.479   9.484 -0.6132  0.3692 -0.2670
 2046TIP3   OH230332   4.838   7.337   8.846 -0.7066 -0.8029  0.3780
 2046TIP3    H130333   4.867   7.316   8.935 -0.9226 -2.2394  0.1294
 2046TIP3    H230334   4.765   7.397   8.858 -0.5132 -0.7123  1.1560
 2047TIP3   OH230335   0.730   4.969   8.443  0.2753  0.0970  0.8768
 2047TIP3    H130336   0.773   4.931   8.519 -0.8195  0.3536  1.6608
 2047TIP3    H230337   0.737   5.064   8.456  1.2804  0.1774 -0.0663
 2048TIP3   OH230338   4.470   5.048   8.717 -0.2014 -0.4060  0.5487
 2048TIP3    H130339   4.465   4.976   8.779 -0.2008 -1.6613 -0.8542
 2048TIP3    H230340   4.392   5.101   8.734 -0.8107 -1.3840  0.8463
 2049TIP3   OH230341   7.298   4.711   8.304  0.6747 -0.2792  0.0364
 2049TIP3    H130342   7.242   4.684   8.231 -0.4598  2.0290 -0.0276
 2049TIP3    H230343   7.327   4.799   8.281  1.7703 -0.1895  1.5698
 2050TIP3   OH230344   2.409   0.494   8.711 -0.2666 -0.5914 -0.0144
 2050TIP3    H130345   2.449   0.419   8.668  0.5264 -0.6730  0.8388
 2050TIP3    H230346   2.417   0.565   8.647 -3.4979 -1.7877 -1.9855
 2051TIP3   OH230347   3.979   1.096   8.127 -0.2483 -0.0403 -0.2601
 2051TIP3    H130348   3.951   1.026   8.186  0.5671 -0.6787 -0.6147
 2051TIP3    H230349   4.071   1.109   8.148 -0.5080  1.2622  0.1250
 2052TIP3   OH230350   6.089   3.369   8.849  0.8676  0.0521  0.3528
 2052TIP3    H130351   6.058   3.423   8.776  0.4022  0.1900  0.6531
 2052TIP3    H230352   6.184   3.365   8.836  0.9311  1.0833  0.4191
 2053TIP3   OH230353   7.281   0.675   7.368  0.4357 -0.3904  0.5880
 2053TIP3    H130354   7.293   0.580   7.362 -1.5780 -0.6460 -0.5165
 2053TIP3    H230355   7.190   0.686   7.397  0.3049  1.1917 -0.3021
 2054TIP3   OH230356   3.714   3.283   8.495 -0.0115  0.0047 -0.0373
 2054TIP3    H130357   3.715   3.339   8.418  0.7379  1.1874  0.7928
 2054TIP3    H230358   3.726   3.194   8.461 -0.3792  0.4221 -1.3151
 2055TIP3   OH230359   4.580   1.819   7.028 -0.4283 -0.4826 -0.7308
 2055TIP3    H130360   4.576   1.915   7.025  0.8508 -0.3119  1.2059
 2055TIP3    H230361   4.629   1.795   6.950  0.9071  0.6254 -0.2803
 2056TIP3   OH230362   3.672   0.192   8.998  0.2835  0.7098  0.5809
 2056TIP3    H130363   3.582   0.190   9.031 -0.1063  1.1022 -0.4008
 2056TIP3    H230364   3.687   0.283   8.974  1.1897  0.7764  1.3462
 2057TIP3   OH230365   2.033   4.643   7.410 -0.7046 -0.7114  0.1608
 2057TIP3    H130366   1.937   4.648   7.402 -0.5617 -0.5956 -2.8092
 2057TIP3    H230367   2.065   4.680   7.327  1.8937 -1.6193  0.6724
 2058TIP3   OH230368   0.104   6.995   8.241 -0.0698 -0.5590  0.7774
 2058TIP3    H130369   0.169   7.006   8.172 -0.2722 -0.9267  0.5286
 2058TIP3    H230370   0.155   6.975   8.319  0.2218  0.6852  0.9329
 2059TIP3   OH230371   5.268   6.660   8.850  0.2444 -0.0956 -0.2049
 2059TIP3    H130372   5.293   6.678   8.941  0.4825 -0.6141 -0.1676
 2059TIP3    H230373   5.187   6.710   8.838  0.3769  0.2218  0.1979
 2060TIP3   OH230374   1.977   3.884   8.054  0.1369 -0.5684 -0.3050
 2060TIP3    H130375   1.895   3.834   8.061 -1.3855  1.9725  1.7035
 2060TIP3    H230376   1.956   3.955   7.993  0.6276  0.4132  0.6435
 2061TIP3   OH230377   3.171   7.534   6.817 -0.5560  0.1686 -0.0916
 2061TIP3    H130378   3.197   7.451   6.858  1.0297  0.5572 -0.2345
 2061TIP3    H230379   3.253   7.570   6.783 -1.4702  0.9924 -1.5375
 2062TIP3   OH230380   1.345   1.196   8.190 -0.1835  0.1036 -0.5778
 2062TIP3    H130381   1.439   1.205   8.206 -0.1927 -0.0951 -0.4118
 2062TIP3    H230382   1.313   1.286   8.184  0.0529  0.1717 -0.8562
 2063TIP3   OH230383   5.706   2.765   7.909 -0.2669 -0.2080  0.8608
 2063TIP3    H130384   5.750   2.687   7.944  1.0512 -0.0551 -0.3769
 2063TIP3    H230385   5.725   2.763   7.816  1.2111  2.4732  1.0129
 2064TIP3   OH230386   4.781   4.358   9.268 -0.0753  0.2749 -0.2538
 2064TIP3    H130387   4.822   4.332   9.185 -0.7894 -0.4307 -0.3950
 2064TIP3    H230388   4.806   4.450   9.278  0.9773  0.0540 -0.6651
 2065TIP3   OH230389   1.884   1.545   8.245 -0.0126 -0.1953  0.1498
 2065TIP3    H130390   1.968   1.581   8.217  0.4496 -2.0166 -0.9850
 2065TIP3    H230391   1.819   1.602   8.204  0.5588  2.1771  2.2973
 2066TIP3   OH230392   5.742   7.437   9.024  0.5030 -0.5747 -0.0513
 2066TIP3    H130393   5.759   7.466   9.113 -0.7508 -2.6343  0.9312
 2066TIP3    H230394   5.797   7.360   9.012 -0.1358 -0.9550 -0.6504
 2067TIP3   OH230395   4.303   0.170   7.528 -0.2624  0.0423  0.3446
 2067TIP3    H130396   4.274   0.190   7.617 -0.7618 -0.9806  0.4258
 2067TIP3    H230397   4.222   0.165   7.477 -0.0760 -0.7528  0.1228
 2068TIP3   OH230398   2.015   4.941   8.594  0.1207 -0.1181 -0.3311
 2068TIP3    H130399   2.006   4.849   8.569  0.6686  0.6692 -4.0561
 2068TIP3    H230400   2.108   4.960   8.583  0.5093  0.3993  2.8502
 2069TIP3   OH230401   1.244   5.237   9.089 -0.2177  0.3959 -0.7958
 2069TIP3    H130402   1.273   5.196   9.007 -0.1990  0.9095 -1.0536
 2069TIP3    H230403   1.256   5.331   9.074  1.8169  0.4222  0.5783
 2070TIP3   OH230404   0.946   2.773   8.304  0.1851  0.0906 -0.2273
 2070TIP3    H130405   0.988   2.841   8.252 -0.9569  0.9828 -0.0306
 2070TIP3    H230406   0.982   2.784   8.392  1.4374 -0.8357 -0.5879
 2071TIP3   OH230407   1.848   5.476   8.395 -0.1773  0.2628  0.1457
 2071TIP3    H130408   1.893   5.392   8.408  0.2085  0.5022  0.3552
 2071TIP3    H230409   1.867   5.526   8.474 -0.8802  0.3412  0.2700
 2072TIP3   OH230410   3.217   5.482   8.052 -0.0352 -0.2762  0.3942
 2072TIP3    H130411   3.149   5.422   8.083 -0.7929  1.2373  1.7807
 2072TIP3    H230412   3.169   5.560   8.024  1.0049  0.0886 -0.4174
 2073TIP3   OH230413   7.027   4.816   8.345 -0.4101 -0.1964  0.4526
 2073TIP3    H130414   7.119   4.788   8.352 -0.5531 -0.4511  1.4959
 2073TIP3    H230415   7.021   4.856   8.258  0.4877 -0.8937  0.0516
 2074TIP3   OH230416   1.926   3.074   7.769 -0.1487 -0.4222  0.6252
 2074TIP3    H130417   2.010   3.096   7.810  0.3484 -0.4755 -0.3297
 2074TIP3    H230418   1.909   3.146   7.709 -0.4029 -0.7808  0.2601
 2075TIP3   OH230419   0.904   0.210   6.617 -0.3152 -0.5251  0.4775
 2075TIP3    H130420   0.864   0.227   6.702 -0.2967  0.1594  0.3561
 2075TIP3    H230421   0.981   0.267   6.614 -0.5682 -0.1996 -0.1732
 2076TIP3   OH230422   4.493   6.410   8.432  0.3416  0.3213  0.0422
 2076TIP3    H130423   4.457   6.456   8.507  0.4785  2.4502 -1.0977
 2076TIP3    H230424   4.546   6.339   8.469 -0.7906  0.3817  1.8589
 2077TIP3   OH230425   4.488   1.250   8.751  0.6094  0.4129 -0.4847
 2077TIP3    H130426   4.563   1.294   8.710  0.9186 -0.3486 -0.7410
 2077TIP3    H230427   4.413   1.280   8.700  0.8959  0.1368 -1.0800
 2078TIP3   OH230428   0.906   1.581   6.770 -0.1668  0.2069 -0.1710
 2078TIP3    H130429   0.891   1.588   6.676 -0.9544 -0.8310 -0.1461
 2078TIP3    H230430   0.999   1.599   6.781  0.1824 -0.7861 -1.2979
 2079TIP3   OH230431   1.222   5.731   9.280  0.5088  0.2698 -0.3063
 2079TIP3    H130432   1.204   5.812   9.327  0.7062  0.8026 -1.1116
 2079TIP3    H230433   1.307   5.702   9.312  0.0798 -0.0646  0.5656
 2080TIP3   OH230434   7.432   3.785   8.473  0.0733  0.1613 -0.3500
 2080TIP3    H130435   7.522   3.783   8.504 -0.4227 -0.5619  1.1300
 2080TIP3    H230436   7.434   3.735   8.391  0.6281 -1.9067  0.8666
 2081TIP3   OH230437   2.855   0.639   9.063 -0.1446  0.0708  0.1246
 2081TIP3    H130438   2.832   0.575   9.131 -1.4073  0.1501 -0.2025
 2081TIP3    H230439   2.788   0.627   8.995  0.7021  0.4553 -0.8071
 2082TIP3   OH230440   7.182   5.679   9.506 -0.1744  0.2228  0.1341
 2082TIP3    H130441   7.193   5.691   9.412  2.2583  0.5043  0.3834
 2082TIP3    H230442   7.115   5.743   9.532 -0.0009  0.9760 -1.2186
 2083TIP3   OH230443   7.278   5.793   9.144  0.0698  0.1330  0.1692
 2083TIP3    H130444   7.219   5.868   9.134  0.5670  0.7421  1.6096
 2083TIP3    H230445   7.224   5.726   9.187  0.0256  0.1679  0.1684
 2084TIP3   OH230446   2.417   1.072   9.058 -0.2404  0.2561  0.0716
 2084TIP3    H130447   2.475   1.007   9.018 -0.7837 -0.4618  0.4277
 2084TIP3    H230448   2.331   1.030   9.059 -0.0554 -0.2715  3.0530
 2085TIP3   OH230449   2.901   5.704   8.814  0.3818 -0.5008 -0.1682
 2085TIP3    H130450   2.897   5.622   8.766 -3.9434 -0.9385  0.4863
 2085TIP3    H230451   2.890   5.772   8.747 -1.4693 -0.8793 -0.3158
 2086TIP3   OH230452   1.017   0.548   7.753  0.0159 -0.1666 -0.2288
 2086TIP3    H130453   0.940   0.516   7.800  0.3579 -0.2292  0.3038
 2086TIP3    H230454   1.089   0.540   7.817  0.3907  0.2373 -0.5930
 2087TIP3   OH230455   0.163   0.582   7.216 -0.3935  0.1338  0.4569
 2087TIP3    H130456   0.177   0.492   7.244  0.4835  0.1315  0.0425
 2087TIP3    H230457   0.079   0.606   7.254 -0.3938 -0.6886  1.0039
 2088TIP3   OH230458   0.469   7.196   9.167  0.3510  0.1365 -0.8265
 2088TIP3    H130459   0.472   7.101   9.171 -0.4032  0.1404  2.0444
 2088TIP3    H230460   0.416   7.215   9.089 -0.9165 -1.8487 -0.5129
 2089TIP3   OH230461   0.242   4.006   6.903 -0.1623 -0.4475  0.4075
 2089TIP3    H130462   0.216   4.001   6.812  0.2298  1.2180  0.1605
 2089TIP3    H230463   0.320   3.951   6.909  0.6631  0.5639 -0.6237
 2090TIP3   OH230464   2.013   5.444   9.434  0.1347 -0.0085  0.2411
 2090TIP3    H130465   2.044   5.388   9.506  1.1980  1.9912  1.4152
 2090TIP3    H230466   2.080   5.512   9.426 -1.6894  1.8215 -0.2749
 2091TIP3   OH230467   4.497   2.971   8.076  0.1881 -0.0604 -0.1882
 2091TIP3    H130468   4.443   3.018   8.012 -1.0899  0.0468  0.9141
 2091TIP3    H230469   4.568   2.932   8.025  0.2771  1.5872 -1.3865
 2092TIP3   OH230470   1.437   4.579   6.895 -0.0497 -0.3565  0.1707
 2092TIP3    H130471   1.352   4.591   6.852 -0.9094 -0.2520  1.8460
 2092TIP3    H230472   1.436   4.490   6.929  0.1320 -0.0543  0.9938
 2093TIP3   OH230473   5.906   6.672   7.881  0.7067 -0.0040 -0.0979
 2093TIP3    H130474   5.964   6.748   7.875 -0.9041  1.2887 -0.0093
 2093TIP3    H230475   5.952   6.603   7.833  2.7132  0.6734  0.7262
 2094TIP3   OH230476   7.646   2.045   7.773 -0.2390  0.1616  0.2545
 2094TIP3    H130477   7.681   1.959   7.753  0.7275  0.7587 -0.7151
 2094TIP3    H230478   7.723   2.100   7.788 -0.5478  1.9285 -3.5545
 2095TIP3   OH230479   1.229   2.358   9.520 -0.0336 -0.4763  0.3440
 2095TIP3    H130480   1.289   2.424   9.553 -0.1395 -0.2307  0.0573
 2095TIP3    H230481   1.149   2.407   9.498 -1.7648 -1.2627  4.1200
 2096TIP3   OH230482   3.896   6.334   9.298  0.0090 -0.2265  0.1010
 2096TIP3    H130483   3.928   6.308   9.384 -0.9000 -0.5142  0.3683
 2096TIP3    H230484   3.908   6.257   9.243 -0.1032 -0.2944  0.1701
 2097TIP3   OH230485   4.095   5.381   7.900  0.2516  0.1657  0.2229
 2097TIP3    H130486   4.073   5.397   7.808 -1.1484  1.6374  0.7771
 2097TIP3    H230487   4.122   5.289   7.902  0.4864  0.1458 -1.6734
 2098TIP3   OH230488   6.863   0.386   6.993 -0.0763 -0.4298 -0.2124
 2098TIP3    H130489   6.770   0.378   6.974  0.0643 -1.3375 -0.6261
 2098TIP3    H230490   6.906   0.349   6.915  0.6763  1.4715 -0.7468
 2099TIP3   OH230491   7.319   4.610   8.855  0.1014  0.3935 -0.0403
 2099TIP3    H130492   7.256   4.603   8.783 -1.5178 -1.0765  1.4241
 2099TIP3    H230493   7.268   4.648   8.927  0.9576 -0.5678  1.0957
 2100TIP3   OH230494   4.359   4.284   7.977  0.0420 -0.1950 -0.2274
 2100TIP3    H130495   4.412   4.205   7.969 -0.0849 -0.2566 -0.4687
 2100TIP3    H230496   4.345   4.313   7.887  0.2841  0.2328 -0.1305
 2101TIP3   OH230497   5.379   3.090   9.098  0.2581 -0.0022  0.0150
 2101TIP3    H130498   5.414   3.016   9.147  2.2479  1.7745  1.4361
 2101TIP3    H230499   5.342   3.148   9.164 -0.4509  0.7232 -0.9800
 2102TIP3   OH230500   0.825   7.629   7.080 -0.0838  0.5543  0.4878
 2102TIP3    H130501   0.888   7.666   7.017  1.5679 -3.0903 -0.2702
 2102TIP3    H230502   0.749   7.687   7.074  0.7209  1.5420 -3.4834
 2103TIP3   OH230503   7.419   6.217   8.543 -0.3013  0.0521  0.4133
 2103TIP3    H130504   7.443   6.280   8.475  0.8067  0.6537  1.3116
 2103TIP3    H230505   7.398   6.137   8.495  0.0913  0.5620 -0.6536
 2104TIP3   OH230506   4.812   6.159   7.765 -0.9116  0.2304 -0.7388
 2104TIP3    H130507   4.890   6.196   7.722 -0.2168 -1.2952 -0.8509
 2104TIP3    H230508   4.801   6.073   7.726 -1.0694 -0.6664  1.1470
 2105TIP3   OH230509   6.863   1.186   7.623  0.2773  0.1272 -0.0630
 2105TIP3    H130510   6.818   1.264   7.655 -0.4615 -0.5154  0.4917
 2105TIP3    H230511   6.859   1.124   7.696  0.0702 -0.7506 -0.8088
 2106TIP3   OH230512   5.403   0.136   8.300  0.2483  0.9542  0.3841
 2106TIP3    H130513   5.365   0.134   8.388  0.2131 -0.2289  0.3496
 2106TIP3    H230514   5.450   0.220   8.297  0.8521  0.6994  1.7791
 2107TIP3   OH230515   0.152   7.469   7.540 -0.0297  0.0051  0.3345
 2107TIP3    H130516   0.093   7.481   7.615  0.6106  1.5598  0.6326
 2107TIP3    H230517   0.240   7.479   7.577  0.3098  0.3263 -0.5367
 2108TIP3   OH230518   3.578   3.702   8.084 -0.2466 -0.0478 -0.2429
 2108TIP3    H130519   3.528   3.783   8.077  0.9064  0.5826 -1.7502
 2108TIP3    H230520   3.628   3.712   8.165 -0.5899  0.4807 -0.0913
 2109TIP3   OH230521   0.340   1.439   7.933  0.3430  0.6175  0.4379
 2109TIP3    H130522   0.407   1.374   7.915 -1.5563 -1.5806  0.8345
 2109TIP3    H230523   0.375   1.489   8.008  1.5233 -0.4479  0.6307
 2110TIP3   OH230524   2.646   3.590   8.127  0.1960  0.1632  0.2414
 2110TIP3    H130525   2.692   3.597   8.211  0.3267 -0.6241  0.2525
 2110TIP3    H230526   2.571   3.533   8.146 -1.3888  2.1929  0.4537
 2111TIP3   OH230527   0.775   1.590   6.504 -0.0862  0.0069  0.0845
 2111TIP3    H130528   0.693   1.567   6.547 -0.3883  0.2952 -0.3377
 2111TIP3    H230529   0.753   1.596   6.411  0.5163 -0.3869 -0.0908
 2112TIP3   OH230530   3.856   2.565   7.084 -0.4692  0.0482 -0.1746
 2112TIP3    H130531   3.762   2.544   7.078 -0.6192  0.0821  1.5195
 2112TIP3    H230532   3.861   2.628   7.156  0.6556  1.5303 -1.4918
 2113TIP3   OH230533   3.182   0.234   8.516 -0.3345  0.4052  0.7851
 2113TIP3    H130534   3.182   0.166   8.583 -0.7324 -0.8354 -0.4220
 2113TIP3    H230535   3.100   0.281   8.529 -0.8909 -0.4842  0.5386
 2114TIP3   OH230536   2.873   4.250   8.626  0.2040 -0.0289 -0.2875
 2114TIP3    H130537   2.911   4.313   8.564  0.8390  1.0826  1.1786
 2114TIP3    H230538   2.934   4.250   8.700 -1.2232 -0.2951  0.9216
 2115TIP3   OH230539   5.914   6.422   8.727  0.1630 -0.9201 -0.2951
 2115TIP3    H130540   5.997   6.468   8.710 -0.8577  0.8893 -0.7119
 2115TIP3    H230541   5.905   6.361   8.654  1.2986 -1.3968 -0.0519
 2116TIP3   OH230542   6.292   6.729   8.122 -0.6077 -0.1400  0.7351
 2116TIP3    H130543   6.263   6.795   8.185  0.6617 -0.4473  1.6832
 2116TIP3    H230544   6.317   6.779   8.044 -1.7155  0.2846  0.6305
 2117TIP3   OH230545   2.472   4.656   6.710 -0.0529  0.2688 -0.3471
 2117TIP3    H130546   2.531   4.706   6.765  0.0910 -0.0432 -0.2130
 2117TIP3    H230547   2.511   4.568   6.707 -0.5282  0.0486 -0.2237
 2118TIP3   OH230548   0.084   1.283   7.446 -0.0204  0.3026 -0.2831
 2118TIP3    H130549   0.157   1.233   7.480  0.1659 -0.4658 -1.7619
 2118TIP3    H230550   0.043   1.322   7.524 -0.6716 -2.7571  1.0491
 2119TIP3   OH230551   3.956   0.423   8.447  0.6198 -0.0719  0.2787
 2119TIP3    H130552   4.014   0.366   8.497 -0.7544  0.1631  2.2578
 2119TIP3    H230553   4.004   0.506   8.441  1.3552 -0.5049  0.0455
 2120TIP3   OH230554   4.380   7.255   6.493 -0.1126 -0.2565  0.2475
 2120TIP3    H130555   4.398   7.172   6.449  3.2030  1.2565 -1.6373
 2120TIP3    H230556   4.395   7.238   6.586 -0.9720 -2.0427  0.0983
 2121TIP3   OH230557   4.800   1.185   8.905  0.0095 -0.4682  0.1744
 2121TIP3    H130558   4.878   1.131   8.894  1.0646  0.9570  0.3034
 2121TIP3    H230559   4.823   1.269   8.864 -0.6405  0.7026  2.0510
 2122TIP3   OH230560   0.167   7.608   7.042  0.1820 -0.1372  0.3924
 2122TIP3    H130561   0.227   7.541   7.009  1.4145  0.6445  0.9813
 2122TIP3    H230562   0.080   7.576   7.018  0.7762 -1.6665  0.1680
 2123TIP3   OH230563   1.580   1.013   7.386 -0.3610 -0.0173 -0.2657
 2123TIP3    H130564   1.607   1.035   7.475 -0.1122 -1.6281  0.1020
 2123TIP3    H230565   1.650   0.956   7.354  0.0797  1.3803 -1.9061
 2124TIP3   OH230566   5.843   1.459   7.283 -0.3322 -1.2340  0.2175
 2124TIP3    H130567   5.904   1.515   7.235  2.2613 -2.1009  2.2321
 2124TIP3    H230568   5.889   1.375   7.291 -2.3414 -2.3524  0.8485
 2125TIP3   OH230569   3.664   5.837   9.575 -0.1301 -0.0928 -0.5351
 2125TIP3    H130570   3.728   5.878   9.516  2.1776 -1.1578  1.0751
 2125TIP3    H230571   3.643   5.754   9.531  0.4067 -0.1978 -0.6101
 2126TIP3   OH230572   0.330   5.649   8.835 -0.0483 -0.1954 -0.0350
 2126TIP3    H130573   0.312   5.600   8.916 -0.2792 -0.7381 -0.4065
 2126TIP3    H230574   0.333   5.741   8.863 -2.4031 -0.1285  0.2458
 2127TIP3   OH230575   1.995   6.733   8.984 -0.6811  0.2464  0.6108
 2127TIP3    H130576   1.988   6.644   9.019 -0.7289 -0.3857 -0.8989
 2127TIP3    H230577   1.913   6.775   9.009 -2.3135 -1.3291 -1.6880
 2128TIP3   OH230578   4.523   4.314   9.312  0.1905  0.0758  0.3721
 2128TIP3    H130579   4.518   4.334   9.406 -1.3867  2.3827 -0.1331
 2128TIP3    H230580   4.615   4.331   9.289  0.6007 -0.5313  1.4687
 2129TIP3   OH230581   1.529   2.521   8.074 -0.3317 -0.1414  0.4293
 2129TIP3    H130582   1.598   2.561   8.021  0.6357 -1.5147  0.5912
 2129TIP3    H230583   1.504   2.443   8.024 -0.0972 -0.9204  1.5091
 2130TIP3   OH230584   3.115   3.332   8.137 -0.1708 -0.0952  0.0753
 2130TIP3    H130585   3.184   3.386   8.099 -1.9769  1.0320 -1.8407
 2130TIP3    H230586   3.085   3.381   8.214 -1.4163  1.4841 -1.3299
 2131TIP3   OH230587   1.104   4.711   8.418  0.8625 -0.3307 -0.0081
 2131TIP3    H130588   1.027   4.735   8.366  0.0661 -1.3391  0.6577
 2131TIP3    H230589   1.160   4.789   8.417 -2.3745  2.4533  3.5484
 2132TIP3   OH230590   3.976   0.934   8.544 -0.7190  0.1643 -0.5938
 2132TIP3    H130591   3.980   0.900   8.633 -0.7650 -0.7438 -0.9348
 2132TIP3    H230592   4.060   0.979   8.532 -0.1650 -0.8400 -0.5422
 2133TIP3   OH230593   0.649   5.239   8.860  0.1141 -0.4265  0.3510
 2133TIP3    H130594   0.574   5.287   8.895  1.5666  0.1994  2.9242
 2133TIP3    H230595   0.635   5.149   8.888 -0.2899 -0.5600 -0.2804
 2134TIP3   OH230596   1.584   2.158   8.346 -0.0526 -0.6777 -0.3938
 2134TIP3    H130597   1.626   2.078   8.376  0.6022 -0.1173  0.2105
 2134TIP3    H230598   1.653   2.224   8.350 -1.5510  0.9588  3.3552
 2135TIP3   OH230599   5.801   2.950   8.131  0.5179 -0.7305 -0.0895
 2135TIP3    H130600   5.733   2.886   8.112 -0.9417  1.0065 -1.1172
 2135TIP3    H230601   5.848   2.961   8.048  0.6935 -0.3937  0.0523
 2136TIP3   OH230602   1.601   7.239   6.886  0.0931  0.2279 -0.0951
 2136TIP3    H130603   1.589   7.145   6.868 -0.3892  0.3317 -0.3191
 2136TIP3    H230604   1.524   7.281   6.848 -0.3496  0.5838  1.1791
 2137TIP3   OH230605   5.763   2.717   9.234  0.4246 -0.4631  0.7228
 2137TIP3    H130606   5.798   2.775   9.301 -0.4437  1.2388 -0.2331
 2137TIP3    H230607   5.673   2.700   9.262  1.0249 -2.5062  1.6778
 2138TIP3   OH230608   5.532   1.906   8.837  0.5715 -0.1522 -0.2391
 2138TIP3    H130609   5.450   1.915   8.887  0.7954  0.1956  0.0734
 2138TIP3    H230610   5.591   1.860   8.896  0.4817 -0.7482 -0.6115
 2139TIP3   OH230611   4.280   0.117   7.832 -0.3780 -0.6045  0.3853
 2139TIP3    H130612   4.261   0.025   7.813 -1.2614 -0.6874  1.5671
 2139TIP3    H230613   4.196   0.153   7.861 -0.0073  0.5528  0.0544
 2140TIP3   OH230614   1.771   5.899   9.161 -0.2622 -0.6436  0.2726
 2140TIP3    H130615   1.775   5.994   9.173 -0.4605 -0.4505 -1.0040
 2140TIP3    H230616   1.752   5.888   9.068 -1.8782 -1.9260  0.7116
 2141TIP3   OH230617   1.960   5.555   7.453 -0.5426 -0.7618  0.2565
 2141TIP3    H130618   1.984   5.506   7.532  0.1318  0.1108  0.6024
 2141TIP3    H230619   2.035   5.612   7.437 -0.7258 -0.8502 -0.9570
 2142TIP3   OH230620   2.388   4.229   8.125  0.0877 -0.0945  0.7610
 2142TIP3    H130621   2.302   4.188   8.125 -0.4857  1.0377  1.6586
 2142TIP3    H230622   2.407   4.246   8.033 -1.0010  0.3037  0.5915
 2143TIP3   OH230623   4.502   4.046   7.988  0.0147  1.0249  0.0147
 2143TIP3    H130624   4.544   3.961   7.973  0.0043  0.8115  1.1194
 2143TIP3    H230625   4.572   4.100   8.025 -0.3407  1.0776  0.6031
 2144TIP3   OH230626   2.401   3.067   8.247  0.1509  0.8447 -0.2212
 2144TIP3    H130627   2.311   3.088   8.222  0.2892 -0.2307 -1.7574
 2144TIP3    H230628   2.435   3.148   8.285 -1.8026  0.9545  1.4847
 2145TIP3   OH230629   0.430   6.773   8.374 -0.2783  0.3123  0.0827
 2145TIP3    H130630   0.494   6.702   8.365 -0.1445  0.5191 -0.7079
 2145TIP3    H230631   0.477   6.850   8.342 -1.0648  0.3891 -0.9210
 2146TIP3   OH230632   1.589   4.912   7.710  0.0105  0.0520  0.4631
 2146TIP3    H130633   1.500   4.947   7.709 -0.0677 -0.1255 -1.1416
 2146TIP3    H230634   1.643   4.984   7.675  0.2349 -0.4567 -0.2492
 2147TIP3   OH230635   4.675   4.248   7.791 -0.4194 -0.6581  0.1809
 2147TIP3    H130636   4.768   4.231   7.806  0.0668  1.2928 -0.3889
 2147TIP3    H230637   4.640   4.270   7.878  0.6565  2.7978 -0.1041
 2148TIP3   OH230638   6.753   4.802   9.518 -0.4558 -0.1403 -0.1970
 2148TIP3    H130639   6.675   4.782   9.571  0.2637 -0.1256  0.8923
 2148TIP3    H230640   6.735   4.762   9.433 -1.8810  0.3206 -0.1370
 2149TIP3   OH230641   1.150   4.635   9.173 -0.2012 -0.1258 -0.4099
 2149TIP3    H130642   1.148   4.540   9.169  1.2611 -0.2220  0.5486
 2149TIP3    H230643   1.187   4.655   9.259 -1.9051  1.3449  0.0602
 2150TIP3   OH230644   7.129   3.784   9.514  0.0058  0.3166 -0.6046
 2150TIP3    H130645   7.153   3.839   9.588  0.8354 -1.6570  0.6823
 2150TIP3    H230646   7.050   3.824   9.478 -0.3978  1.3499  1.3225
 2151TIP3   OH230647   1.256   6.372   8.740  0.3819 -0.0094 -0.2597
 2151TIP3    H130648   1.199   6.408   8.672 -0.9253 -1.4197  0.0353
 2151TIP3    H230649   1.339   6.354   8.695 -0.1296  0.0170 -1.2340
 2152TIP3   OH230650   4.403   1.084   7.816 -0.0841 -0.2419  0.1922
 2152TIP3    H130651   4.358   1.006   7.783 -0.1870  0.0917 -0.4806
 2152TIP3    H230652   4.332   1.146   7.835 -0.0604 -0.5916  1.5136
 2153TIP3   OH230653   1.848   6.949   7.587 -0.0391 -0.3907  0.6021
 2153TIP3    H130654   1.845   6.937   7.492  0.0625 -0.4337  0.6045
 2153TIP3    H230655   1.756   6.942   7.614 -0.6313  3.2772  0.0492
 2154TIP3   OH230656   5.289   5.700   8.899  0.2958  0.8326  0.0425
 2154TIP3    H130657   5.260   5.787   8.871 -0.2833  0.5756 -0.1656
 2154TIP3    H230658   5.208   5.651   8.912  0.6324  0.2281 -0.1360
 2155TIP3   OH230659   0.342   0.788   7.923  0.1502  0.6460 -0.3371
 2155TIP3    H130660   0.365   0.696   7.911 -0.7417  0.2263  0.9241
 2155TIP3    H230661   0.250   0.786   7.947  0.6587  1.6739  1.9171
 2156TIP3   OH230662   2.781   0.750   7.138  0.2062  0.3877  0.3252
 2156TIP3    H130663   2.735   0.832   7.158 -0.4081  0.1112  0.0758
 2156TIP3    H230664   2.801   0.756   7.045  0.1250  0.2358  0.2979
 2157TIP3   OH230665   6.052   3.819   9.519  0.1337 -0.0172 -0.4171
 2157TIP3    H130666   5.998   3.742   9.499  1.2887 -2.1731  3.6927
 2157TIP3    H230667   6.139   3.795   9.488  0.3271 -0.0396  0.1329
 2158TIP3   OH230668   4.402   3.732   7.433  0.2911  0.1586 -0.4480
 2158TIP3    H130669   4.409   3.783   7.352 -0.5692 -0.2653 -0.8042
 2158TIP3    H230670   4.389   3.797   7.501 -2.3060  0.4074 -1.0846
 2159TIP3   OH230671   5.904   2.928   8.927  0.0600  0.2215  0.2538
 2159TIP3    H130672   5.975   2.925   8.991  0.1253 -2.4987  0.1804
 2159TIP3    H230673   5.901   3.019   8.899  0.6820  1.3325  3.3715
 2160TIP3   OH230674   2.734   7.325   7.567  0.0739  0.4710  0.0013
 2160TIP3    H130675   2.662   7.283   7.615 -1.7108  0.7905 -2.2257
 2160TIP3    H230676   2.763   7.396   7.624 -2.3455  1.1997  0.4465
 2161TIP3   OH230677   5.462   4.378   7.450 -0.3930  0.3391  0.6092
 2161TIP3    H130678   5.419   4.293   7.444 -0.9314  0.6975 -1.7059
 2161TIP3    H230679   5.521   4.381   7.374  0.9640  1.3394  1.6494
 2162TIP3   OH230680   0.308   0.578   6.643  0.3717 -0.8584  0.4609
 2162TIP3    H130681   0.319   0.660   6.595 -0.8278 -0.3542  1.0083
 2162TIP3    H230682   0.394   0.561   6.682  0.5776  0.2538  0.5100
 2163TIP3   OH230683   3.745   1.709   7.380 -0.1210 -0.3984 -0.0763
 2163TIP3    H130684   3.832   1.745   7.364  0.5975 -1.8812  0.2681
 2163TIP3    H230685   3.758   1.646   7.451 -1.7303  0.2695  0.8491
 2164TIP3   OH230686   0.061   5.315   8.367 -0.7280 -0.1299 -0.1281
 2164TIP3    H130687   0.037   5.285   8.454 -0.6323  0.2713  0.0381
 2164TIP3    H230688   0.016   5.398   8.356  1.0387  0.9549  0.4375
 2165TIP3   OH230689   2.999   2.608   8.260 -0.4409  0.6397 -0.2011
 2165TIP3    H130690   3.026   2.640   8.346  1.1509 -1.4010  0.1407
 2165TIP3    H230691   2.913   2.646   8.246  0.3073  3.0377  1.1643
 2166TIP3   OH230692   0.582   7.581   8.504 -0.5978  0.3665 -0.0113
 2166TIP3    H130693   0.672   7.592   8.472 -0.1558 -1.1668  0.6240
 2166TIP3    H230694   0.574   7.645   8.574 -0.0036  0.5346 -0.0857
 2167TIP3   OH230695   6.475   1.856   9.115  0.1554 -0.2693 -0.6306
 2167TIP3    H130696   6.380   1.843   9.121  0.4456 -2.5579  0.0764
 2167TIP3    H230697   6.495   1.846   9.022 -0.2297 -0.4691 -0.6940
 2168TIP3   OH230698   1.286   6.328   9.032 -0.0419 -0.2535  0.2390
 2168TIP3    H130699   1.255   6.416   9.052 -1.1067 -0.9925  2.1028
 2168TIP3    H230700   1.298   6.328   8.937 -1.3289  1.4819  0.0263
 2169TIP3   OH230701   4.855   5.990   9.089  0.7809 -0.5381 -0.1955
 2169TIP3    H130702   4.935   5.950   9.055 -0.1147 -0.7208 -2.2582
 2169TIP3    H230703   4.796   5.917   9.105  0.3173 -0.2831 -0.6987
 2170TIP3   OH230704   3.565   1.112   8.334 -0.9778  0.0971 -0.3467
 2170TIP3    H130705   3.632   1.083   8.271  0.3567  0.9977  0.5958
 2170TIP3    H230706   3.547   1.203   8.308 -1.1121  0.1663 -0.0160
 2171TIP3   OH230707   3.039   3.480   7.866  0.2587 -0.6673  0.0338
 2171TIP3    H130708   2.965   3.524   7.909  0.1179  0.1605 -1.0277
 2171TIP3    H230709   3.046   3.396   7.912 -1.7521 -1.0421 -0.2471
 2172TIP3   OH230710   3.973   7.376   9.187 -0.6158 -0.0959  0.0041
 2172TIP3    H130711   4.057   7.335   9.163  0.9590  2.2340  1.1551
 2172TIP3    H230712   3.941   7.415   9.105  0.9096  1.3830  0.0525
 2173TIP3   OH230713   5.598   6.133   8.858  0.2951 -0.3975 -0.3090
 2173TIP3    H130714   5.602   6.119   8.763  2.2939 -0.3883 -0.2550
 2173TIP3    H230715   5.504   6.134   8.877 -0.1569 -0.4346 -2.2710
 2174TIP3   OH230716   6.063   0.944   9.324  1.0876  0.3456 -0.1299
 2174TIP3    H130717   6.095   0.977   9.408 -0.5242  1.6335  0.0298
 2174TIP3    H230718   6.106   0.860   9.313 -0.0297 -0.7447  2.8744
 2175TIP3   OH230719   0.347   3.144   9.035  0.4118  0.3600  0.1247
 2175TIP3    H130720   0.275   3.160   8.974  1.3486  4.4059 -0.2154
 2175TIP3    H230721   0.306   3.146   9.121 -0.3651 -1.4494 -0.1627
 2176TIP3   OH230722   7.519   3.637   8.128  0.4008 -0.0579 -0.1363
 2176TIP3    H130723   7.558   3.597   8.205 -2.9902 -0.0366  1.7859
 2176TIP3    H230724   7.543   3.730   8.134  2.0656 -0.4246 -0.4846
 2177TIP3   OH230725   4.824   3.126   8.778  0.4049  0.3860  0.2609
 2177TIP3    H130726   4.917   3.106   8.768  0.2959  0.5609 -1.4202
 2177TIP3    H230727   4.816   3.217   8.749 -0.4305  0.0780 -0.5096
 2178TIP3   OH230728   1.301   2.317   6.917  0.4803 -0.0840 -0.5461
 2178TIP3    H130729   1.382   2.366   6.925  0.0983  0.7901 -1.8372
 2178TIP3    H230730   1.328   2.225   6.921  1.1528  0.1488  2.3848
 2179TIP3   OH230731   1.341   4.638   7.722  0.1166  0.1399 -0.0557
 2179TIP3    H130732   1.291   4.719   7.714  0.7117  0.5517  0.3721
 2179TIP3    H230733   1.345   4.622   7.816  0.3347 -0.1807 -0.1201
 2180TIP3   OH230734   7.075   5.991   9.062 -0.1828 -0.2221  0.2411
 2180TIP3    H130735   7.036   6.075   9.085 -2.3396 -0.5410 -1.8828
 2180TIP3    H230736   7.006   5.927   9.077  0.9267 -1.4417  0.3739
 2181TIP3   OH230737   0.396   7.421   8.698 -0.2533 -0.6309 -0.3803
 2181TIP3    H130738   0.468   7.364   8.671  0.1787 -0.0845 -0.4101
 2181TIP3    H230739   0.438   7.489   8.751 -0.6562  0.0224 -0.8766
 2182TIP3   OH230740   0.231   1.748   8.146  0.3163  0.4632 -0.7365
 2182TIP3    H130741   0.153   1.802   8.131 -0.3705  0.2691  1.7766
 2182TIP3    H230742   0.212   1.700   8.226  2.6569 -0.3245 -0.5829
 2183TIP3   OH230743   4.212   1.098   8.598 -0.3006  0.1208 -0.2188
 2183TIP3    H130744   4.278   1.088   8.530 -1.2730  0.1886 -1.1981
 2183TIP3    H230745   4.209   1.192   8.616  0.8815 -0.0218  0.8964
 2184TIP3   OH230746   1.654   1.059   7.636 -0.2813  0.0783  0.2603
 2184TIP3    H130747   1.701   1.138   7.660 -0.0463 -0.1853  0.6791
 2184TIP3    H230748   1.616   1.028   7.718  0.9966 -1.1462  0.4306
 2185TIP3   OH230749   1.430   2.354   7.609 -0.2287 -0.5414  0.0199
 2185TIP3    H130750   1.457   2.280   7.554 -1.7684 -3.2200  2.5428
 2185TIP3    H230751   1.511   2.387   7.646  0.5702 -0.4185 -1.7508
 2186TIP3   OH230752   4.157   4.413   7.032  0.1715 -0.3073 -0.1681
 2186TIP3    H130753   4.251   4.430   7.028 -0.1290  1.5855 -0.1230
 2186TIP3    H230754   4.119   4.472   6.967 -1.1073  0.0943  0.8882
 2187TIP3   OH230755   5.112   6.995   7.953  0.1075  0.6665  0.1681
 2187TIP3    H130756   5.158   6.961   7.876 -0.0904  0.4493  0.1432
 2187TIP3    H230757   5.102   6.919   8.010  0.0682  0.7819  0.3144
 2188TIP3   OH230758   4.520   5.818   8.043  0.1438  0.0930  0.9439
 2188TIP3    H130759   4.434   5.807   8.083  0.1699 -0.6126  0.8237
 2188TIP3    H230760   4.581   5.825   8.117 -0.1185  1.5684  1.0388
 2189TIP3   OH230761   3.728   7.160   9.064  0.2966  0.4586 -0.0446
 2189TIP3    H130762   3.820   7.137   9.052 -0.6676 -3.8911 -0.8463
 2189TIP3    H230763   3.697   7.185   8.977  0.4154  0.5057 -0.0726
 2190TIP3   OH230764   1.012   0.166   8.573 -0.6886  0.0701  0.4041
 2190TIP3    H130765   0.989   0.078   8.544  0.1965 -0.4754  1.3048
 2190TIP3    H230766   1.108   0.165   8.581 -0.5567  1.4372 -0.5679
 2191TIP3   OH230767   4.494   1.481   9.577  0.4717 -0.6916 -0.1265
 2191TIP3    H130768   4.427   1.415   9.598  0.6311 -0.7958  0.0579
 2191TIP3    H230769   4.445   1.552   9.536  0.1173 -0.4231  0.7176
 2192TIP3   OH230770   4.945   5.806   7.846 -0.5393  0.1809  0.1613
 2192TIP3    H130771   4.875   5.822   7.783 -1.3000  0.5413  1.0792
 2192TIP3    H230772   4.901   5.775   7.924  0.5277 -1.8030  0.0294
 2193TIP3   OH230773   5.285   4.191   7.990  0.2684 -0.5081  0.0832
 2193TIP3    H130774   5.298   4.224   7.901 -0.5867 -1.9893 -0.6329
 2193TIP3    H230775   5.201   4.229   8.017 -0.9187 -2.3015 -0.8969
 2194TIP3   OH230776   5.653   2.774   7.471  0.2368 -0.4792  0.7969
 2194TIP3    H130777   5.733   2.780   7.419 -0.9945  0.4038 -1.1260
 2194TIP3    H230778   5.582   2.788   7.408 -1.4459 -1.0434  2.4507
 2195TIP3   OH230779   6.809   5.541   8.764  0.7711  0.3441 -0.0116
 2195TIP3    H130780   6.719   5.520   8.741  0.6757  0.3849  0.3242
 2195TIP3    H230781   6.860   5.467   8.731  0.7324  0.7707 -1.0464
 2196TIP3   OH230782   7.155   6.160   7.032  0.2147 -0.2302  0.1596
 2196TIP3    H130783   7.198   6.203   6.959 -0.2663  0.5274  0.3144
 2196TIP3    H230784   7.115   6.081   6.994 -0.9783  0.7232 -0.6341
 2197TIP3   OH230785   5.393   6.058   7.863  0.2992  0.5243  0.2537
 2197TIP3    H130786   5.311   6.022   7.898  0.8905 -0.2453  0.8978
 2197TIP3    H230787   5.398   6.146   7.900  0.0737  0.3378  0.7383
 2198TIP3   OH230788   5.122   2.621   7.932  0.3900 -0.2975  0.4525
 2198TIP3    H130789   5.058   2.554   7.955  0.6666 -1.3935 -1.8063
 2198TIP3    H230790   5.184   2.620   8.005 -1.3527 -0.1664  2.0286
 2199TIP3   OH230791   5.014   6.770   9.032 -0.0335  0.2753  0.2209
 2199TIP3    H130792   4.949   6.732   9.091 -2.3382  2.6049 -0.6229
 2199TIP3    H230793   4.964   6.795   8.955  2.1449  1.0709 -1.0133
 2200TIP3   OH230794   3.846   7.539   8.710 -0.2628 -0.0205 -0.3306
 2200TIP3    H130795   3.777   7.604   8.723  0.0797  0.2066  0.4336
 2200TIP3    H230796   3.888   7.564   8.627 -0.7187  0.1874 -0.4987
 2201TIP3   OH230797   0.544   1.059   8.294 -0.2246  0.0033  0.1318
 2201TIP3    H130798   0.537   1.007   8.374 -1.6315 -0.3719 -0.2035
 2201TIP3    H230799   0.605   1.010   8.239  0.7391  0.2525  0.9485
 2202TIP3   OH230800   5.226   5.760   7.135 -0.7439  0.8101  0.5618
 2202TIP3    H130801   5.258   5.690   7.191 -1.7776 -1.2228 -1.2667
 2202TIP3    H230802   5.140   5.782   7.171 -0.5563  0.9279  0.9442
 2203TIP3   OH230803   3.617   6.648   7.969 -0.0452  0.3115  0.5830
 2203TIP3    H130804   3.593   6.558   7.948 -1.4156  0.8455 -0.3290
 2203TIP3    H230805   3.542   6.700   7.939  2.4080  2.2205 -3.0023
 2204TIP3   OH230806   6.779   1.834   7.179  0.0672 -0.2486  0.0962
 2204TIP3    H130807   6.713   1.876   7.234 -0.1938 -0.1441 -0.2998
 2204TIP3    H230808   6.850   1.898   7.174 -1.2438  1.1385 -2.3492
 2205TIP3   OH230809   2.419   3.498   8.460 -0.0019  0.4744  0.0199
 2205TIP3    H130810   2.505   3.541   8.461  1.3014 -1.8490 -1.9253
 2205TIP3    H230811   2.391   3.500   8.551  3.2511 -0.7140  1.2057
 2206TIP3   OH230812   3.255   1.579   8.261  0.1898  0.2379  0.9970
 2206TIP3    H130813   3.166   1.607   8.241  0.6794  0.2949 -1.4242
 2206TIP3    H230814   3.304   1.661   8.269  0.9520  0.3104 -2.7562
 2207TIP3   OH230815   2.871   2.402   7.606 -0.1003 -0.4483  0.2856
 2207TIP3    H130816   2.799   2.458   7.635  2.7506  2.9702  1.5133
 2207TIP3    H230817   2.870   2.410   7.510  0.9059  2.9381  0.4253
 2208TIP3   OH230818   0.590   5.239   7.481  0.4741  0.1243 -0.2118
 2208TIP3    H130819   0.559   5.308   7.539 -0.2099  1.4217 -2.0097
 2208TIP3    H230820   0.522   5.172   7.484  1.2892 -0.6698  1.7879
 2209TIP3   OH230821   4.744   4.601   8.306 -0.1382 -0.1514 -0.0723
 2209TIP3    H130822   4.744   4.552   8.224 -0.1397  0.7773 -0.6390
 2209TIP3    H230823   4.655   4.635   8.314  0.2142  0.8520 -0.3558
 2210TIP3   OH230824   2.529   2.145   8.067 -0.1187  0.0545  0.1579
 2210TIP3    H130825   2.483   2.228   8.084 -1.8406 -0.9874  0.8945
 2210TIP3    H230826   2.571   2.124   8.151  2.1045  1.1657 -0.6005
 2211TIP3   OH230827   7.474   1.333   7.137 -0.1132  0.5173 -0.9348
 2211TIP3    H130828   7.421   1.354   7.061  0.9733  1.0888 -1.5526
 2211TIP3    H230829   7.552   1.292   7.101  0.7258  1.4205 -0.1971
 2212TIP3   OH230830   6.897   2.180   6.913  0.5601 -0.0695  0.0739
 2212TIP3    H130831   6.880   2.178   6.819  2.8810 -0.7610 -0.4045
 2212TIP3    H230832   6.969   2.118   6.926  0.9056  0.6734  2.1609
 2213TIP3   OH230833   4.268   5.140   8.459  0.4158 -0.1194  0.4309
 2213TIP3    H130834   4.280   5.050   8.488  0.9885 -0.3179 -0.3966
 2213TIP3    H230835   4.200   5.176   8.518 -1.1024 -1.6069 -0.3280
 2214TIP3   OH230836   6.781   4.847   7.796 -0.0673  0.4191  0.1804
 2214TIP3    H130837   6.826   4.813   7.718 -1.7492 -0.7654 -0.3529
 2214TIP3    H230838   6.694   4.806   7.792 -0.5698  1.2102  2.1023
 2215TIP3   OH230839   0.236   0.145   7.803 -0.6998 -0.1550  0.3386
 2215TIP3    H130840   0.262   0.156   7.712 -0.7674 -0.1481  0.3203
 2215TIP3    H230841   0.305   0.090   7.841  0.2907  1.3089  0.7394
 2216TIP3   OH230842   3.132   5.602   6.837 -0.6435  0.0244  0.5759
 2216TIP3    H130843   3.129   5.516   6.877  2.7659 -0.2522  0.4822
 2216TIP3    H230844   3.103   5.588   6.747 -1.3762 -0.7510  0.9238
 2217TIP3   OH230845   7.667   3.287   7.839 -0.0258  0.2081 -0.0702
 2217TIP3    H130846   7.611   3.359   7.869 -0.4858  0.4896 -1.5306
 2217TIP3    H230847   7.755   3.323   7.840  0.2578 -0.3520  2.6106
 2218TIP3   OH230848   7.234   6.066   7.687  0.3853 -0.0371  0.3414
 2218TIP3    H130849   7.272   5.979   7.695  1.7747  0.6676  2.0845
 2218TIP3    H230850   7.298   6.115   7.636  0.3711  0.3567  0.6942
 2219TIP3   OH230851   3.792   4.083   8.518 -0.4735  0.3080 -0.3771
 2219TIP3    H130852   3.852   4.155   8.538 -1.1262  0.8221 -0.2423
 2219TIP3    H230853   3.720   4.124   8.470 -0.1833 -0.4883 -1.5369
 2220TIP3   OH230854   2.606   0.227   8.014 -0.2385  0.8171 -0.2786
 2220TIP3    H130855   2.585   0.220   8.107  4.1263 -0.4397  0.8220
 2220TIP3    H230856   2.613   0.321   7.998 -1.0477  1.0516  0.6235
 2221TIP3   OH230857   1.549   5.884   8.141 -0.0760  0.7162 -0.1869
 2221TIP3    H130858   1.631   5.933   8.150  0.1136  0.1564  1.5151
 2221TIP3    H230859   1.545   5.830   8.220 -0.3188 -1.9547 -1.9041
 2222TIP3   OH230860   4.060   0.822   9.004 -0.1689  0.5329  0.7452
 2222TIP3    H130861   3.992   0.822   9.071 -0.6926 -3.1700  0.4228
 2222TIP3    H230862   4.134   0.778   9.045 -0.5488 -1.9228 -0.9788
 2223TIP3   OH230863   4.318   7.275   8.473  0.5998 -0.5456  0.1107
 2223TIP3    H130864   4.407   7.306   8.487  1.4601 -3.1777  1.0497
 2223TIP3    H230865   4.313   7.256   8.379  0.1015  2.0455 -0.4520
 2224TIP3   OH230866   1.620   2.559   8.925  0.4510  0.4336 -0.2394
 2224TIP3    H130867   1.679   2.611   8.871  0.6942  2.5051  1.8799
 2224TIP3    H230868   1.541   2.612   8.932 -1.6292 -2.0501 -2.5888
 2225TIP3   OH230869   1.841   3.901   7.206 -0.3033  0.4881  0.5050
 2225TIP3    H130870   1.797   3.936   7.129  0.4255  0.5772  0.1207
 2225TIP3    H230871   1.821   3.964   7.276 -0.4712  0.7237  0.2482
 2226TIP3   OH230872   0.946   0.626   9.336  0.1415 -0.0735  0.1007
 2226TIP3    H130873   0.987   0.712   9.329 -1.5847  0.7242 -1.0152
 2226TIP3    H230874   1.013   0.565   9.307  1.1582  0.9679  0.1923
 2227TIP3   OH230875   5.710   4.396   7.587 -0.1454 -0.4033 -0.6534
 2227TIP3    H130876   5.765   4.352   7.522 -0.4288 -0.0962 -1.0989
 2227TIP3    H230877   5.626   4.410   7.543  0.0426  0.8857 -0.6297
 2228TIP3   OH230878   5.808   4.195   9.142  0.0314 -0.2743  0.0073
 2228TIP3    H130879   5.719   4.223   9.121 -0.4038 -1.7022 -0.2282
 2228TIP3    H230880   5.830   4.240   9.224 -0.2331  1.4115 -0.8140
 2229TIP3   OH230881   3.987   6.424   8.882  0.2939 -0.9741  0.1040
 2229TIP3    H130882   3.912   6.366   8.896  1.4300 -2.2827  1.2901
 2229TIP3    H230883   3.956   6.492   8.824 -2.1772 -0.7347  1.5837
 2230TIP3   OH230884   5.410   0.564   9.212 -0.4833 -0.5402 -0.7968
 2230TIP3    H130885   5.475   0.610   9.158 -1.4554  0.2938 -1.2930
 2230TIP3    H230886   5.349   0.527   9.149 -0.8108 -0.8269 -0.3115
 2231TIP3   OH230887   5.611   5.506   8.261 -0.2200  0.2578 -0.1200
 2231TIP3    H130888   5.695   5.513   8.216 -0.7209 -2.9456 -1.8097
 2231TIP3    H230889   5.546   5.516   8.191 -1.1834  0.1694  0.7370
 2232TIP3   OH230890   7.299   6.931   7.077 -1.0455  0.3290 -0.3246
 2232TIP3    H130891   7.366   6.979   7.028 -1.3994 -0.3243 -1.4945
 2232TIP3    H230892   7.233   6.997   7.099  0.6041  1.2799  2.0983
 2233TIP3   OH230893   6.727   4.909   8.073 -0.1217 -0.4345  0.3764
 2233TIP3    H130894   6.701   4.831   8.122 -1.0823  0.8865  2.0878
 2233TIP3    H230895   6.722   4.882   7.982 -2.0179 -1.9288  0.8423
 2234TIP3   OH230896   0.838   5.804   9.356  0.4407  0.7953 -0.5339
 2234TIP3    H130897   0.752   5.844   9.369 -0.5654 -1.9182  2.5149
 2234TIP3    H230898   0.900   5.868   9.391 -0.9352  0.6784  2.4648
 2235TIP3   OH230899   3.337   7.674   7.579 -0.3953  0.3623 -0.3659
 2235TIP3    H130900   3.317   7.598   7.525  0.6512  0.1952 -0.5342
 2235TIP3    H230901   3.328   7.749   7.520 -0.1160  0.2510 -0.5524
 2236TIP3   OH230902   4.318   7.374   7.316 -0.6798 -0.4110 -0.4914
 2236TIP3    H130903   4.318   7.426   7.396 -1.9215  0.7217 -1.1920
 2236TIP3    H230904   4.381   7.418   7.259 -0.2293 -0.8769 -0.3630
 2237TIP3   OH230905   2.787   4.888   6.501  0.0487  0.0364  0.2771
 2237TIP3    H130906   2.878   4.903   6.473  0.2247  1.2900  1.4546
 2237TIP3    H230907   2.765   4.802   6.464  0.9169  0.7104 -1.9995
 2238TIP3   OH230908   4.510   0.533   7.536  0.2807  0.1391  0.5450
 2238TIP3    H130909   4.417   0.511   7.526 -0.9370  3.7565  2.0842
 2238TIP3    H230910   4.537   0.564   7.449  0.6471 -2.4822 -0.3546
 2239TIP3   OH230911   1.183   6.064   7.455 -0.7914 -0.0121  0.3467
 2239TIP3    H130912   1.221   6.063   7.542  0.0450  0.6158  0.0023
 2239TIP3    H230913   1.097   6.025   7.466 -0.7401  0.1628  1.4691
 2240TIP3   OH230914   3.369   4.876   9.025 -0.4960  0.1611  0.3835
 2240TIP3    H130915   3.421   4.860   9.104 -0.2285  0.0276  0.1845
 2240TIP3    H230916   3.434   4.876   8.954 -0.9033 -1.1389 -0.0088
 2241TIP3   OH230917   2.349   4.268   7.850  0.4822  0.0584  0.4658
 2241TIP3    H130918   2.358   4.207   7.776 -0.4339  1.3940 -0.8203
 2241TIP3    H230919   2.312   4.347   7.810 -0.4870  0.6615  2.4475
 2242TIP3   OH230920   6.957   1.055   6.801 -0.0896  0.0402 -0.2451
 2242TIP3    H130921   6.918   1.116   6.739  0.1884  0.7574  0.2715
 2242TIP3    H230922   7.050   1.077   6.801 -0.1136  0.1766  0.5596
 2243TIP3   OH230923   1.664   2.703   8.332 -0.1082  0.1710  0.5154
 2243TIP3    H130924   1.619   2.621   8.355 -1.0072  0.6632  0.5237
 2243TIP3    H230925   1.684   2.693   8.239  2.0790 -1.1261  1.0418
 2244TIP3   OH230926   0.192   4.723   9.160  0.0490 -0.0960 -0.1639
 2244TIP3    H130927   0.223   4.633   9.149 -2.0101 -0.9032  0.1626
 2244TIP3    H230928   0.156   4.725   9.249  1.2807  1.4754  0.3423
 2245TIP3   OH230929   1.366   3.493   8.182  0.1202  0.1896  0.1962
 2245TIP3    H130930   1.445   3.482   8.130  1.2302  2.0189  1.3767
 2245TIP3    H230931   1.394   3.474   8.272 -0.9165  0.3471  0.5676
 2246TIP3   OH230932   7.543   4.115   8.415  0.1828  0.0020  0.1671
 2246TIP3    H130933   7.457   4.107   8.455 -0.2812  1.0181 -0.6160
 2246TIP3    H230934   7.545   4.203   8.378  0.8826 -0.6297 -1.3687
 2247TIP3   OH230935   0.323   4.352   8.105  0.0187  0.5560  0.0293
 2247TIP3    H130936   0.363   4.265   8.111 -0.2229  0.4572  0.1907
 2247TIP3    H230937   0.394   4.412   8.128  0.4953  0.4701 -1.1564
 2248TIP3   OH230938   7.503   4.415   8.887 -0.3163  0.0712  0.6826
 2248TIP3    H130939   7.435   4.482   8.889  1.2508  1.7347  1.2606
 2248TIP3    H230940   7.465   4.343   8.837 -1.6620  1.8598 -1.0005
 2249TIP3   OH230941   3.057   3.830   7.797  0.2726  0.4705  0.7661
 2249TIP3    H130942   3.015   3.745   7.779  2.8914 -0.4038 -2.1203
 2249TIP3    H230943   3.011   3.891   7.739  1.8107 -0.1811 -1.2521
 2250TIP3   OH230944   4.062   4.121   7.120 -0.7777 -0.3645 -0.1848
 2250TIP3    H130945   4.109   4.174   7.055 -0.1924  0.0956  0.5868
 2250TIP3    H230946   3.976   4.161   7.127 -0.7457 -0.2464 -0.4788
 2251TIP3   OH230947   1.223   5.905   8.308 -0.3011  0.6256 -0.2164
 2251TIP3    H130948   1.248   5.945   8.224 -0.4195 -3.0387 -2.1878
 2251TIP3    H230949   1.127   5.905   8.306 -0.3228  1.2283  0.3501
 2252TIP3   OH230950   6.380   6.479   8.609  0.1744 -0.2563 -0.3101
 2252TIP3    H130951   6.417   6.390   8.612 -0.8852 -0.7635 -1.5667
 2252TIP3    H230952   6.369   6.498   8.516 -3.8227 -0.6421 -0.0884
 2253TIP3   OH230953   3.868   7.264   9.473  0.7364  0.0205 -0.7390
 2253TIP3    H130954   3.912   7.292   9.394  0.6698  0.5070 -0.6091
 2253TIP3    H230955   3.935   7.218   9.524  1.3110  1.4257 -0.1932
 2254TIP3   OH230956   1.938   5.632   9.100  0.6355 -0.3492  0.3440
 2254TIP3    H130957   1.958   5.575   9.025  0.7070 -0.1053  0.1756
 2254TIP3    H230958   1.850   5.667   9.080  1.0950  0.5613 -0.1630
 2255TIP3   OH230959   5.105   3.255   8.080 -0.4372 -0.1818 -0.7096
 2255TIP3    H130960   5.060   3.340   8.088 -0.9156 -0.4597 -0.4135
 2255TIP3    H230961   5.164   3.252   8.156  0.0161  0.1360 -1.0412
 2256TIP3   OH230962   0.435   7.375   8.404  0.1531 -0.1243  0.2141
 2256TIP3    H130963   0.479   7.456   8.429 -1.9094  0.4834  2.2344
 2256TIP3    H230964   0.468   7.310   8.465  0.3978 -0.3596 -0.1654
 2257TIP3   OH230965   2.344   1.543   8.316  0.0232  0.4076 -0.3624
 2257TIP3    H130966   2.285   1.472   8.339 -0.2936  0.6300 -0.4876
 2257TIP3    H230967   2.296   1.595   8.251  0.8673 -0.1861 -1.5106
 2258TIP3   OH230968   1.032   1.728   7.036 -0.9695 -0.3516  0.2332
 2258TIP3    H130969   0.982   1.646   7.033 -2.0747  0.3184 -0.4714
 2258TIP3    H230970   1.104   1.715   6.974 -1.9407 -0.3118 -0.9436
 2259TIP3   OH230971   3.039   1.788   7.132 -0.1520  0.1669  0.4559
 2259TIP3    H130972   3.086   1.804   7.214  1.8448  1.0895 -0.8051
 2259TIP3    H230973   3.025   1.874   7.095 -2.6031 -0.1046  0.5716
 2260TIP3   OH230974   0.919   3.172   8.451  0.7499  0.1145 -0.1681
 2260TIP3    H130975   0.858   3.245   8.442 -1.8979 -2.0577 -1.1725
 2260TIP3    H230976   0.922   3.132   8.364  3.3657 -0.1479 -0.0566
 2261TIP3   OH230977   6.542   0.056   8.682 -0.4272 -0.2501 -0.8193
 2261TIP3    H130978   6.565   0.117   8.611 -1.2403  1.4152  0.2724
 2261TIP3    H230979   6.626   0.037   8.724 -0.2522  0.9679 -0.5571
 2262TIP3   OH230980   0.803   0.058   6.412  0.2861 -0.2276  0.0535
 2262TIP3    H130981   0.749   0.116   6.358 -1.0468  0.5399  2.0796
 2262TIP3    H230982   0.847   0.117   6.473  2.0993 -1.0252 -0.4133
 2263TIP3   OH230983   4.856   5.425   8.727  0.1898  0.0553 -0.3346
 2263TIP3    H130984   4.778   5.369   8.722  1.0785 -1.3079  0.4442
 2263TIP3    H230985   4.883   5.437   8.636  0.0079 -0.8358 -0.5150
 2264TIP3   OH230986   5.367   5.468   7.832 -0.3960 -0.3093 -0.5347
 2264TIP3    H130987   5.444   5.475   7.775 -1.0778 -0.8189 -1.5535
 2264TIP3    H230988   5.307   5.533   7.797 -1.3103 -1.4775 -1.2314
 2265TIP3   OH230989   3.584   3.463   8.310  0.4718 -0.1697  0.4168
 2265TIP3    H130990   3.535   3.402   8.256  1.5670  0.0963 -0.9285
 2265TIP3    H230991   3.522   3.533   8.330  0.1694 -0.0354 -0.9076
 2266TIP3   OH230992   1.764   7.053   8.401 -0.8346 -0.0630  0.0586
 2266TIP3    H130993   1.818   6.978   8.378  0.5417 -0.0110  2.6881
 2266TIP3    H230994   1.794   7.123   8.343 -1.4694 -1.2008 -1.7518
 2267TIP3   OH230995   5.116   0.475   9.293 -0.1061 -0.6847  0.1059
 2267TIP3    H130996   5.137   0.384   9.314  1.4492 -0.5095 -0.5257
 2267TIP3    H230997   5.196   0.523   9.315 -0.9275  0.5436  0.4776
 2268TIP3   OH230998   7.143   6.254   8.026  0.0221 -0.0251  0.1169
 2268TIP3    H130999   7.078   6.289   8.088  0.6802  0.5471  0.4886
 2268TIP3    H231000   7.202   6.327   8.009  1.1879 -0.8217  0.5876
 2269TIP3   OH231001   4.514   4.056   8.645 -0.6723 -0.6335  0.5620
 2269TIP3    H131002   4.591   4.029   8.695 -1.3456 -2.1548  0.8349
 2269TIP3    H231003   4.444   4.064   8.711 -0.8733  0.2627  0.2551
 2270TIP3   OH231004   3.179   7.632   7.109 -0.6190 -0.3279 -0.4264
 2270TIP3    H131005   3.268   7.666   7.116 -0.7886  0.1572 -0.5703
 2270TIP3    H231006   3.184   7.564   7.043 -0.6930  0.9069 -1.7578
 2271TIP3   OH231007   4.273   1.996   8.504 -0.0843  0.3061 -0.6291
 2271TIP3    H131008   4.359   1.955   8.497 -0.9722 -1.8244  0.0496
 2271TIP3    H231009   4.244   2.008   8.414  0.7534  0.7058 -0.8549
 2272TIP3   OH231010   3.884   4.087   9.539 -0.1298 -0.4552 -0.2701
 2272TIP3    H131011   3.847   4.048   9.460 -0.1320 -0.3844 -0.3042
 2272TIP3    H231012   3.821   4.066   9.608  0.2073 -1.1139 -0.1491
 2273TIP3   OH231013   3.353   2.823   9.401 -0.0006 -0.5507  0.7353
 2273TIP3    H131014   3.361   2.820   9.496 -0.1151  0.8116  0.7984
 2273TIP3    H231015   3.349   2.916   9.379  1.8623 -0.7575 -0.7687
 2274TIP3   OH231016   7.063   1.111   9.231  0.0030  0.3073 -0.5732
 2274TIP3    H131017   7.143   1.150   9.195  0.1805 -0.1401 -0.6625
 2274TIP3    H231018   7.074   1.017   9.218 -0.2801  0.2027 -0.0568
 2275TIP3   OH231019   7.419   2.266   8.834  0.5296  0.2626 -0.1891
 2275TIP3    H131020   7.419   2.345   8.888  0.0188 -0.1113  0.3734
 2275TIP3    H231021   7.377   2.293   8.752 -0.9737  0.2183  0.5508
 2276TIP3   OH231022   0.780   6.231   7.091  0.3583  0.5499 -0.0401
 2276TIP3    H131023   0.729   6.222   7.171 -0.9895  0.4686 -0.8774
 2276TIP3    H231024   0.831   6.150   7.086  0.4745  0.5711  0.7491
 2277TIP3   OH231025   1.129   2.143   7.925  0.9409  0.5079 -0.4232
 2277TIP3    H131026   1.217   2.133   7.889  1.0394  1.1320 -0.3605
 2277TIP3    H231027   1.101   2.054   7.945  0.8605  0.1152 -2.1139
 2278TIP3   OH231028   6.842   1.963   8.334 -0.5018 -0.4074 -0.1984
 2278TIP3    H131029   6.884   1.967   8.248 -0.3131  0.0225 -0.0898
 2278TIP3    H231030   6.915   1.952   8.395 -0.5204  0.5826  0.0144
 2279TIP3   OH231031   3.882   4.315   8.027  0.4172  0.3158 -0.9203
 2279TIP3    H131032   3.801   4.365   8.036 -0.7197 -1.7660  3.0898
 2279TIP3    H231033   3.861   4.229   8.066  3.9985 -1.0282 -1.5839
 2280TIP3   OH231034   2.739   1.469   7.707 -0.1060  0.0900  0.1954
 2280TIP3    H131035   2.686   1.468   7.787  0.0802 -0.1044  0.3183
 2280TIP3    H231036   2.753   1.377   7.686 -1.1854  0.1349 -0.7593
 2281TIP3   OH231037   2.465   1.272   7.562 -0.5387  0.0828 -0.0603
 2281TIP3    H131038   2.498   1.287   7.473 -0.2494  1.2576  0.2265
 2281TIP3    H231039   2.436   1.359   7.591 -2.3844 -0.6158  0.3058
 2282TIP3   OH231040   3.423   0.255   7.763  0.1559 -1.2186  0.1607
 2282TIP3    H131041   3.434   0.326   7.826 -1.3326 -0.8894  0.0812
 2282TIP3    H231042   3.512   0.222   7.749  0.6238 -0.7462  1.7699
 2283TIP3   OH231043   1.771   7.073   7.158 -0.1915  0.1405  0.0400
 2283TIP3    H131044   1.719   7.012   7.105  1.5680  1.6979 -3.8975
 2283TIP3    H231045   1.709   7.139   7.187 -1.5018 -1.6026  1.4121
 2284TIP3   OH231046   6.809   1.009   9.434 -0.2938  0.5466 -0.6161
 2284TIP3    H131047   6.904   1.020   9.431 -0.2852  0.5133 -0.4646
 2284TIP3    H231048   6.775   1.098   9.433 -0.1351  0.9635  4.4350
 2285TIP3   OH231049   6.333   3.296   9.155 -0.3642  0.1433 -0.0821
 2285TIP3    H131050   6.348   3.263   9.243  1.2298 -0.8137 -0.6643
 2285TIP3    H231051   6.241   3.275   9.137 -1.0007  1.2494  1.6729
 2286TIP3   OH231052   5.018   1.251   9.157  0.1086  0.7106 -0.1121
 2286TIP3    H131053   4.987   1.332   9.118  1.9718  2.3670  1.6236
 2286TIP3    H231054   5.109   1.268   9.180  0.2646 -1.5198  1.2633
 2287TIP3   OH231055   2.425   4.762   7.709 -0.0206 -0.5495 -0.3723
 2287TIP3    H131056   2.350   4.715   7.744 -0.5876 -0.4276 -1.4002
 2287TIP3    H231057   2.457   4.814   7.783 -1.3076 -0.1387 -0.0842
 2288TIP3   OH231058   6.770   3.410   9.194  0.2140 -0.0883  0.2987
 2288TIP3    H131059   6.835   3.374   9.134  0.1967 -1.3900  1.0242
 2288TIP3    H231060   6.814   3.484   9.235  1.2006 -0.8202  0.6267
 2289TIP3   OH231061   2.779   5.195   8.935 -0.5663  0.5224 -0.0159
 2289TIP3    H131062   2.867   5.178   8.901  0.0115  2.2812  0.4709
 2289TIP3    H231063   2.787   5.185   9.029 -0.7385  1.1771  0.0767
 2290TIP3   OH231064   4.390   1.052   7.140 -0.6247 -0.1581  0.6340
 2290TIP3    H131065   4.436   1.134   7.121 -2.5936  1.4050  2.2729
 2290TIP3    H231066   4.397   1.002   7.058  0.6767  1.5830 -0.3965
 2291TIP3   OH231067   5.428   0.800   8.895  0.7121  0.3142  0.1012
 2291TIP3    H131068   5.499   0.771   8.952 -0.3361 -0.6925  0.9508
 2291TIP3    H231069   5.362   0.731   8.902 -0.0544  0.8689 -1.2289
 2292TIP3   OH231070   0.132   2.140   7.514 -0.0730 -0.2606 -0.3192
 2292TIP3    H131071   0.084   2.221   7.499  0.0513 -0.2326 -0.5651
 2292TIP3    H231072   0.171   2.151   7.601 -1.8392 -0.9395  0.6042
 2293TIP3   OH231073   3.646   1.636   8.306 -0.1732 -0.3986 -0.2032
 2293TIP3    H131074   3.722   1.684   8.338  0.0794 -2.1186  2.0400
 2293TIP3    H231075   3.571   1.689   8.332  0.1480 -0.5590  1.0985
 2294TIP3   OH231076   7.622   5.280   9.068 -0.0481  0.5643 -0.1776
 2294TIP3    H131077   7.558   5.293   8.998 -1.5286 -1.1632  0.7716
 2294TIP3    H231078   7.612   5.357   9.123 -1.9573 -0.0250  0.3852
 2295TIP3   OH231079   6.826   1.676   8.316  0.6291  0.0561  0.1413
 2295TIP3    H131080   6.839   1.767   8.289 -0.2246  0.6022  1.4343
 2295TIP3    H231081   6.800   1.682   8.408 -3.1542 -1.2085 -0.6506
 2296TIP3   OH231082   2.173   5.822   7.653  0.5103  0.0927 -0.0934
 2296TIP3    H131083   2.198   5.800   7.564  0.3986  0.4324 -0.2104
 2296TIP3    H231084   2.105   5.889   7.643 -1.1886 -1.5000  0.1844
 2297TIP3   OH231085   1.539   2.984   9.441  0.0415 -0.0279 -0.3217
 2297TIP3    H131086   1.579   2.911   9.393  0.6270  0.4820 -0.6247
 2297TIP3    H231087   1.445   2.975   9.425  0.2811  0.7833 -2.5612
 2298TIP3   OH231088   6.982   6.843   8.732  0.3759  0.3186  0.5089
 2298TIP3    H131089   6.930   6.846   8.812  0.5617  0.8700  0.6124
 2298TIP3    H231090   6.919   6.862   8.662  0.3310  0.4301  0.5799
 2299TIP3   OH231091   2.406   5.814   7.284 -0.3684 -0.0692  0.0425
 2299TIP3    H131092   2.448   5.900   7.294  0.8683 -0.3160 -2.2805
 2299TIP3    H231093   2.466   5.753   7.327  0.0402 -0.0383 -0.4711
 2300TIP3   OH231094   7.017   5.460   8.003 -0.4009 -0.2756  0.3377
 2300TIP3    H131095   7.036   5.403   7.929 -0.7131 -1.0228  0.8177
 2300TIP3    H231096   7.031   5.548   7.970 -0.6337 -0.5930 -0.6380
 2301TIP3   OH231097   2.952   0.379   7.981 -0.4499  0.2402  0.3699
 2301TIP3    H131098   3.040   0.365   8.016 -0.2803  0.2873 -0.0327
 2301TIP3    H231099   2.966   0.417   7.894 -0.8815  1.5900  0.8672
 2302TIP3   OH231100   1.642   5.906   8.699  0.0199 -0.3185  0.1147
 2302TIP3    H131101   1.661   5.988   8.653 -1.3725 -0.2080 -0.3239
 2302TIP3    H231102   1.559   5.877   8.662 -0.2983 -1.1050  1.3762
 2303TIP3   OH231103   2.249   6.278   8.147  0.3097  0.5208  0.2264
 2303TIP3    H131104   2.234   6.209   8.083 -3.0015  0.0848  1.2990
 2303TIP3    H231105   2.295   6.234   8.219  0.1043 -0.0497  0.0155
 2304TIP3   OH231106   4.625   2.711   8.423  0.3253 -0.2400 -0.3344
 2304TIP3    H131107   4.653   2.649   8.490  0.9268 -0.2284 -0.5677
 2304TIP3    H231108   4.662   2.795   8.450  1.0846 -0.3515 -0.9862
 2305TIP3   OH231109   4.609   0.628   9.194  0.2507 -0.6488 -0.5419
 2305TIP3    H131110   4.563   0.705   9.229  0.6735 -0.6409  0.0096
 2305TIP3    H231111   4.701   0.645   9.214  0.1842 -2.2154  1.4410
 2306TIP3   OH231112   3.310   3.777   8.932  0.2163 -0.0901 -0.1350
 2306TIP3    H131113   3.335   3.868   8.946  0.6483 -0.2467  0.1291
 2306TIP3    H231114   3.389   3.727   8.952  0.2804 -0.4599 -1.2193
 2307TIP3   OH231115   3.031   2.542   8.910  0.1124  0.0542 -0.0002
 2307TIP3    H131116   3.117   2.509   8.937 -0.2622 -1.2345 -0.2990
 2307TIP3    H231117   3.028   2.631   8.944  1.9653  0.4934 -0.8702
 2308TIP3   OH231118   0.103   6.978   7.185  0.2085 -0.4699  0.1210
 2308TIP3    H131119   0.137   7.032   7.114  0.9847  0.5374  1.2322
 2308TIP3    H231120   0.052   6.910   7.141  1.4248 -0.4157 -1.4473
 2309TIP3   OH231121   4.299   3.609   9.073  0.4809 -0.1444  0.0516
 2309TIP3    H131122   4.380   3.659   9.068 -0.0330  0.6972 -0.2173
 2309TIP3    H231123   4.289   3.569   8.987  1.2567 -1.3201  0.4920
 2310TIP3   OH231124   3.041   4.652   6.799 -0.2824  0.6404 -0.6272
 2310TIP3    H131125   3.072   4.740   6.779 -1.0142  0.4273 -3.0166
 2310TIP3    H231126   3.107   4.616   6.858  0.2176  2.6257  0.1212
 2311TIP3   OH231127   4.924   6.191   8.752  0.2384 -0.9154  0.0961
 2311TIP3    H131128   4.886   6.272   8.719  0.5131 -0.3961  1.0271
 2311TIP3    H231129   4.996   6.219   8.808  0.7263 -1.8251 -0.0603
 2312TIP3   OH231130   1.759   1.564   7.509 -0.1401 -0.0802  0.0782
 2312TIP3    H131131   1.704   1.519   7.444  0.2621  0.8902 -0.9668
 2312TIP3    H231132   1.753   1.657   7.485 -0.2626  0.3554  1.6601
 2313TIP3   OH231133   1.909   5.817   8.249 -0.1780  0.0491 -0.2409
 2313TIP3    H131134   1.895   5.881   8.179  0.3975 -1.4010 -1.7351
 2313TIP3    H231135   1.834   5.830   8.308 -1.3144  0.5345 -1.7376
 2314TIP3   OH231136   0.930   4.919   9.208 -0.6675  0.6810  0.3280
 2314TIP3    H131137   0.907   4.993   9.151  0.3242  1.5544  1.0261
 2314TIP3    H231138   1.022   4.900   9.187 -1.3096 -1.3869 -0.9363
 2315TIP3   OH231139   5.898   2.149   7.831  0.3161 -0.0996 -0.1420
 2315TIP3    H131140   5.818   2.177   7.787 -0.5653  1.9632  2.4684
 2315TIP3    H231141   5.963   2.214   7.807 -0.3653  1.4864  1.9144
 2316TIP3   OH231142   3.058   4.695   7.393 -0.3503  0.0352  0.6634
 2316TIP3    H131143   3.124   4.731   7.334 -0.3036  0.7645  1.1491
 2316TIP3    H231144   3.028   4.614   7.350 -1.0455  1.0621 -0.8523
 2317TIP3   OH231145   1.504   7.270   8.518 -0.1221 -0.1503  0.5506
 2317TIP3    H131146   1.592   7.261   8.483 -0.0477 -1.2506  0.9958
 2317TIP3    H231147   1.481   7.362   8.502  0.2718 -0.3615 -1.4717
 2318TIP3   OH231148   4.615   2.469   8.900 -0.3047 -0.6358  0.3821
 2318TIP3    H131149   4.611   2.528   8.975 -1.1128 -1.5473  1.0725
 2318TIP3    H231150   4.630   2.382   8.938  0.9474 -0.8951 -0.6249
 2319TIP3   OH231151   0.068   6.011   6.636  0.0836  0.1570 -0.2506
 2319TIP3    H131152   0.073   6.054   6.551 -0.8855  1.2658  0.2351
 2319TIP3    H231153   0.093   5.920   6.618 -1.4477  0.0245 -1.9626
 2320TIP3   OH231154   5.621   0.682   9.081 -0.0818 -0.4256  0.5546
 2320TIP3    H131155   5.683   0.632   9.027  0.9162 -0.9096  2.0953
 2320TIP3    H231156   5.673   0.751   9.120 -1.0360  0.6059  0.0677
 2321TIP3   OH231157   4.493   2.874   7.188  0.2252 -0.4242 -0.8474
 2321TIP3    H131158   4.573   2.821   7.189  0.7724  0.1821 -3.4311
 2321TIP3    H231159   4.423   2.811   7.168  0.3028 -0.6924 -0.2956
 2322TIP3   OH231160   5.934   6.866   7.681 -0.1859  0.0825  0.2408
 2322TIP3    H131161   5.935   6.894   7.590 -1.8168  0.9350  0.4489
 2322TIP3    H231162   5.993   6.927   7.726  0.4909 -0.2384 -0.2077
 2323TIP3   OH231163   5.182   6.310   8.532  0.3253 -0.2192 -0.1477
 2323TIP3    H131164   5.260   6.362   8.553 -0.2860  1.0176 -0.8533
 2323TIP3    H231165   5.109   6.370   8.544 -0.2981 -0.3914 -2.5282
 2324TIP3   OH231166   3.556   3.089   8.720  0.3345 -0.7454 -0.0753
 2324TIP3    H131167   3.533   3.018   8.660  2.1280 -0.6620 -0.9111
 2324TIP3    H231168   3.545   3.169   8.668 -2.0305 -0.3035  0.9649
 2325TIP3   OH231169   2.621   3.250   7.191 -0.1015 -0.3354 -0.9011
 2325TIP3    H131170   2.630   3.342   7.218 -0.2118 -0.6151  0.1508
 2325TIP3    H231171   2.706   3.228   7.153  0.2993 -0.1037 -0.1573
 2326TIP3   OH231172   1.617   5.245   9.040 -0.1861 -0.2710 -0.2523
 2326TIP3    H131173   1.665   5.323   9.014 -0.0770 -0.7139 -1.4307
 2326TIP3    H231174   1.586   5.264   9.129  0.4830  0.7969 -0.2332
 2327TIP3   OH231175   6.329   6.509   8.326  0.2372  0.4129 -0.4205
 2327TIP3    H131176   6.359   6.469   8.244 -0.2620  0.3323 -0.5670
 2327TIP3    H231177   6.278   6.585   8.299  1.2588  1.2169 -0.1363
 2328TIP3   OH231178   6.462   3.152   8.409 -0.1047  0.0128  0.0252
 2328TIP3    H131179   6.429   3.108   8.331  1.2292 -0.0427 -0.5351
 2328TIP3    H231180   6.414   3.112   8.481 -0.3989 -0.8969 -0.6525
 2329TIP3   OH231181   0.523   6.266   7.620 -0.0322  0.7619  0.0680
 2329TIP3    H131182   0.453   6.262   7.685 -0.7713 -0.7877 -0.7744
 2329TIP3    H231183   0.600   6.295   7.669 -0.8763  0.8866  1.3521
 2330TIP3   OH231184   0.527   1.897   8.882  0.2397  0.3732 -0.2100
 2330TIP3    H131185   0.454   1.958   8.895 -0.9985 -1.3114  1.2169
 2330TIP3    H231186   0.553   1.910   8.791 -1.6831  1.2096 -0.6901
 2331TIP3   OH231187   2.029   0.493   6.670 -0.3919  0.2292 -0.4128
 2331TIP3    H131188   1.941   0.458   6.659 -0.3505  0.1254 -0.4131
 2331TIP3    H231189   2.023   0.583   6.637 -0.5541  0.3000 -0.1931
 2332TIP3   OH231190   3.629   7.320   9.290 -0.5508 -0.5502 -0.2241
 2332TIP3    H131191   3.681   7.307   9.211 -0.0867  0.6944 -0.1432
 2332TIP3    H231192   3.683   7.286   9.361 -0.0199  0.3408 -0.1917
 2333TIP3   OH231193   4.649   6.280   9.330  0.2160  0.2751  0.4834
 2333TIP3    H131194   4.671   6.374   9.331  1.5830  0.0011  2.1908
 2333TIP3    H231195   4.563   6.276   9.287  0.7837  2.1249 -0.9737
 2334TIP3   OH231196   0.136   3.206   9.236  0.0344 -0.3712 -0.8542
 2334TIP3    H131197   0.178   3.249   9.311  1.3955 -1.3210 -1.0268
 2334TIP3    H231198   0.081   3.274   9.197 -0.6043  0.1692  0.9129
 2335TIP3   OH231199   0.588   2.781   8.933  0.0486 -0.6113 -0.1095
 2335TIP3    H131200   0.508   2.748   8.893 -0.9846 -2.1973  2.9447
 2335TIP3    H231201   0.635   2.702   8.961  2.1780  0.3295 -0.7647
 2336TIP3   OH231202   2.255   0.564   9.009  0.3059 -0.3355 -0.3779
 2336TIP3    H131203   2.325   0.536   8.949  0.8759 -0.3813  0.2870
 2336TIP3    H231204   2.267   0.510   9.086 -0.9928 -0.9151 -0.5591
 2337TIP3   OH231205   3.324   7.198   8.819  0.0945  0.2482 -0.3441
 2337TIP3    H131206   3.258   7.133   8.847  0.3533  0.6925  1.4103
 2337TIP3    H231207   3.408   7.154   8.834  0.2444 -0.0207 -1.8302
 2338TIP3   OH231208   4.139   3.848   7.070  0.1726  0.1156 -0.3153
 2338TIP3    H131209   4.091   3.929   7.088 -0.9600 -0.7332  0.6322
 2338TIP3    H231210   4.072   3.780   7.069  1.2818 -1.0467  0.5756
 2339TIP3   OH231211   5.169   4.563   8.380  0.4835 -0.2911  0.2738
 2339TIP3    H131212   5.176   4.590   8.288  0.7594 -0.5089  0.2280
 2339TIP3    H231213   5.135   4.473   8.375  0.5582 -0.3245  0.3836
 2340TIP3   OH231214   2.047   2.421   7.396 -0.0782  0.7018 -0.2593
 2340TIP3    H131215   2.059   2.328   7.378  0.7830  1.0221 -1.4126
 2340TIP3    H231216   1.952   2.431   7.401 -0.2387 -0.9281  3.9504
 2341TIP3   OH231217   3.963   6.139   8.021  0.0638  0.0825 -0.5151
 2341TIP3    H131218   4.053   6.126   8.051 -0.0300 -1.9969 -0.9473
 2341TIP3    H231219   3.955   6.080   7.945 -2.1720 -1.2161  0.6250
 2342TIP3   OH231220   0.876   5.981   7.453 -0.7084  0.5608  0.4150
 2342TIP3    H131221   0.833   5.915   7.508 -0.9636 -1.8182 -2.3945
 2342TIP3    H231222   0.803   6.033   7.418 -0.9020 -0.1480 -0.2850
 2343TIP3   OH231223   4.326   4.332   8.630  0.0616  0.4512 -0.3107
 2343TIP3    H131224   4.321   4.264   8.698  0.0420  0.8115  0.0470
 2343TIP3    H231225   4.285   4.292   8.554 -0.0600  0.1001 -0.0655
 2344TIP3   OH231226   1.484   6.162   7.303  0.2423  0.1729  0.6940
 2344TIP3    H131227   1.548   6.117   7.359  0.9397  3.5756  2.9080
 2344TIP3    H231228   1.516   6.145   7.214  1.5294 -2.0066  1.4783
 2345TIP3   OH231229   4.184   3.963   8.557  0.0519 -0.5765  0.2336
 2345TIP3    H131230   4.104   3.936   8.512 -0.6037 -1.0807  1.6268
 2345TIP3    H231231   4.249   3.898   8.533 -0.7916 -1.9333  1.4306
 2346TIP3   OH231232   0.930   6.695   7.092  0.1973 -0.3095  0.2437
 2346TIP3    H131233   0.864   6.626   7.082 -1.8539  1.5589  0.0882
 2346TIP3    H231234   0.951   6.721   7.002  0.1436 -0.0247  0.3117
 2347TIP3   OH231235   2.313   3.618   8.209  0.5802  0.7791  0.1554
 2347TIP3    H131236   2.358   3.684   8.262  2.0753  0.7939 -1.0382
 2347TIP3    H231237   2.321   3.538   8.260  3.8948  0.3059 -0.8355
 2348TIP3   OH231238   1.939   1.324   8.624  0.0493  0.7010  0.5002
 2348TIP3    H131239   1.894   1.406   8.607  0.3201  0.9419  0.9369
 2348TIP3    H231240   2.020   1.349   8.670 -0.7076  0.0812  2.2757
 2349TIP3   OH231241   4.013   3.624   7.138 -0.6287 -0.0770  0.4722
 2349TIP3    H131242   4.074   3.643   7.210 -1.3104  2.8891  0.4126
 2349TIP3    H231243   3.930   3.605   7.182 -0.5857 -0.1903  0.5040
 2350TIP3   OH231244   2.824   4.953   6.822 -0.0355 -0.2497  0.0545
 2350TIP3    H131245   2.848   5.040   6.854  0.5903  0.2428 -1.6807
 2350TIP3    H231246   2.903   4.921   6.780 -0.7513 -0.9912 -0.7427
 2351TIP3   OH231247   1.335   2.020   9.242  0.7911 -0.0895  0.4491
 2351TIP3    H131248   1.256   1.991   9.197  0.6778  0.1943  0.4668
 2351TIP3    H231249   1.394   1.944   9.238  0.3300 -0.4766  0.8799
 2352TIP3   OH231250   6.813   6.748   8.528  0.1509 -0.7810  0.3949
 2352TIP3    H131251   6.718   6.756   8.535  0.2230  0.6607 -0.0280
 2352TIP3    H231252   6.827   6.662   8.488 -1.0193 -0.6205 -0.4018
 2353TIP3   OH231253   2.593   2.996   9.047 -0.2359  0.7862 -0.0905
 2353TIP3    H131254   2.563   2.905   9.045  0.3632  0.6018 -0.8487
 2353TIP3    H231255   2.547   3.037   8.974  1.7356  0.3712 -1.6177
 2354TIP3   OH231256   4.191   2.478   8.270  0.3285  0.7494  0.4504
 2354TIP3    H131257   4.263   2.535   8.297  0.3764  2.0285 -2.0447
 2354TIP3    H231258   4.112   2.524   8.298  0.3963  0.1033  1.8070
 2355TIP3   OH231259   4.390   6.569   8.750 -0.1500 -0.1045 -0.1729
 2355TIP3    H131260   4.358   6.641   8.804 -1.2789 -0.8569  0.1930
 2355TIP3    H231261   4.339   6.575   8.669  0.8539  0.4372 -0.7800
 2356TIP3   OH231262   4.523   6.637   7.893 -0.1511  0.3487 -0.7557
 2356TIP3    H131263   4.590   6.705   7.885  2.7677 -2.2935 -0.5489
 2356TIP3    H231264   4.535   6.601   7.981 -2.4829  0.2924 -0.3826
 2357TIP3   OH231265   5.058   1.900   7.528 -0.4730 -0.4132  0.2056
 2357TIP3    H131266   5.128   1.889   7.592 -0.9976 -0.7309  0.7407
 2357TIP3    H231267   5.043   1.811   7.494 -0.6757 -0.3638  0.1625
 2358TIP3   OH231268   0.433   3.345   7.644 -0.0283  0.5000 -0.0928
 2358TIP3    H131269   0.431   3.264   7.593  0.4114 -0.3341  1.1910
 2358TIP3    H231270   0.490   3.326   7.718  0.2127  2.0410  0.1612
 2359TIP3   OH231271   6.324   5.952   8.237  0.1293 -0.6897 -0.1126
 2359TIP3    H131272   6.304   5.885   8.171  0.3428 -1.1570  0.2994
 2359TIP3    H231273   6.315   6.035   8.189 -0.9647 -0.9621 -0.4202
 2360TIP3   OH231274   5.071   0.388   9.024 -0.6494 -0.0238 -0.0363
 2360TIP3    H131275   5.057   0.413   9.115 -1.6143 -0.1731 -0.1408
 2360TIP3    H231276   4.993   0.417   8.978 -0.8176 -1.2344 -0.5559
 2361TIP3   OH231277   2.495   7.157   8.455  0.3605 -0.2654  0.0249
 2361TIP3    H131278   2.587   7.173   8.477  0.1028  0.4245  0.6650
 2361TIP3    H231279   2.469   7.085   8.511  0.2824  0.1149  0.4879
 2362TIP3   OH231280   6.625   6.788   7.367 -0.0674 -0.1410 -0.6943
 2362TIP3    H131281   6.591   6.863   7.319  0.1000  0.0378 -0.5377
 2362TIP3    H231282   6.557   6.722   7.359 -0.0575 -0.1016 -1.1441
 2363TIP3   OH231283   5.858   0.909   8.072 -0.0309  0.2630 -0.3970
 2363TIP3    H131284   5.856   0.928   8.166 -0.8839 -0.9833 -0.1374
 2363TIP3    H231285   5.771   0.933   8.041 -0.4980 -1.3237 -0.4169
 2364TIP3   OH231286   0.086   3.593   9.325 -0.0047 -0.2256 -0.5147
 2364TIP3    H131287   0.177   3.572   9.304  0.1193 -0.4701  0.2531
 2364TIP3    H231288   0.069   3.675   9.277  1.2032  0.8263  0.7947
 2365TIP3   OH231289   5.391   3.906   7.984  0.5769  0.0963  0.1126
 2365TIP3    H131290   5.394   3.907   7.888  0.6888 -1.0255  0.0930
 2365TIP3    H231291   5.339   3.984   8.007 -1.2496 -0.7431 -0.9335
 2366TIP3   OH231292   5.774   0.874   9.255  0.4995  0.3181 -0.1549
 2366TIP3    H131293   5.732   0.958   9.237 -0.5287 -0.0361  0.5071
 2366TIP3    H231294   5.861   0.897   9.289  0.1327  1.1220  0.2694
 2367TIP3   OH231295   7.290   3.504   7.282  0.2927  0.0804  0.8141
 2367TIP3    H131296   7.310   3.546   7.198 -1.1870 -1.5861 -0.4427
 2367TIP3    H231297   7.204   3.538   7.305 -1.9768 -3.5262 -1.3109
 2368TIP3   OH231298   6.576   3.129   7.828 -0.2552  0.0305  0.2457
 2368TIP3    H131299   6.663   3.171   7.827 -0.1128 -0.2773 -0.7846
 2368TIP3    H231300   6.520   3.192   7.874  0.4840  0.2840  0.8248
 2369TIP3   OH231301   2.091   7.096   9.052 -0.0403  0.3282 -0.3636
 2369TIP3    H131302   2.169   7.119   9.001  0.8813 -0.8215  0.4814
 2369TIP3    H231303   2.047   7.030   8.999  0.0269  0.3263 -0.4176
 2370TIP3   OH231304   4.389   4.559   9.281 -0.4040  0.8786  0.5089
 2370TIP3    H131305   4.452   4.487   9.290 -0.9319  0.1632 -1.0448
 2370TIP3    H231306   4.321   4.539   9.345  0.1070  0.7251  1.0101
 2371TIP3   OH231307   6.092   2.930   8.127  0.5365 -0.3285 -0.0325
 2371TIP3    H131308   6.140   2.848   8.128 -1.3882 -1.5059  0.7645
 2371TIP3    H231309   6.049   2.932   8.042 -1.6093 -1.5434  0.9622
 2372TIP3   OH231310   7.673   6.043   7.170 -0.1279  0.0963 -0.1532
 2372TIP3    H131311   7.585   6.015   7.196 -0.9320  1.9121 -0.7227
 2372TIP3    H231312   7.730   6.011   7.240 -1.2719 -0.8793  0.3758
 2373TIP3   OH231313   0.984   5.468   6.965 -0.8517 -0.2823 -0.1023
 2373TIP3    H131314   1.036   5.494   6.889 -0.6623  1.6165  0.6218
 2373TIP3    H231315   1.014   5.525   7.035 -1.9446 -1.0978  1.0718
 2374TIP3   OH231316   5.370   0.014   9.419  0.2867  0.1295 -0.0274
 2374TIP3    H131317   5.414   0.041   9.499 -0.2691 -0.4444  0.4802
 2374TIP3    H231318   5.294  -0.035   9.449 -0.1226  0.2135 -0.9037
 2375TIP3   OH231319   2.420   0.171   7.682  0.2147  0.2245  0.6180
 2375TIP3    H131320   2.481   0.236   7.648 -1.1449  1.6690  0.8060
 2375TIP3    H231321   2.378   0.135   7.603 -0.0247  0.5974  0.5733
 2376TIP3   OH231322   7.077   0.087   8.007 -0.3116 -0.6567  0.1631
 2376TIP3    H131323   7.159   0.055   7.970 -0.0953 -1.1529  1.0248
 2376TIP3    H231324   7.091   0.181   8.019 -0.4694 -0.4451 -1.1715
 2377TIP3   OH231325   4.338   0.434   9.342  0.0029 -0.0276 -0.2945
 2377TIP3    H131326   4.355   0.351   9.298  2.2131  0.4497 -0.4476
 2377TIP3    H231327   4.423   0.461   9.376 -0.8325  1.7538  0.5074
 2378TIP3   OH231328   5.838   4.747   7.943  0.3694 -0.1905  0.7383
 2378TIP3    H131329   5.840   4.651   7.936 -3.4135 -0.3133 -1.4698
 2378TIP3    H231330   5.835   4.764   8.037  1.0041 -2.2483  1.1760
 2379TIP3   OH231331   3.897   0.350   8.211  0.1758 -0.3171  1.0782
 2379TIP3    H131332   3.908   0.382   8.301 -0.6575 -0.7248  1.3442
 2379TIP3    H231333   3.825   0.403   8.176 -1.6450 -2.2271  1.7351
 2380TIP3   OH231334   4.286   1.527   7.207  0.4857 -0.5472  0.2969
 2380TIP3    H131335   4.313   1.604   7.157 -0.6875  0.1416  0.6898
 2380TIP3    H231336   4.191   1.526   7.201  0.4667 -1.8285  0.5143
 2381TIP3   OH231337   0.424   0.998   8.710 -0.9940 -0.6702  0.7122
 2381TIP3    H131338   0.372   1.000   8.630 -1.8388 -1.7847  1.1997
 2381TIP3    H231339   0.390   1.069   8.764  0.9992  1.4817 -0.7119
 2382TIP3   OH231340   7.450   0.182   7.209 -0.2351  0.4578  0.5740
 2382TIP3    H131341   7.515   0.194   7.278  1.2369  0.7448 -0.7855
 2382TIP3    H231342   7.414   0.269   7.195  0.5889  0.7139 -0.0422
 2383TIP3   OH231343   3.416   6.221   8.509 -0.0825 -0.7969 -0.6933
 2383TIP3    H131344   3.438   6.227   8.416  0.9387 -0.5970 -0.4588
 2383TIP3    H231345   3.328   6.258   8.516 -0.6891 -1.9947 -1.7556
 2384TIP3   OH231346   4.682   6.478   8.761  0.2241 -0.3983  0.5073
 2384TIP3    H131347   4.601   6.510   8.801  0.7170  1.2375  0.2709
 2384TIP3    H231348   4.728   6.433   8.832 -0.9470 -1.4686  0.6026
 2385TIP3   OH231349   2.999   0.132   7.800  0.2093  0.2041  0.0175
 2385TIP3    H131350   3.056   0.175   7.864  0.6172 -0.2241 -0.0592
 2385TIP3    H231351   2.941   0.202   7.770  0.9972  0.7519 -0.2608
 2386TIP3   OH231352   2.052   1.568   8.943  0.3037  0.0963 -0.2784
 2386TIP3    H131353   2.015   1.500   8.999  1.9580  0.6159  1.5513
 2386TIP3    H231354   2.101   1.518   8.876  0.1293 -0.5229  0.0460
 2387TIP3   OH231355   0.146   3.983   8.446  0.7004 -0.4038 -0.4352
 2387TIP3    H131356   0.096   4.062   8.423 -1.1722 -1.9886 -2.2065
 2387TIP3    H231357   0.156   3.988   8.541 -1.2332  0.9321 -0.2364
 2388TIP3   OH231358   7.487   3.893   7.826 -0.2261 -0.6161 -0.1599
 2388TIP3    H131359   7.452   3.820   7.774 -0.1738 -0.4487 -0.4344
 2388TIP3    H231360   7.412   3.951   7.838 -0.0194 -0.1811 -0.8808
 2389TIP3   OH231361   3.421   3.212   8.192  0.8292 -0.0517 -1.0174
 2389TIP3    H131362   3.395   3.121   8.180 -0.1824 -0.2645  1.9760
 2389TIP3    H231363   3.353   3.249   8.249  0.9005  2.7639 -2.5888
 2390TIP3   OH231364   1.687   4.901   7.404  0.4361  0.2672 -0.5295
 2390TIP3    H131365   1.696   4.820   7.454  0.7255  1.1943  0.9936
 2390TIP3    H231366   1.595   4.904   7.380  0.1145  0.1205  0.5924
 2391TIP3   OH231367   2.696   7.263   9.217 -0.3143 -0.2545  0.3829
 2391TIP3    H131368   2.729   7.245   9.305 -0.4783  1.5475  0.8310
 2391TIP3    H231369   2.624   7.200   9.205  0.0473 -0.8659  1.3079
 2392TIP3   OH231370   4.193   0.539   8.848  0.3356  0.4638  0.2571
 2392TIP3    H131371   4.194   0.593   8.926 -0.2166 -0.4130  0.8879
 2392TIP3    H231372   4.108   0.495   8.849  1.1667 -1.2459  0.3616
 2393TIP3   OH231373   0.023   5.217   8.611 -0.2071 -0.7672 -0.1450
 2393TIP3    H131374   0.101   5.254   8.653 -1.5502  0.3691  1.4946
 2393TIP3    H231375  -0.012   5.156   8.675 -1.7209  0.2140  0.0165
 2394TIP3   OH231376   4.250   1.054   8.887 -0.1722 -0.1049 -0.0820
 2394TIP3    H131377   4.182   0.987   8.897 -0.9355  0.6579 -0.1096
 2394TIP3    H231378   4.244   1.081   8.796  0.0220  0.1127 -0.0321
 2395TIP3   OH231379   3.642   0.532   8.150  0.3069 -0.3105 -0.2046
 2395TIP3    H131380   3.567   0.481   8.119 -0.7232  1.4698 -0.7897
 2395TIP3    H231381   3.607   0.587   8.220 -0.0889  3.4182 -3.0053
 2396TIP3   OH231382   5.534   2.148   8.124 -0.3918 -0.6176 -0.1662
 2396TIP3    H131383   5.534   2.112   8.213  1.4701  0.1520  0.1926
 2396TIP3    H231384   5.599   2.218   8.126 -3.7317  2.7987 -0.8742
 2397TIP3   OH231385   0.341   5.034   8.552 -0.3581  0.8337  0.4451
 2397TIP3    H131386   0.377   5.016   8.639  2.5721  2.6047 -0.2525
 2397TIP3    H231387   0.250   5.007   8.558  0.1539 -0.6972  3.5213
 2398TIP3   OH231388   4.644   4.919   8.926 -0.5936  0.0993 -0.0782
 2398TIP3    H131389   4.588   4.894   9.000 -1.4544 -0.8424 -1.0207
 2398TIP3    H231390   4.665   4.836   8.883 -0.9094  0.6977 -1.4464
 2399TIP3   OH231391   5.699   2.571   9.612 -0.1360  0.0342  0.0983
 2399TIP3    H131392   5.649   2.511   9.556  0.1763  0.4544 -0.6384
 2399TIP3    H231393   5.719   2.519   9.690 -2.2525  0.0217  0.7138
 2400TIP3   OH231394   1.336   5.455   9.501 -0.6080  0.7424  0.0666
 2400TIP3    H131395   1.249   5.417   9.506 -0.4920  0.5053  0.3236
 2400TIP3    H231396   1.325   5.544   9.532 -0.8711  0.9093 -0.4848
 2401TIP3   OH231397   4.280   0.035   8.705 -0.5251  0.0841 -0.0224
 2401TIP3    H131398   4.310   0.083   8.782 -1.8629  1.9788 -0.6110
 2401TIP3    H231399   4.350   0.049   8.640 -0.7862  1.0729 -0.1074
 2402TIP3   OH231400   2.261   3.320   7.825  0.3724 -0.1733  0.0653
 2402TIP3    H131401   2.323   3.307   7.897 -0.8686 -1.7553  0.9154
 2402TIP3    H231402   2.221   3.405   7.844  1.5091  0.3783  0.0832
 2403TIP3   OH231403   6.157   3.281   9.469 -0.0437  0.1263  0.1752
 2403TIP3    H131404   6.242   3.323   9.459  0.0033  0.0673  0.3190
 2403TIP3    H231405   6.169   3.193   9.433  0.1024 -0.0568  0.6547
 2404TIP3   OH231406   6.082   1.296   6.883 -0.1198  0.3696 -0.2661
 2404TIP3    H131407   6.002   1.278   6.931 -0.2945 -1.6791 -1.1989
 2404TIP3    H231408   6.149   1.307   6.950 -0.0092 -4.0703  0.6451
 2405TIP3   OH231409   2.639   1.692   7.463  0.1999  0.1536  0.3769
 2405TIP3    H131410   2.688   1.640   7.399 -0.8576 -0.9461  0.4361
 2405TIP3    H231411   2.681   1.778   7.461  3.1237 -1.1099  1.5059
 2406TIP3   OH231412   6.107   7.462   8.918  0.9453 -0.1150  1.0378
 2406TIP3    H131413   6.183   7.490   8.869 -0.0056 -1.4482 -1.3926
 2406TIP3    H231414   6.038   7.524   8.895  1.0537  0.6195  2.5871
 2407TIP3   OH231415   6.087   1.139   8.780 -0.1017 -0.4710  0.4810
 2407TIP3    H131416   6.162   1.088   8.752  0.3237  0.1528  0.4708
 2407TIP3    H231417   6.036   1.079   8.835  1.0061 -0.5455  1.4506
 2408TIP3   OH231418   5.249   0.830   7.431 -0.4896  0.1409 -0.5016
 2408TIP3    H131419   5.161   0.804   7.460 -1.2864  1.6570 -1.4470
 2408TIP3    H231420   5.255   0.923   7.452  0.6492  0.2111 -1.0640
 2409TIP3   OH231421   4.144   2.127   8.719  0.3479 -0.1115  0.1153
 2409TIP3    H131422   4.204   2.067   8.676  0.6197 -0.0526  0.4068
 2409TIP3    H231423   4.149   2.208   8.668  0.6180 -0.0631  0.2190
 2410TIP3   OH231424   0.070   3.219   8.116  0.5500  0.0545  0.2085
 2410TIP3    H131425   0.125   3.296   8.133  0.4989 -0.2869  2.1186
 2410TIP3    H231426   0.129   3.157   8.074  1.1368  0.3943  0.5072
 2411TIP3   OH231427   1.288   5.631   8.154  0.2294  0.1161  0.8228
 2411TIP3    H131428   1.239   5.678   8.221  0.6507 -0.4255  1.5325
 2411TIP3    H231429   1.366   5.600   8.200 -0.1357 -1.4377  0.4280
 2412TIP3   OH231430   4.400   5.573   8.598  0.6246 -0.7167  0.0345
 2412TIP3    H131431   4.306   5.591   8.607  0.1925 -1.5810 -2.0350
 2412TIP3    H231432   4.439   5.660   8.584  0.6936  0.0646  3.9693
 2413TIP3   OH231433   1.266   2.554   6.760 -0.2316  0.3919 -0.3918
 2413TIP3    H131434   1.289   2.473   6.805  0.2223  0.6177 -0.2088
 2413TIP3    H231435   1.171   2.552   6.752 -0.4761  0.9516  1.7285
 2414TIP3   OH231436   3.260   3.170   8.739 -0.2070  0.8957 -0.2166
 2414TIP3    H131437   3.340   3.185   8.689  1.2584  1.7264  2.2066
 2414TIP3    H231438   3.270   3.081   8.772 -0.1556  1.0744  0.2587
 2415TIP3   OH231439   1.684   0.509   7.355  0.0304  0.0155 -0.4346
 2415TIP3    H131440   1.736   0.444   7.401  0.0763  0.5138  0.2282
 2415TIP3    H231441   1.606   0.520   7.409  0.1884  0.7639 -0.3459
 2416TIP3   OH231442   2.132   0.415   8.493  0.2089  0.1919 -0.0880
 2416TIP3    H131443   2.104   0.432   8.403 -0.8662 -0.2267  0.1468
 2416TIP3    H231444   2.191   0.340   8.486 -0.0876 -0.0136 -0.4177
 2417TIP3   OH231445   0.017   4.427   9.355 -0.4065  0.6221  0.1360
 2417TIP3    H131446   0.013   4.467   9.268 -0.5208 -0.5390 -0.4014
 2417TIP3    H231447  -0.040   4.351   9.350 -1.2449  1.1070  1.5559
 2418TIP3   OH231448   3.906   5.555   9.232 -0.0367 -0.3906  0.1250
 2418TIP3    H131449   3.973   5.487   9.224 -0.2886 -0.5248 -1.0068
 2418TIP3    H231450   3.951   5.635   9.205  0.5032  0.0981  2.2467
 2419TIP3   OH231451   1.719   4.017   7.716 -0.4034  0.5295  0.1127
 2419TIP3    H131452   1.685   3.989   7.801  0.7234  0.8569  0.6970
 2419TIP3    H231453   1.664   4.091   7.692 -1.9898 -0.7747 -0.4063
 2420TIP3   OH231454   7.111   1.715   9.269 -0.2921 -0.2909 -0.0949
 2420TIP3    H131455   7.058   1.789   9.297  0.6123  0.5043 -0.4239
 2420TIP3    H231456   7.061   1.674   9.199 -1.3171 -0.6794  0.8409
 2421TIP3   OH231457   7.565   4.963   9.162 -0.2744  0.2938  0.3234
 2421TIP3    H131458   7.647   5.012   9.169  0.8044 -1.3566 -0.1717
 2421TIP3    H231459   7.583   4.896   9.096 -0.6802 -2.6161  2.9434
 2422TIP3   OH231460   2.403   1.817   7.566 -0.1733  0.0486  0.1136
 2422TIP3    H131461   2.490   1.797   7.533 -0.2203 -1.6429  0.8993
 2422TIP3    H231462   2.343   1.781   7.500 -0.2553 -0.7367  0.5967
 2423TIP3   OH231463   1.984   7.677   8.836  0.2104  0.4782  0.2325
 2423TIP3    H131464   2.043   7.749   8.814 -0.1220  0.6880  0.0236
 2423TIP3    H231465   1.948   7.700   8.922 -1.1109  1.3652 -0.5163
 2424TIP3   OH231466   5.163   0.443   7.311 -0.0437  0.9948 -0.9925
 2424TIP3    H131467   5.227   0.430   7.241 -0.3507 -0.6156 -0.9931
 2424TIP3    H231468   5.082   0.467   7.266 -0.4806 -0.9141 -1.2918
 2425TIP3   OH231469   1.629   2.752   9.329 -0.1129 -0.5936 -0.2263
 2425TIP3    H131470   1.722   2.756   9.350 -0.0861  0.3684 -0.4822
 2425TIP3    H231471   1.622   2.679   9.267  0.5422 -0.4125 -0.5312
 2426TIP3   OH231472   1.319   4.403   9.543 -0.3668 -0.2951  0.9451
 2426TIP3    H131473   1.268   4.383   9.464 -0.0970 -0.2277  0.7511
 2426TIP3    H231474   1.375   4.326   9.555  0.7904  0.3844  0.1065
 2427TIP3   OH231475   4.744   1.123   8.206 -0.4168 -0.3107 -0.2874
 2427TIP3    H131476   4.836   1.118   8.180 -0.4351  0.2276 -0.4621
 2427TIP3    H231477   4.741   1.082   8.292 -0.3542 -2.1673 -1.1227
 2428TIP3   OH231478   6.271   0.811   7.807 -0.2390  0.3639 -0.0012
 2428TIP3    H131479   6.230   0.852   7.883  2.7042  0.0279  1.9460
 2428TIP3    H231480   6.257   0.718   7.819 -2.4262  0.4085 -1.6367
 2429TIP3   OH231481   1.255   4.975   8.521  0.2892 -0.2215  0.3238
 2429TIP3    H131482   1.334   4.974   8.468  0.3070 -0.5955  0.3544
 2429TIP3    H231483   1.193   5.029   8.472  0.7697  0.6014  0.6036
 2430TIP3   OH231484   6.138   6.849   9.529  0.0604 -0.2183 -0.2325
 2430TIP3    H131485   6.134   6.820   9.620 -0.4106  2.2707  0.6272
 2430TIP3    H231486   6.114   6.772   9.478 -0.6919 -1.4182  1.8057
 2431TIP3   OH231487   2.561   5.725   6.934 -0.8046 -0.3772 -0.0650
 2431TIP3    H131488   2.630   5.701   6.871  0.2673  0.2462  0.8352
 2431TIP3    H231489   2.556   5.650   6.993 -0.1174  0.0260  0.5144
 2432TIP3   OH231490   4.198   1.615   8.004  0.4114  0.2384  0.6008
 2432TIP3    H131491   4.228   1.532   8.042 -0.6546 -0.0080  0.9594
 2432TIP3    H231492   4.259   1.681   8.038 -0.4211  0.0134  2.7292
 2433TIP3   OH231493   2.751   0.243   7.673 -0.3565  0.3283  0.5649
 2433TIP3    H131494   2.705   0.244   7.589 -1.4261  0.4465  1.1288
 2433TIP3    H231495   2.733   0.156   7.708 -1.1219  0.7625  1.2940
 2434TIP3   OH231496   0.676   5.177   7.207 -0.2731 -0.0672 -0.7637
 2434TIP3    H131497   0.664   5.165   7.302  0.5215 -0.6183 -0.7201
 2434TIP3    H231498   0.732   5.254   7.200 -0.6994  0.2436 -0.8122
 2435TIP3   OH231499   1.038   3.557   8.841  0.0653 -0.0495 -0.1140
 2435TIP3    H131500   1.034   3.461   8.839  1.5272 -0.1500  0.4652
 2435TIP3    H231501   1.054   3.581   8.749  0.6421 -0.4245 -0.1168
 2436TIP3   OH231502   3.066   2.734   7.521  0.4829  0.5204 -0.0454
 2436TIP3    H131503   3.115   2.719   7.602 -0.5221  1.6803  0.8108
 2436TIP3    H231504   3.118   2.690   7.453  2.1323  0.7948  0.9815
 2437TIP3   OH231505   1.255   2.799   7.758 -0.1031 -0.5145 -0.7738
 2437TIP3    H131506   1.170   2.755   7.766  0.5271 -1.4408  1.5725
 2437TIP3    H231507   1.248   2.876   7.813  0.1375  0.2042 -1.7192
 2438TIP3   OH231508   3.980   0.525   9.187  0.2697 -0.2508  0.0864
 2438TIP3    H131509   3.954   0.435   9.205  0.5560 -0.1726  0.9518
 2438TIP3    H231510   4.067   0.533   9.227 -0.0839  0.6231  0.7222
 2439TIP3   OH231511   2.634   5.300   7.320  0.2408 -0.3332  0.4824
 2439TIP3    H131512   2.639   5.340   7.407  1.0639 -1.8839  1.1858
 2439TIP3    H231513   2.575   5.226   7.331 -0.9170  0.3614 -0.7021
 2440TIP3   OH231514   7.531   0.285   8.645  0.0154 -0.5810 -0.0080
 2440TIP3    H131515   7.578   0.340   8.583 -0.4976 -1.6453 -1.3876
 2440TIP3    H231516   7.556   0.196   8.623  0.3521 -0.9625  1.7884
 2441TIP3   OH231517   0.027   6.707   8.568  0.4984  0.4813  0.7635
 2441TIP3    H131518   0.081   6.747   8.637  0.3758  1.4599  0.3092
 2441TIP3    H231519   0.016   6.776   8.503  0.0659 -0.2280  0.0640
 2442TIP3   OH231520   0.252   1.435   8.879  0.0637 -0.0251  0.2556
 2442TIP3    H131521   0.209   1.434   8.965 -1.7108 -0.4087 -0.5946
 2442TIP3    H231522   0.308   1.513   8.881 -2.5683  1.9955  0.5446
 2443TIP3   OH231523   2.415   2.666   9.527 -0.4101 -0.3222 -0.1808
 2443TIP3    H131524   2.429   2.637   9.618  0.1210  3.2165  0.9986
 2443TIP3    H231525   2.504   2.677   9.492 -0.6140 -1.5330 -1.1460
 2444TIP3   OH231526   1.184   5.047   7.277 -0.3239  0.2350 -0.5476
 2444TIP3    H131527   1.137   5.127   7.304  1.4832  1.2486 -0.2531
 2444TIP3    H231528   1.127   5.008   7.211 -1.8946  1.0388  0.2418
 2445TIP3   OH231529   7.529   2.077   9.162  0.0350  0.1968 -0.0072
 2445TIP3    H131530   7.503   2.106   9.249  1.2486 -1.4698  0.9530
 2445TIP3    H231531   7.540   1.983   9.169  0.9775  0.1191 -1.7440
 2446TIP3   OH231532   1.027   7.071   9.404 -0.2581 -0.4827  0.1740
 2446TIP3    H131533   0.961   7.096   9.338 -0.0492  0.7254  0.4050
 2446TIP3    H231534   1.111   7.091   9.363  0.0209 -2.1124 -0.1581
 2447TIP3   OH231535   5.736   5.803   8.129  0.6389  0.1602 -0.2579
 2447TIP3    H131536   5.699   5.806   8.040  1.5165  0.9205 -0.6124
 2447TIP3    H231537   5.758   5.894   8.149  3.9365 -0.3877 -0.8081
 2448TIP3   OH231538   3.206   0.185   9.006 -0.1795 -0.6752 -0.2523
 2448TIP3    H131539   3.194   0.276   8.981  2.2654 -0.2056 -0.0030
 2448TIP3    H231540   3.151   0.174   9.084 -0.4445  0.6157 -0.2414
 2449TIP3   OH231541   6.793   2.043   9.615  0.0805 -0.1128  0.5326
 2449TIP3    H131542   6.725   2.108   9.596  0.5982  0.3103  0.1169
 2449TIP3    H231543   6.875   2.090   9.603  0.4531 -0.5144  1.4017
 2450TIP3   OH231544   5.671   4.601   9.691 -0.3995  0.1454  0.1523
 2450TIP3    H131545   5.651   4.683   9.645  0.6738  0.1688 -0.3028
 2450TIP3    H231546   5.757   4.616   9.730 -0.7831 -0.2963  1.2121
 2451TIP3   OH231547   7.535   2.385   9.116 -0.3310 -0.1876  0.6881
 2451TIP3    H131548   7.622   2.396   9.079  0.4713 -0.2160  2.4567
 2451TIP3    H231549   7.482   2.452   9.074 -0.0495 -1.5102 -2.0004
 2452TIP3   OH231550   2.866   7.484   7.746 -0.5050  0.0327  0.5312
 2452TIP3    H131551   2.955   7.518   7.747  0.0384 -0.9887 -2.4851
 2452TIP3    H231552   2.813   7.556   7.712 -0.5932  0.1981  1.0194
 2453TIP3   OH231553   4.467   0.452   7.185  0.4306  0.0306  0.0870
 2453TIP3    H131554   4.434   0.362   7.176  1.2054 -0.4198  1.3769
 2453TIP3    H231555   4.393   0.507   7.161 -0.3183 -0.9659  0.0456
 2454TIP3   OH231556   6.020   6.642   9.342  0.4656 -0.1749 -0.5451
 2454TIP3    H131557   6.066   6.575   9.292 -0.5050  0.5955 -2.5916
 2454TIP3    H231558   5.961   6.683   9.279  0.0604  1.7206  0.9552
 2455TIP3   OH231559   4.664   4.535   8.040 -0.0921  0.2145 -0.1366
 2455TIP3    H131560   4.680   4.629   8.036 -1.4892  0.4729 -0.1661
 2455TIP3    H231561   4.609   4.517   7.964 -0.9305 -0.3843  0.5962
 2456TIP3   OH231562   7.225   7.314   8.027 -1.1254 -0.2976  0.3951
 2456TIP3    H131563   7.135   7.307   7.996 -0.6227  1.5369 -1.7519
 2456TIP3    H231564   7.262   7.388   7.979  0.8525  0.5601  2.9560
 2457TIP3   OH231565   6.125   2.083   6.827 -0.0481  0.1584  0.0136
 2457TIP3    H131566   6.135   2.059   6.919  0.4091  0.0029 -0.0772
 2457TIP3    H231567   6.157   2.007   6.778 -0.7112  0.0577 -0.2788
 2458TIP3   OH231568   4.784   7.470   7.705  0.5420 -0.0856  0.4449
 2458TIP3    H131569   4.773   7.500   7.615 -0.1313  0.3120  0.6481
 2458TIP3    H231570   4.812   7.379   7.697  3.3349  0.7455 -0.1940
 2459TIP3   OH231571   4.229   2.447   8.928  0.2024  0.5881  0.5196
 2459TIP3    H131572   4.281   2.428   8.849  1.1617 -0.4396  1.3628
 2459TIP3    H231573   4.244   2.540   8.945  2.0530  0.2521  0.9177
 2460TIP3   OH231574   7.461   0.577   9.332  0.0891  0.3151  0.3537
 2460TIP3    H131575   7.460   0.579   9.236  0.4022  1.0606  0.3629
 2460TIP3    H231576   7.544   0.534   9.354  0.9510  1.8974  0.2983
 2461TIP3   OH231577   2.823   1.581   7.299  0.2878  0.3466 -0.2698
 2461TIP3    H131578   2.848   1.664   7.259 -0.4710 -0.0069 -1.5341
 2461TIP3    H231579   2.799   1.525   7.226 -1.5501 -0.1924  0.6763
 2462TIP3   OH231580   0.429   3.705   8.540  0.3234 -0.6892 -0.3209
 2462TIP3    H131581   0.340   3.679   8.565  0.2516 -0.0420  0.1096
 2462TIP3    H231582   0.486   3.644   8.585  0.1655  0.0281  0.8897
 2463TIP3   OH231583   2.869   1.128   9.052  0.1472  0.5971  0.7512
 2463TIP3    H131584   2.922   1.173   8.987 -2.1629  0.9988 -0.9925
 2463TIP3    H231585   2.809   1.196   9.086 -0.1878 -0.1123  1.6256
 2464TIP3   OH231586   1.285   7.101   8.152 -0.4631  0.4058 -0.1081
 2464TIP3    H131587   1.337   7.036   8.104  1.2065  1.5228  0.1084
 2464TIP3    H231588   1.220   7.130   8.088  0.5234  0.5003 -1.0999
 2465TIP3   OH231589   4.685   7.147   8.237  1.0932 -0.0065  0.0594
 2465TIP3    H131590   4.666   7.140   8.143  1.4851 -0.3831  0.0045
 2465TIP3    H231591   4.629   7.081   8.278  2.1977 -1.0740 -0.0974
 2466TIP3   OH231592   3.157   6.758   9.686  0.4474 -0.2526  0.2748
 2466TIP3    H131593   3.231   6.778   9.744  0.1281  2.2301 -0.0379
 2466TIP3    H231594   3.181   6.797   9.602 -1.8481  2.2072  0.6179
 2467TIP3   OH231595   2.273   4.843   7.483 -0.0100  0.5659  0.0528
 2467TIP3    H131596   2.320   4.836   7.566  0.1436 -0.3260 -0.1001
 2467TIP3    H231597   2.199   4.900   7.502  1.6225  2.7921  0.0654
 2468TIP3   OH231598   4.659   6.479   7.290 -0.1944  0.3033  0.1075
 2468TIP3    H131599   4.721   6.437   7.349  0.9533  0.4383 -0.9557
 2468TIP3    H231600   4.708   6.553   7.253 -1.6296  1.6178  0.7145
 2469TIP3   OH231601   6.657   4.014   9.115 -0.3043 -0.3704 -0.3316
 2469TIP3    H131602   6.595   3.944   9.094  0.0193 -0.2935 -1.6191
 2469TIP3    H231603   6.607   4.095   9.102 -0.5847 -0.3330  0.8507
 2470TIP3   OH231604   7.205   5.436   8.882  0.1614  0.2495  0.2210
 2470TIP3    H131605   7.161   5.396   8.957 -0.5735  1.2006  0.3288
 2470TIP3    H231606   7.159   5.519   8.870  1.5548  0.9988 -0.0664
 2471TIP3   OH231607   3.344   1.850   7.806 -0.5435  0.3288  0.1788
 2471TIP3    H131608   3.377   1.932   7.769 -0.9697  0.5139  0.2027
 2471TIP3    H231609   3.321   1.872   7.896  3.4039 -0.8174  1.6970
 2472TIP3   OH231610   0.639   4.592   7.718 -0.3550  0.7628  0.6784
 2472TIP3    H131611   0.683   4.537   7.653 -0.3871  1.8118 -0.2384
 2472TIP3    H231612   0.627   4.533   7.793 -0.1221 -0.4020 -0.1617
 2473TIP3   OH231613   2.794   5.794   8.424  0.0201 -0.0809  0.6439
 2473TIP3    H131614   2.824   5.845   8.499 -1.3505  0.6816  0.6955
 2473TIP3    H231615   2.875   5.770   8.377  0.9969 -1.4290  2.8586
 2474TIP3   OH231616   7.160   6.152   7.327 -0.9381  0.2844 -0.3155
 2474TIP3    H131617   7.129   6.088   7.393 -0.4728  0.1734 -0.2030
 2474TIP3    H231618   7.150   6.106   7.244  0.8305 -0.5351 -0.1226
 2475TIP3   OH231619   2.024   5.796   9.313 -0.1709  0.1368 -0.2046
 2475TIP3    H131620   1.957   5.864   9.327  0.1980  0.6113 -0.6998
 2475TIP3    H231621   1.985   5.737   9.248 -0.4131 -0.0200  0.0781
 2476TIP3   OH231622   3.817   0.367   6.630  0.1819  0.3935 -0.0624
 2476TIP3    H131623   3.791   0.302   6.565 -1.1902  3.4061 -2.7956
 2476TIP3    H231624   3.778   0.337   6.712  1.0640 -3.0115 -0.7337
 2477TIP3   OH231625   3.546   7.004   8.122  0.3836 -0.2066  0.0825
 2477TIP3    H131626   3.523   6.985   8.032  1.3569  0.6668 -0.3798
 2477TIP3    H231627   3.478   6.962   8.175 -0.8124  0.1897 -1.0954
 2478TIP3   OH231628   2.205   6.196   6.934 -0.2375 -0.1657  0.6025
 2478TIP3    H131629   2.259   6.182   6.857  0.4826  0.6259  0.9400
 2478TIP3    H231630   2.119   6.223   6.900  0.3434  1.1011  0.0709
 2479TIP3   OH231631   2.583   6.838   8.922  0.1765 -1.0144  0.2731
 2479TIP3    H131632   2.585   6.787   9.003  1.2560 -0.8549  0.3662
 2479TIP3    H231633   2.637   6.915   8.942  1.8650 -1.7735 -1.1032
 2480TIP3   OH231634   7.630   1.541   9.169 -0.1005 -0.6317  0.1251
 2480TIP3    H131635   7.542   1.566   9.196 -0.6260 -1.7808 -0.4679
 2480TIP3    H231636   7.625   1.533   9.074  0.6076 -0.8110  0.0966
 2481TIP3   OH231637   3.324   1.964   8.606 -0.1659  0.1790 -0.2824
 2481TIP3    H131638   3.282   2.026   8.547 -0.8557 -1.8497 -2.0345
 2481TIP3    H231639   3.274   1.883   8.597  2.4184 -1.5567 -0.3957
 2482TIP3   OH231640   0.055   1.511   7.999  0.1285  0.2352 -0.0905
 2482TIP3    H131641   0.027   1.490   8.088  0.6846  0.1657  0.0724
 2482TIP3    H231642   0.131   1.455   7.985  0.9087  1.2636 -0.0919
 2483TIP3   OH231643   0.216   6.036   8.717 -0.0003 -0.0673  0.4953
 2483TIP3    H131644   0.127   6.027   8.681  0.3890  0.4525 -0.6226
 2483TIP3    H231645   0.226   6.129   8.735  0.3477 -0.1120  0.5462
 2484TIP3   OH231646   3.873   1.283   7.799 -0.3719 -0.2450 -0.0077
 2484TIP3    H131647   3.832   1.282   7.885 -0.2155 -2.3251  0.0948
 2484TIP3    H231648   3.800   1.272   7.737 -0.1896 -2.2932  0.0868
 2485TIP3   OH231649   4.730   2.855   7.452 -0.1078  0.3651 -0.0428
 2485TIP3    H131650   4.703   2.945   7.432 -0.7503  0.1430 -0.1907
 2485TIP3    H231651   4.739   2.813   7.366  0.7484  0.4433  0.0042
 2486TIP3   OH231652   3.764   1.626   7.657 -0.4479  0.4324 -0.2204
 2486TIP3    H131653   3.860   1.620   7.654 -0.3296  1.9147 -0.5338
 2486TIP3    H231654   3.741   1.601   7.746  0.5534  2.9496  0.8719
 2487TIP3   OH231655   1.413   0.112   8.047 -0.3060  0.0595 -0.4191
 2487TIP3    H131656   1.436   0.149   8.132 -0.0748 -2.3711  0.6423
 2487TIP3    H231657   1.347   0.172   8.012 -0.9991  0.7053  1.8357
 2488TIP3   OH231658   0.840   6.947   8.950  0.1773  0.5226 -0.6031
 2488TIP3    H131659   0.807   6.868   8.908  1.0544  0.0524 -0.4151
 2488TIP3    H231660   0.935   6.936   8.953  0.1453  0.3207  1.9475
 2489TIP3   OH231661   2.528   6.551   8.532 -0.3586  0.5071  0.4642
 2489TIP3    H131662   2.550   6.465   8.495  0.9460  1.7702 -1.9291
 2489TIP3    H231663   2.587   6.560   8.607  2.1469  0.7162 -1.4109
 2490TIP3   OH231664   6.200   0.553   8.867 -0.5065  0.2416  0.7181
 2490TIP3    H131665   6.273   0.501   8.832 -0.5149 -1.3121  2.8064
 2490TIP3    H231666   6.127   0.534   8.809  0.5108  1.2615 -0.9954
 2491TIP3   OH231667   5.798   5.832   8.684 -0.5652  0.1893 -0.2771
 2491TIP3    H131668   5.848   5.901   8.726  0.9708 -0.7186 -0.5416
 2491TIP3    H231669   5.718   5.824   8.738  0.3521  0.5164  1.1881
 2492TIP3   OH231670   1.025   6.475   8.914  0.0824  0.8341  0.1856
 2492TIP3    H131671   0.945   6.428   8.936  1.4719 -0.6956  2.2504
 2492TIP3    H231672   1.061   6.426   8.840  0.3691 -0.0241  0.8765
 2493TIP3   OH231673   6.589   3.556   8.357  0.7635  0.3424 -0.2684
 2493TIP3    H131674   6.651   3.576   8.427  1.3576  1.1599 -0.9971
 2493TIP3    H231675   6.562   3.466   8.373  0.3406  0.7219  1.4076
 2494TIP3   OH231676   1.944   6.941   9.530  0.0757 -0.0206 -0.1366
 2494TIP3    H131677   1.930   6.848   9.547 -1.4571  0.2321  0.0926
 2494TIP3    H231678   2.031   6.944   9.489  1.7170 -1.1561  2.9299
 2495TIP3   OH231679   4.080   3.047   8.149 -0.7238  0.2262  0.2580
 2495TIP3    H131680   4.147   2.982   8.166 -0.7080  0.3994  0.9006
 2495TIP3    H231681   4.000   2.996   8.133 -0.0850 -0.0632 -2.4646
 2496TIP3   OH231682   3.697   0.531   8.510 -0.2836  0.2156 -0.6678
 2496TIP3    H131683   3.685   0.439   8.534 -1.4241  0.4091 -0.4790
 2496TIP3    H231684   3.791   0.538   8.491  1.0420  0.2267  4.4045
 2497TIP3   OH231685   1.159   1.638   6.794  0.0601 -0.2261 -0.2304
 2497TIP3    H131686   1.243   1.593   6.803 -0.0315 -0.2438  0.6380
 2497TIP3    H231687   1.182   1.730   6.785  0.1742 -0.2117  0.1749
 2498TIP3   OH231688   6.306   0.087   7.684  0.0080 -0.1287  0.2555
 2498TIP3    H131689   6.380   0.028   7.673  0.3802  0.0129  1.8153
 2498TIP3    H231690   6.229   0.029   7.685  0.0177 -0.2377 -1.7737
 2499TIP3   OH231691   0.730   5.269   8.403 -0.2166 -0.0633 -0.0751
 2499TIP3    H131692   0.812   5.271   8.354 -0.4320 -0.0072 -0.4396
 2499TIP3    H231693   0.662   5.275   8.336 -0.5480 -1.4912  0.0902
 2500TIP3   OH231694   3.703   5.403   7.845 -0.4619  0.1847 -0.5806
 2500TIP3    H131695   3.718   5.358   7.928  0.5969  0.9924 -0.3045
 2500TIP3    H231696   3.608   5.414   7.840 -0.6866 -1.4499 -0.3462
 2501TIP3   OH231697   6.698   4.313   6.803 -0.1163  0.1927 -0.3290
 2501TIP3    H131698   6.770   4.372   6.822  0.3219 -0.6642  0.7520
 2501TIP3    H231699   6.626   4.370   6.776  0.9518  1.0617 -1.4826
 2502TIP3   OH231700   7.149   0.365   7.423 -0.0228  0.1482 -0.3155
 2502TIP3    H131701   7.182   0.363   7.333 -1.3931  1.0743 -0.8753
 2502TIP3    H231702   7.062   0.325   7.417  0.0179 -0.1147  0.6795
 2503TIP3   OH231703   4.873   6.571   7.963  0.2163  0.0959  0.0821
 2503TIP3    H131704   4.840   6.647   8.011  1.1108  0.7992 -0.3713
 2503TIP3    H231705   4.812   6.500   7.984  1.0452  0.1223  2.9319
 2504TIP3   OH231706   2.813   2.368   8.897  0.2361 -0.5857 -0.3261
 2504TIP3    H131707   2.835   2.303   8.964  0.2761 -1.2687 -0.9911
 2504TIP3    H231708   2.886   2.430   8.899 -0.1652 -0.1137  0.8390
 2505TIP3   OH231709   6.980   4.406   9.339 -0.2591  0.2063  0.2101
 2505TIP3    H131710   6.903   4.352   9.354 -0.7308  0.6540 -0.5463
 2505TIP3    H231711   7.053   4.353   9.371 -0.8433 -0.3443  0.6549
 2506TIP3   OH231712   2.626   7.665   7.741  0.1708 -0.3373  0.0993
 2506TIP3    H131713   2.565   7.607   7.695 -0.8696  0.4965  0.4228
 2506TIP3    H231714   2.572   7.717   7.800  1.0903  0.9311 -0.1303
 2507TIP3   OH231715   1.280   0.627   8.425  0.0928  0.3214  0.0260
 2507TIP3    H131716   1.354   0.676   8.461 -0.6036 -0.4342  2.6956
 2507TIP3    H231717   1.321   0.557   8.374  1.1601  0.9775 -0.0597
 2508TIP3   OH231718   7.023   3.319   7.561 -0.3089 -0.6261  0.1100
 2508TIP3    H131719   6.999   3.324   7.468 -0.5193  3.2904  0.1847
 2508TIP3    H231720   6.945   3.285   7.604 -0.7213 -1.1398 -0.9910
 2509TIP3   OH231721   4.195   4.051   9.265 -0.7324 -1.0850  0.2361
 2509TIP3    H131722   4.167   3.972   9.219  0.1328 -1.4369  0.2977
 2509TIP3    H231723   4.265   4.022   9.324  0.5858 -0.0510 -0.7544
 2510TIP3   OH231724   1.316   0.791   8.081  0.3384 -0.3089  0.7354
 2510TIP3    H131725   1.393   0.749   8.118  0.3716 -0.7622  0.1802
 2510TIP3    H231726   1.293   0.860   8.143  2.3073  1.0823  0.0136
 2511TIP3   OH231727   0.932   6.755   9.500 -0.0298  0.1749 -0.5571
 2511TIP3    H131728   1.022   6.757   9.532 -0.4327 -0.9503  0.7267
 2511TIP3    H231729   0.910   6.846   9.483  0.2507  0.8619  2.3243
 2512TIP3   OH231730   0.204   0.618   8.271 -0.0759  0.5386  0.0421
 2512TIP3    H131731   0.272   0.655   8.215 -0.7307  1.0782 -0.4095
 2512TIP3    H231732   0.232   0.640   8.360 -0.2669  1.8357 -0.2013
 2513TIP3   OH231733   7.659   0.158   7.687 -1.0648  0.5977 -0.2299
 2513TIP3    H131734   7.598   0.215   7.735 -1.9980 -0.8161  0.3281
 2513TIP3    H231735   7.741   0.163   7.737 -1.8420 -0.3685  1.2223
 2514TIP3   OH231736   6.341   0.352   9.266 -0.2907  0.2011  0.2221
 2514TIP3    H131737   6.258   0.307   9.283 -0.0297  0.2903  1.9125
 2514TIP3    H231738   6.407   0.292   9.300  0.2507  0.7214  0.0995
 2515TIP3   OH231739   6.315   5.891   9.226 -0.4066  0.4445 -0.5462
 2515TIP3    H131740   6.343   5.932   9.308  1.7070 -0.0671 -0.9560
 2515TIP3    H231741   6.372   5.815   9.216 -1.7745 -0.4966 -1.6622
 2516TIP3   OH231742   3.355   5.878   7.365  0.3423  0.5714 -0.5988
 2516TIP3    H131743   3.349   5.790   7.328 -0.7599  0.6095 -0.5402
 2516TIP3    H231744   3.333   5.936   7.292 -1.0847  0.6827 -0.1143
 2517TIP3   OH231745   7.020   2.175   9.487  0.0602  0.4093  0.2962
 2517TIP3    H131746   7.083   2.243   9.464 -0.4703  1.4307  1.7026
 2517TIP3    H231747   7.030   2.109   9.419  1.2507  1.4598 -0.5978
 2518TIP3   OH231748   1.098   2.213   7.495  0.0434 -0.4600 -0.1335
 2518TIP3    H131749   1.182   2.224   7.450  0.0656  0.5131  0.1190
 2518TIP3    H231750   1.121   2.173   7.579  0.4372  0.9611  0.4799
 2519TIP3   OH231751   6.772   2.300   8.006  0.6656  0.7713  0.2219
 2519TIP3    H131752   6.796   2.383   7.964 -0.0744 -0.5243 -3.0213
 2519TIP3    H231753   6.850   2.245   7.997  0.3652  0.3413  0.2056
 2520TIP3   OH231754   6.561   2.880   8.674  0.2499 -0.8594 -0.0280
 2520TIP3    H131755   6.508   2.851   8.748 -0.9123  1.7845  0.3130
 2520TIP3    H231756   6.510   2.856   8.597 -0.1285 -0.7950  0.1963
 2521TIP3   OH231757   0.903   2.810   8.813 -0.2000  0.4379 -0.0626
 2521TIP3    H131758   0.835   2.755   8.851  0.2576 -0.1330 -0.0482
 2521TIP3    H231759   0.862   2.897   8.804 -1.5146 -0.2985 -1.7125
 2522TIP3   OH231760   2.541   1.339   7.309 -0.2530 -0.3129 -0.5020
 2522TIP3    H131761   2.470   1.310   7.253  0.1272 -1.4809 -0.4202
 2522TIP3    H231762   2.603   1.382   7.250 -1.2652  1.2452 -0.4866
 2523TIP3   OH231763   2.341   1.910   8.246  0.6530 -0.2147 -0.0992
 2523TIP3    H131764   2.282   1.984   8.256  2.1887  1.1117 -0.5102
 2523TIP3    H231765   2.341   1.891   8.152  0.9121 -0.1708 -0.1105
 2524TIP3   OH231766   4.525   3.393   7.652 -0.0855  0.5415 -0.4884
 2524TIP3    H131767   4.557   3.482   7.639  0.4416  0.4549  0.1836
 2524TIP3    H231768   4.508   3.387   7.746  0.4848 -0.2601 -0.4240
 2525TIP3   OH231769   0.715   0.722   9.245  0.5467  0.3541  0.1574
 2525TIP3    H131770   0.805   0.700   9.267  0.5379 -0.0004 -0.1477
 2525TIP3    H231771   0.662   0.653   9.285  0.6270 -1.0517 -2.0117
 2526TIP3   OH231772   5.370   5.666   9.826 -0.0549  0.3226  0.0549
 2526TIP3    H131773   5.375   5.570   9.822 -0.2022  0.3491 -1.0742
 2526TIP3    H231774   5.288   5.687   9.782  0.4494  1.0211 -0.5588
 2527TIP3   OH231775   6.046   5.469   8.901  0.6269 -0.0140  0.5925
 2527TIP3    H131776   6.137   5.500   8.896  1.1548 -1.3879  1.1377
 2527TIP3    H231777   6.009   5.516   8.976  1.3353 -0.5175  1.2714
 2528TIP3   OH231778   5.518   4.308   9.361 -0.1624 -1.0899 -0.4018
 2528TIP3    H131779   5.442   4.309   9.420  0.6203  0.2114  0.6652
 2528TIP3    H231780   5.527   4.217   9.334 -0.6893 -1.6971  1.3469
 2529TIP3   OH231781   7.281   1.638   8.742 -0.0895  0.0112  0.0342
 2529TIP3    H131782   7.333   1.574   8.692 -1.6017 -2.2318  1.1882
 2529TIP3    H231783   7.277   1.714   8.685  0.9725 -1.2486 -1.8551
 2530TIP3   OH231784   3.188   4.244   9.539 -0.0218  0.5081 -0.2781
 2530TIP3    H131785   3.261   4.193   9.503 -0.1803  0.1261 -0.0559
 2530TIP3    H231786   3.122   4.179   9.561  0.3314  0.6614  1.3681
 2531TIP3   OH231787   0.191   3.117   8.699 -0.3746 -0.0811  0.2744
 2531TIP3    H131788   0.205   3.044   8.760 -0.0697  1.1608  1.7601
 2531TIP3    H231789   0.122   3.086   8.641 -0.7928 -1.2803  1.3518
 2532TIP3   OH231790   6.593   6.696   8.908  0.4308  0.9624 -0.5953
 2532TIP3    H131791   6.658   6.765   8.895  1.3426  0.1205 -0.6326
 2532TIP3    H231792   6.638   6.615   8.885 -0.7100  0.3706 -0.8392
 2533TIP3   OH231793   2.461   2.717   9.134  0.2222 -0.1114  0.1544
 2533TIP3    H131794   2.529   2.721   9.201  0.4187  0.3719 -0.0672
 2533TIP3    H231795   2.384   2.685   9.180  0.9986 -2.3047  0.0742
 2534TIP3   OH231796   7.201   4.547   8.596 -0.1575  0.2039 -0.4944
 2534TIP3    H131797   7.206   4.642   8.605  3.0371  0.0380  0.8438
 2534TIP3    H231798   7.121   4.532   8.546 -2.1092  3.3960  1.3282
 2535TIP3   OH231799   5.893   2.651   9.002  0.9331  0.2651 -0.9008
 2535TIP3    H131800   5.870   2.721   8.941 -0.9402  0.8179  0.3847
 2535TIP3    H231801   5.833   2.661   9.075  1.1569 -2.1837 -0.2828
 2536TIP3   OH231802   7.544   0.330   6.881 -0.2973  0.6158 -0.4144
 2536TIP3    H131803   7.449   0.326   6.872 -0.5423  4.5614 -1.7017
 2536TIP3    H231804   7.560   0.412   6.929  2.4819 -0.1981  0.2501
 2537TIP3   OH231805   0.892   6.105   8.701  0.5879 -0.4986 -0.0365
 2537TIP3    H131806   0.819   6.162   8.725  0.4411 -0.3466 -0.8179
 2537TIP3    H231807   0.958   6.121   8.768 -0.4415 -1.3384  1.2527
 2538TIP3   OH231808   0.318   5.684   8.021 -0.0198  0.0859  0.7853
 2538TIP3    H131809   0.252   5.750   7.998  0.2635  1.4862  3.5984
 2538TIP3    H231810   0.269   5.602   8.025 -0.6846  0.3213 -1.2993
 2539TIP3   OH231811   1.540   7.094   7.400 -0.2349  0.0981 -0.0161
 2539TIP3    H131812   1.499   7.141   7.473  2.6824  0.6880  1.3810
 2539TIP3    H231813   1.533   7.155   7.326 -0.9289  0.5843  0.4378
 2540TIP3   OH231814   1.312   0.839   9.314 -0.5354 -0.1723 -0.1437
 2540TIP3    H131815   1.269   0.918   9.347 -1.1209 -0.0053 -1.2772
 2540TIP3    H231816   1.404   0.852   9.336 -0.2670  1.7952 -2.0600
 2541TIP3   OH231817   5.243   1.093   7.535  0.0804  0.1639  0.2626
 2541TIP3    H131818   5.211   1.169   7.485  0.8612 -0.2379 -0.8935
 2541TIP3    H231819   5.164   1.041   7.552 -0.2024  0.3039 -0.5665
 2542TIP3   OH231820   1.448   3.919   8.367 -0.4822 -0.3017  0.1898
 2542TIP3    H131821   1.461   3.936   8.460  0.3822  4.2934 -0.5346
 2542TIP3    H231822   1.353   3.919   8.355 -0.5977  1.4110  0.8378
 2543TIP3   OH231823   7.182   6.267   8.864  0.0123 -0.0645  0.4461
 2543TIP3    H131824   7.238   6.227   8.931 -0.3262 -0.6465  0.3950
 2543TIP3    H231825   7.242   6.291   8.793  0.3220  0.2002  0.7962
 2544TIP3   OH231826   7.539   7.163   7.271 -0.3289  0.1003 -0.0901
 2544TIP3    H131827   7.481   7.131   7.203  1.0109 -1.8354 -0.4039
 2544TIP3    H231828   7.626   7.159   7.232  0.3275  0.1344  1.3092
 2545TIP3   OH231829   7.095   0.829   9.220 -0.0190 -0.7761  0.1656
 2545TIP3    H131830   7.071   0.761   9.156  1.3608 -0.4723 -0.7286
 2545TIP3    H231831   7.104   0.782   9.303 -1.6326 -1.2222  0.1227
 2546TIP3   OH231832   2.662   5.342   9.394 -0.3221  0.2345  0.2591
 2546TIP3    H131833   2.656   5.418   9.336 -0.7509 -0.5848 -0.8006
 2546TIP3    H231834   2.590   5.354   9.456  0.5704  1.4772  1.1021
 2547TIP3   OH231835   4.528   2.399   8.009  0.1114  0.1265  0.0305
 2547TIP3    H131836   4.610   2.396   8.058  1.1286 -1.3552 -1.6410
 2547TIP3    H231837   4.533   2.480   7.959  0.5717  0.0252 -0.0917
 2548TIP3   OH231838   1.308   3.790   7.677  0.1296 -0.9637  0.7984
 2548TIP3    H131839   1.314   3.774   7.771 -0.2559  1.7527  1.3837
 2548TIP3    H231840   1.394   3.826   7.653 -1.1076  2.8119  1.2599
 2549TIP3   OH231841   4.699   1.002   7.528 -0.5423 -0.0727  0.1440
 2549TIP3    H131842   4.648   0.925   7.502  0.2791 -0.3259 -0.7830
 2549TIP3    H231843   4.664   1.074   7.476 -1.3123  0.1885  1.0127
 2550TIP3   OH231844   1.078   2.984   8.201  0.3505 -0.5476 -0.0246
 2550TIP3    H131845   1.074   3.077   8.178 -0.1744 -0.5649 -0.0094
 2550TIP3    H231846   1.165   2.973   8.239  1.1209 -0.4482 -1.6586
 2551TIP3   OH231847   5.636   2.215   9.379  0.0742 -0.4726  0.0335
 2551TIP3    H131848   5.599   2.129   9.400  0.7834 -1.1304 -1.2793
 2551TIP3    H231849   5.570   2.257   9.325  0.2175 -0.6811 -0.3095
 2552TIP3   OH231850   5.506   5.556   8.565  0.3568 -0.0888  0.1731
 2552TIP3    H131851   5.415   5.527   8.571  1.1507 -2.8294  0.2178
 2552TIP3    H231852   5.500   5.651   8.553 -2.4482 -0.0044  1.4560
 2553TIP3   OH231853   4.993   4.338   7.544  0.2033  0.0375  0.2733
 2553TIP3    H131854   4.990   4.342   7.448 -0.3873  0.7788  0.3156
 2553TIP3    H231855   5.075   4.291   7.563  1.0006  1.0195 -0.5744
 2554TIP3   OH231856   5.310   1.783   7.367  0.2429  0.3750 -0.0378
 2554TIP3    H131857   5.286   1.705   7.317  0.2180  0.0484  0.4731
 2554TIP3    H231858   5.330   1.849   7.301  2.9598 -0.8262 -0.5553
 2555TIP3   OH231859   6.009   0.105   7.276 -0.0070 -0.0764 -0.2739
 2555TIP3    H131860   5.951   0.036   7.307 -0.9596  1.7257  2.2853
 2555TIP3    H231861   6.039   0.150   7.355 -0.3694  3.1589 -1.7976
 2556TIP3   OH231862   4.705   5.482   7.899 -0.0217 -0.5046  0.2357
 2556TIP3    H131863   4.709   5.575   7.875 -0.5020 -0.1456  1.4349
 2556TIP3    H231864   4.652   5.481   7.979 -0.2655 -1.8519  0.0810
 2557TIP3   OH231865   3.809   4.468   9.507 -0.2158  0.7556  0.4453
 2557TIP3    H131866   3.859   4.387   9.522 -1.6412 -0.6236 -1.6916
 2557TIP3    H231867   3.727   4.455   9.554  0.1818  1.7063  1.4375
 2558TIP3   OH231868   3.719   0.701   7.448 -0.3125 -0.2793  0.6920
 2558TIP3    H131869   3.639   0.662   7.414 -0.3613  0.7447 -0.4510
 2558TIP3    H231870   3.788   0.638   7.429 -0.1057  0.7960 -2.6633
 2559TIP3   OH231871   0.521   1.279   7.637 -0.5665  0.0527  0.0686
 2559TIP3    H131872   0.540   1.302   7.728  1.2308  1.4742 -0.6248
 2559TIP3    H231873   0.583   1.330   7.585 -1.3016 -1.0018 -1.9590
 2560TIP3   OH231874   0.696   0.499   7.609  0.1437  0.5914 -0.1702
 2560TIP3    H131875   0.639   0.569   7.578  0.3189  1.3765  1.2257
 2560TIP3    H231876   0.741   0.469   7.530 -0.4951  1.5228 -0.9142
 2561TIP3   OH231877   0.546   1.564   8.210 -0.4665  0.4359 -0.6523
 2561TIP3    H131878   0.466   1.514   8.227  0.6031 -0.2526  3.7534
 2561TIP3    H231879   0.617   1.505   8.235  1.3644  1.7203 -2.4573
 2562TIP3   OH231880   7.105   3.053   8.995  0.0588  0.0038  0.0880
 2562TIP3    H131881   7.080   2.995   9.067  1.0182  0.1031  0.5103
 2562TIP3    H231882   7.092   3.000   8.917 -0.3776 -0.3182  0.3707
 2563TIP3   OH231883   3.976   5.314   6.954  0.2822  0.1245  0.0631
 2563TIP3    H131884   3.979   5.218   6.953  0.0609  0.0974  0.9984
 2563TIP3    H231885   3.998   5.340   6.865  3.4272 -0.7072  0.4871
 2564TIP3   OH231886   1.357   2.753   8.092 -0.4115  0.1906 -0.1832
 2564TIP3    H131887   1.425   2.698   8.052 -0.1683  0.5100 -0.2088
 2564TIP3    H231888   1.275   2.709   8.071 -0.2615  0.2013 -0.7825
 2565TIP3   OH231889   0.023   4.762   6.954 -0.1534 -0.0084  0.2701
 2565TIP3    H131890  -0.021   4.798   7.031  0.5017  0.6290  0.3534
 2565TIP3    H231891   0.097   4.821   6.939 -1.5492  1.2735 -2.2268
 2566TIP3   OH231892   1.966   5.076   6.988  0.1444  0.5581 -0.3548
 2566TIP3    H131893   1.913   4.996   6.988  1.0351 -0.0459  0.8874
 2566TIP3    H231894   2.022   5.067   6.911  0.3995 -0.1167 -0.0943
 2567TIP3   OH231895   3.895   6.761   7.155  0.0199 -0.3574 -0.4250
 2567TIP3    H131896   3.841   6.737   7.230 -1.9744 -0.6027 -1.8614
 2567TIP3    H231897   3.832   6.777   7.085  1.7136  1.5483 -1.6114
 2568TIP3   OH231898   0.546   0.574   6.821 -0.0082 -0.3201 -0.3761
 2568TIP3    H131899   0.541   0.482   6.848  1.3372 -0.3034  0.0296
 2568TIP3    H231900   0.522   0.623   6.900 -0.5243 -0.3234 -0.5321
 2569TIP3   OH231901   2.908   5.434   8.736  0.4474 -0.2722 -0.2908
 2569TIP3    H131902   2.819   5.400   8.735  0.2606  0.1988 -0.2818
 2569TIP3    H231903   2.944   5.406   8.820 -0.3939  1.2584  0.6369
 2570TIP3   OH231904   5.133   7.390   8.814 -0.0502  0.0045  0.0056
 2570TIP3    H131905   5.044   7.389   8.851  0.7131 -2.7884  2.1526
 2570TIP3    H231906   5.142   7.306   8.770  1.9949 -0.4872  1.2210
 2571TIP3   OH231907   3.029   3.259   8.590  0.2820  0.1244 -0.1719
 2571TIP3    H131908   3.075   3.325   8.643  1.1349 -0.5920  0.0012
 2571TIP3    H231909   2.960   3.227   8.647  0.6286  0.0066  0.1892
 2572TIP3   OH231910   2.089   2.507   8.340 -0.4266  0.8543 -0.8144
 2572TIP3    H131911   2.021   2.541   8.398 -1.3091 -2.1489  0.0694
 2572TIP3    H231912   2.046   2.500   8.255 -1.1622 -0.5734 -0.3653
 2573TIP3   OH231913   4.457   3.670   8.091  0.5212 -0.2667 -0.1627
 2573TIP3    H131914   4.407   3.720   8.156  0.9200 -0.8856  0.6351
 2573TIP3    H231915   4.544   3.709   8.092  0.0262  1.0308 -1.7969
 2574TIP3   OH231916   6.153   5.484   9.635 -0.5928  0.3724  0.1494
 2574TIP3    H131917   6.070   5.519   9.601 -0.1142  1.3603 -0.0358
 2574TIP3    H231918   6.135   5.392   9.651 -0.6657 -0.3582 -3.4383
 2575TIP3   OH231919   6.353   6.819   9.202 -0.4904  0.9378  0.5759
 2575TIP3    H131920   6.388   6.732   9.185 -1.5970  0.7593 -0.8900
 2575TIP3    H231921   6.431   6.873   9.216  0.4357  0.4781 -2.2293
 2576TIP3   OH231922   4.235   4.025   8.086 -0.3713 -0.6843  0.1032
 2576TIP3    H131923   4.321   4.006   8.049 -0.0971 -3.0741  1.6795
 2576TIP3    H231924   4.174   4.018   8.013  0.7157  0.7298 -0.9716
 2577TIP3   OH231925   6.528   2.989   9.389 -0.0311 -0.3609 -0.2101
 2577TIP3    H131926   6.544   3.081   9.408  2.1974 -0.5916 -0.6746
 2577TIP3    H231927   6.602   2.962   9.334 -1.1841 -2.1642 -1.0083
 2578TIP3   OH231928   7.084   2.705   8.230  0.1489 -0.4785 -0.6022
 2578TIP3    H131929   7.017   2.637   8.215 -0.4315 -0.7307  2.4225
 2578TIP3    H231930   7.125   2.717   8.145 -3.9033 -0.1022 -2.7668
 2579TIP3   OH231931   4.811   0.183   7.606 -0.5411 -0.3083 -0.2540
 2579TIP3    H131932   4.718   0.205   7.596 -0.7144 -0.1400  1.3751
 2579TIP3    H231933   4.857   0.266   7.591 -0.3644 -0.9278 -3.8491
 2580TIP3   OH231934   0.283   7.333   8.186 -0.1767 -0.1739  0.5528
 2580TIP3    H131935   0.346   7.321   8.257  0.3297 -2.8984 -0.2236
 2580TIP3    H231936   0.199   7.345   8.229  0.3412 -0.2360  1.6077
 2581TIP3   OH231937   2.517   5.412   6.846  0.4174  0.4993  0.0422
 2581TIP3    H131938   2.557   5.454   6.922  1.7528 -1.4110  0.4658
 2581TIP3    H231939   2.527   5.475   6.775 -0.0348  1.9468  1.2174
 2582TIP3   OH231940   4.755   5.031   7.275  0.1720  0.0141 -0.2175
 2582TIP3    H131941   4.824   4.968   7.298  1.5079  0.8222 -1.7948
 2582TIP3    H231942   4.762   5.100   7.340  0.7819  0.0365 -0.3074
 2583TIP3   OH231943   4.561   6.193   6.793 -0.0441 -0.0376 -0.1276
 2583TIP3    H131944   4.511   6.113   6.773  0.5927 -0.3235 -0.5987
 2583TIP3    H231945   4.528   6.258   6.730 -0.1247 -0.1094 -0.1600
 2584TIP3   OH231946   3.507   4.851   9.285  0.0888  0.1093 -0.2606
 2584TIP3    H131947   3.565   4.904   9.339 -0.7080 -1.3844  2.2387
 2584TIP3    H231948   3.488   4.774   9.339  0.5229 -2.3755 -3.3428
 2585TIP3   OH231949   5.298   2.196   6.855  0.3350  0.0124 -0.3886
 2585TIP3    H131950   5.356   2.187   6.931 -1.2526 -1.2530  0.7261
 2585TIP3    H231951   5.276   2.106   6.831 -0.1571  0.4392 -1.6150
 2586TIP3   OH231952   3.619   3.998   9.056 -0.7928 -0.1520  0.1202
 2586TIP3    H131953   3.538   3.998   9.004 -0.9810 -0.9335  0.4025
 2586TIP3    H231954   3.645   3.906   9.060  0.9830  0.2354 -1.2749
 2587TIP3   OH231955   4.904   4.682   9.624 -0.6490 -0.3640  0.4598
 2587TIP3    H131956   4.996   4.672   9.647 -0.0847  2.6794 -0.1671
 2587TIP3    H231957   4.900   4.662   9.530 -1.3043 -3.5418  1.0264
 2588TIP3   OH231958   0.203   6.343   7.123  0.2516 -0.1119 -0.4639
 2588TIP3    H131959   0.191   6.347   7.028  1.8821 -0.1053 -0.6833
 2588TIP3    H231960   0.186   6.251   7.145 -0.2920 -0.0790 -0.7274
 2589TIP3   OH231961   4.448   6.383   6.628  0.2148 -0.4157 -0.0175
 2589TIP3    H131962   4.373   6.392   6.569  1.2110  0.1176 -1.2424
 2589TIP3    H231963   4.485   6.471   6.634  0.5703 -0.6104  0.8332
 2590TIP3   OH231964   6.543   3.358   8.988 -0.0500  0.2814 -0.0374
 2590TIP3    H131965   6.601   3.308   9.044 -0.8369 -0.3368  0.2525
 2590TIP3    H231966   6.460   3.360   9.035 -0.0437  1.8688 -0.0481
 2591TIP3   OH231967   2.352   2.480   8.399  0.0234 -0.6476  0.0505
 2591TIP3    H131968   2.257   2.485   8.389 -0.1280 -0.0622  1.5591
 2591TIP3    H231969   2.366   2.418   8.471  0.9743 -3.6534 -2.5196
 2592TIP3   OH231970   0.646   2.957   9.925  0.2114  1.1186 -0.6337
 2592TIP3    H131971   0.692   3.040   9.939 -0.1678  1.3654 -0.8099
 2592TIP3    H231972   0.555   2.983   9.909  0.0914  0.6672 -0.6990
 2593TIP3   OH231973   2.551   0.712   9.170 -0.4531  0.3997  0.1651
 2593TIP3    H131974   2.476   0.773   9.168 -0.7625  0.0154 -0.1282
 2593TIP3    H231975   2.585   0.713   9.081  0.7779  1.6373  0.6092
 2594TIP3   OH231976   2.031   7.661   8.287 -0.7356 -0.9676 -0.7978
 2594TIP3    H131977   2.034   7.717   8.210  2.5328  0.9012  0.5007
 2594TIP3    H231978   2.118   7.621   8.290 -0.7349 -0.8860  1.9693
 2595TIP3   OH231979   2.253   2.068   9.309  0.1666 -0.0464  0.1315
 2595TIP3    H131980   2.172   2.117   9.324  0.9250  0.7799  1.8504
 2595TIP3    H231981   2.247   1.994   9.369  1.7438  1.4155  2.2371
 2596TIP3   OH231982   0.443   5.351   9.287  0.3012  0.3379  0.1925
 2596TIP3    H131983   0.531   5.338   9.253  0.5376  3.0942 -0.4321
 2596TIP3    H231984   0.399   5.405   9.221 -1.6442 -0.3824  0.8276
 2597TIP3   OH231985   4.333   1.724   9.450 -0.2739  0.4486  0.2930
 2597TIP3    H131986   4.288   1.680   9.522 -0.9924  0.2841 -0.2492
 2597TIP3    H231987   4.264   1.769   9.402  0.0030 -0.5397 -1.0739
 2598TIP3   OH231988   0.948   5.546   9.364 -0.1229 -0.2568 -0.1891
 2598TIP3    H131989   0.940   5.641   9.370 -1.5535 -0.3383 -0.4738
 2598TIP3    H231990   0.862   5.512   9.390  0.2231 -1.4475 -0.5169
 2599TIP3   OH231991   5.491   2.715   8.059  0.8059 -0.4777  0.4842
 2599TIP3    H131992   5.564   2.749   8.006  0.9376  2.3011  2.2827
 2599TIP3    H231993   5.415   2.766   8.030 -0.4164 -2.9184 -0.9283
 2600TIP3   OH231994   2.181   0.334   6.949  0.3243  0.1840  0.3578
 2600TIP3    H131995   2.123   0.319   6.875  0.7647 -0.0987  0.0609
 2600TIP3    H231996   2.179   0.251   6.998 -0.4121  0.5660  0.9812
 2601TIP3   OH231997   6.474   0.965   7.891 -0.1896 -0.0442 -0.2082
 2601TIP3    H131998   6.510   0.914   7.963  0.5048  1.8421  0.8687
 2601TIP3    H231999   6.409   0.908   7.851  2.0973 -2.5746 -0.5369
 2602TIP3   OH232000   3.453   0.627   8.940 -0.0591  0.2480 -0.0976
 2602TIP3    H132001   3.369   0.588   8.916 -0.5681  1.3124 -0.0985
 2602TIP3    H232002   3.518   0.564   8.910 -0.7785  0.2206 -1.6933
 2603TIP3   OH232003   5.692   1.847   8.199 -0.5614  0.3465 -0.1596
 2603TIP3    H132004   5.688   1.932   8.241  2.0901  0.2859  0.3442
 2603TIP3    H232005   5.699   1.866   8.106  1.7637  0.7962  0.0656
 2604TIP3   OH232006   3.007   5.306   7.843 -0.3733  0.9784  0.0562
 2604TIP3    H132007   3.068   5.235   7.863 -1.3872  0.4454  1.4454
 2604TIP3    H232008   3.062   5.374   7.804  1.3925  1.0390  2.4026
 2605TIP3   OH232009   4.612   3.525   7.285  0.4077 -0.1774  0.0000
 2605TIP3    H132010   4.520   3.509   7.306  0.5586  0.3243  1.1009
 2605TIP3    H232011   4.611   3.601   7.228  0.1629  0.0267  0.2759
 2606TIP3   OH232012   1.557   2.405   6.952  0.2896 -0.1593 -0.4205
 2606TIP3    H132013   1.579   2.363   7.035 -3.5956  1.5256  1.7359
 2606TIP3    H232014   1.578   2.498   6.965 -2.0048  0.4499 -0.4692
 2607TIP3   OH232015   4.938   6.286   7.155 -0.3069 -0.4757 -0.1731
 2607TIP3    H132016   4.875   6.249   7.094 -0.3161 -1.3064  0.3245
 2607TIP3    H232017   5.004   6.327   7.100 -0.7707 -0.4457 -0.7147
 2608TIP3   OH232018   4.321   7.103   7.325  0.4914 -0.3141 -0.1599
 2608TIP3    H132019   4.261   7.081   7.253  0.3236  2.2047 -0.9065
 2608TIP3    H232020   4.326   7.199   7.322  3.4618 -0.3492  0.7877
 2609TIP3   OH232021   7.204   2.415   9.347  0.0546  0.8822  0.0650
 2609TIP3    H132022   7.273   2.478   9.327  1.3274  0.0282  1.5815
 2609TIP3    H232023   7.209   2.350   9.277  0.7943  0.8388  0.1515
 2610TIP3   OH232024   7.028   3.253   8.732 -0.7873 -0.2348  0.0457
 2610TIP3    H132025   7.066   3.182   8.680  0.1617  0.2759  0.0362
 2610TIP3    H232026   7.027   3.219   8.822 -2.0868 -0.9751 -0.2227
 2611TIP3   OH232027   7.082   1.476   9.451  0.2880  0.4537  0.0809
 2611TIP3    H132028   7.110   1.386   9.431  1.4389  0.6985  0.5375
 2611TIP3    H232029   7.123   1.529   9.383 -1.0894  0.5678 -0.7099
 2612TIP3   OH232030   3.470   6.164   6.720 -0.1320 -0.1811 -0.0518
 2612TIP3    H132031   3.553   6.204   6.693  0.4859 -0.8365  0.7852
 2612TIP3    H232032   3.497   6.092   6.778 -1.3300  1.8879  3.3595
 2613TIP3   OH232033   2.344   5.841   8.519 -0.2580 -0.1735  0.2058
 2613TIP3    H132034   2.330   5.838   8.614 -2.6341 -0.4211 -0.1045
 2613TIP3    H232035   2.260   5.817   8.481  0.6349 -0.0676 -1.9957
 2614TIP3   OH232036   0.541   5.126   9.402 -0.1946  0.6958  0.2572
 2614TIP3    H132037   0.493   5.194   9.356 -1.2949  0.6601  1.3196
 2614TIP3    H232038   0.619   5.169   9.435 -0.9768  1.5176  1.0929
 2615TIP3   OH232039   5.536   4.533   9.212  0.0427  0.1799 -0.4254
 2615TIP3    H132040   5.513   4.448   9.250 -2.4440  1.0011  0.1068
 2615TIP3    H232041   5.626   4.549   9.240 -0.2428 -1.2288  1.4378
 2616TIP3   OH232042   5.740   3.851   8.351 -0.0938 -0.2541 -0.0419
 2616TIP3    H132043   5.784   3.896   8.280 -0.3977  0.9277  0.4893
 2616TIP3    H232044   5.648   3.846   8.324 -0.5352  1.6611  0.9140
 2617TIP3   OH232045   4.344   4.141   8.840 -0.0623  0.3788 -0.4674
 2617TIP3    H132046   4.259   4.099   8.853 -0.6995  1.5878 -0.5783
 2617TIP3    H232047   4.367   4.176   8.926  0.8618 -0.8624 -0.1778
 2618TIP3   OH232048   3.504   5.307   7.599  0.1855  0.2482 -0.5182
 2618TIP3    H132049   3.431   5.286   7.541  0.6583 -0.4442 -0.8796
 2618TIP3    H232050   3.533   5.222   7.633 -0.9719  0.7199  1.8534
 2619TIP3   OH232051   3.273   1.384   8.451  0.4182  0.4754  0.0152
 2619TIP3    H132052   3.276   1.401   8.357 -0.2194 -0.1164 -0.1163
 2619TIP3    H232053   3.365   1.373   8.476  0.6537  1.3693 -0.3886
 2620TIP3   OH232054   2.032   1.356   9.299 -0.6735  0.2066  0.1413
 2620TIP3    H132055   1.960   1.343   9.237 -0.7564  2.2985 -0.2718
 2620TIP3    H232056   2.100   1.296   9.269 -1.0032  0.6049 -1.5216
 2621TIP3   OH232057   5.446   5.918   9.745 -0.2787  0.8118 -0.0180
 2621TIP3    H132058   5.435   5.828   9.775  0.7578  0.7024  0.0781
 2621TIP3    H232059   5.378   5.967   9.790 -1.2951 -0.0331 -0.5913
 2622TIP3   OH232060   5.049   3.520   8.116  0.5290 -0.2953 -0.1179
 2622TIP3    H132061   5.128   3.574   8.115 -0.1906  0.7968 -1.0177
 2622TIP3    H232062   4.977   3.583   8.122 -0.3211 -1.1751 -0.7249
 2623TIP3   OH232063   5.457   3.796   9.022 -0.2506 -0.3995  0.3579
 2623TIP3    H132064   5.390   3.781   8.956 -0.3682 -0.9509  0.6016
 2623TIP3    H232065   5.514   3.863   8.984 -0.3873 -0.6244 -0.2464
 2624TIP3   OH232066   0.012   7.674   6.702 -0.2034  0.0385  0.2355
 2624TIP3    H132067   0.044   7.585   6.687 -0.9365 -0.6231  2.2782
 2624TIP3    H232068  -0.064   7.662   6.760 -1.6087  1.8550 -1.1264
 2625TIP3   OH232069   1.356   4.042   9.406 -0.5983  0.1665 -0.5605
 2625TIP3    H132070   1.325   3.951   9.408  0.5869 -0.2419  0.3764
 2625TIP3    H232071   1.431   4.043   9.465 -0.7441  1.8270 -0.3679
 2626TIP3   OH232072   7.524   7.335   8.019 -0.3810  0.5331 -0.4233
 2626TIP3    H132073   7.522   7.263   7.956  0.1740  0.1428 -0.0020
 2626TIP3    H232074   7.433   7.361   8.029 -0.5815 -0.0912 -0.5997
 2627TIP3   OH232075   1.601   1.467   8.455  0.0206  0.1432 -0.2726
 2627TIP3    H132076   1.611   1.520   8.535  1.1340  1.1224 -1.0322
 2627TIP3    H232077   1.681   1.483   8.405  1.1168 -3.3979  0.0536
 2628TIP3   OH232078   6.422   3.853   8.509 -0.8967 -0.7099  0.3614
 2628TIP3    H132079   6.452   3.792   8.442  0.1446 -0.7171  0.8264
 2628TIP3    H232080   6.344   3.894   8.471  1.0067  1.0755 -1.8666
 2629TIP3   OH232081   4.226   2.878   7.730 -0.0493 -0.2751  0.0004
 2629TIP3    H132082   4.187   2.954   7.774  1.2697 -0.3823  1.4504
 2629TIP3    H232083   4.317   2.904   7.714  0.0941 -1.1118 -0.5992
 2630TIP3   OH232084   1.918   6.639   9.536 -0.0788 -0.5012 -0.4242
 2630TIP3    H132085   1.847   6.662   9.596  1.0161  0.1398  0.6759
 2630TIP3    H232086   1.875   6.592   9.465 -1.8237  1.2462 -0.6063
 2631TIP3   OH232087   4.710   1.712   8.866 -0.4348  0.1636  0.0333
 2631TIP3    H132088   4.655   1.639   8.839 -0.3020  0.5090 -1.2716
 2631TIP3    H232089   4.776   1.719   8.797  0.7582  0.2715  1.1509
 2632TIP3   OH232090   0.832   2.067   7.682  0.3388 -0.1573  0.1865
 2632TIP3    H132091   0.747   2.087   7.645  1.0316  1.5170 -0.5863
 2632TIP3    H232092   0.816   1.991   7.738 -1.2359 -1.1371 -1.5008
 2633TIP3   OH232093   2.648   6.806   6.754  0.1278 -0.4296  0.4390
 2633TIP3    H132094   2.580   6.765   6.808  0.2534 -0.0299  0.9001
 2633TIP3    H232095   2.618   6.792   6.664  1.4495 -3.8826  0.3891
 2634TIP3   OH232096   0.773   6.128   9.317  0.1237 -0.7360 -1.1029
 2634TIP3    H132097   0.769   6.069   9.242  0.9561 -0.2402 -1.5562
 2634TIP3    H232098   0.863   6.120   9.349  0.4023  0.6087 -1.4619
 2635TIP3   OH232099   6.514   0.588   7.545  0.7943  0.0242  0.1622
 2635TIP3    H132100   6.480   0.673   7.515  0.4677  0.0713  0.6575
 2635TIP3    H232101   6.567   0.557   7.472 -1.9433 -1.0108 -1.5530
 2636TIP3   OH232102   0.321   7.426   6.852 -0.4271  0.5254  0.5612
 2636TIP3    H132103   0.237   7.414   6.808 -0.7580 -0.4500  1.3956
 2636TIP3    H232104   0.360   7.503   6.811 -1.1169  0.1879 -0.7828
 2637TIP3   OH232105   1.028   7.618   8.799  0.4669  0.1895 -0.1741
 2637TIP3    H132106   0.976   7.633   8.877 -1.1554 -0.7662 -1.0218
 2637TIP3    H232107   1.020   7.698   8.748 -0.2946  0.0027 -0.3547
 2638TIP3   OH232108   1.087   3.627   8.582  0.7977  0.5468 -0.3475
 2638TIP3    H132109   1.146   3.556   8.560  0.0452 -0.0390 -0.5427
 2638TIP3    H232110   1.038   3.643   8.501 -0.0374  0.3015  0.0959
 2639TIP3   OH232111   4.688   4.006   9.342  0.5276  0.3480  0.7123
 2639TIP3    H132112   4.710   4.072   9.408  1.3360  1.0466 -0.2352
 2639TIP3    H232113   4.770   3.962   9.322  0.2059 -0.1716  0.4936
 2640TIP3   OH232114   6.546   5.436   8.029  0.2534  0.3930  0.2440
 2640TIP3    H132115   6.573   5.370   8.093 -0.2823 -1.6519 -1.5460
 2640TIP3    H232116   6.612   5.505   8.037  1.4472 -0.8297  1.4306
 2641TIP3   OH232117   4.792   1.245   9.316  0.6913  0.2060 -0.2026
 2641TIP3    H132118   4.803   1.312   9.383 -0.8506  1.6116 -1.2716
 2641TIP3    H232119   4.881   1.225   9.287  1.2635  0.7964  1.0774
 2642TIP3   OH232120   5.178   5.647   7.771  0.1291 -0.1913 -0.3959
 2642TIP3    H132121   5.109   5.595   7.731  0.5726 -0.1312 -1.2506
 2642TIP3    H232122   5.133   5.721   7.811 -0.3520 -0.4447 -0.4576
 2643TIP3   OH232123   6.130   3.021   9.042  0.1843 -0.1569  0.1077
 2643TIP3    H132124   6.173   2.989   8.963  0.1580 -1.9553  0.7657
 2643TIP3    H232125   6.202   3.034   9.104  0.0315 -0.8035  0.4335
 2644TIP3   OH232126   2.491   3.007   8.672 -0.1228 -0.3738 -0.1512
 2644TIP3    H132127   2.548   2.975   8.602 -2.2516 -1.0667 -1.6953
 2644TIP3    H232128   2.491   3.102   8.661  1.7512 -0.2235  0.7767
 2645TIP3   OH232129   5.242   3.251   9.244 -0.1669  0.4134 -0.3515
 2645TIP3    H132130   5.158   3.245   9.199 -1.0219  1.2391  1.0494
 2645TIP3    H232131   5.219   3.275   9.334  1.5154 -0.2743  0.3027
 2646TIP3   OH232132   0.606   4.001   9.548  0.4058 -0.2259 -0.3308
 2646TIP3    H132133   0.583   4.085   9.588 -0.1376 -0.0531 -0.9834
 2646TIP3    H232134   0.634   4.025   9.459 -1.1366 -0.8537 -1.0264
 2647TIP3   OH232135   1.199   0.065   7.640 -0.2118  0.1193 -0.0558
 2647TIP3    H132136   1.186   0.071   7.545 -1.3539  2.9778  0.1643
 2647TIP3    H232137   1.250  -0.015   7.653  0.3669 -0.1128 -3.1063
 2648TIP3   OH232138   2.353   5.757   7.856 -0.6005  0.7652 -0.3644
 2648TIP3    H132139   2.299   5.774   7.779 -0.7532 -0.5173 -0.5775
 2648TIP3    H232140   2.364   5.661   7.856  1.8650  0.9842 -0.4883
 2649TIP3   OH232141   7.473   7.590   9.255 -0.0288 -0.0300  0.2538
 2649TIP3    H132142   7.387   7.631   9.247  0.6002  1.4829  0.9026
 2649TIP3    H232143   7.520   7.616   9.175  0.1775  0.0182  0.3891
 2650TIP3   OH232144   3.944   5.126   8.499 -0.4689 -0.3906 -0.0882
 2650TIP3    H132145   3.994   5.157   8.574  0.4739  2.8541 -1.8727
 2650TIP3    H232146   3.992   5.049   8.468  1.4037  0.5481  0.3607
 2651TIP3   OH232147   0.474   5.840   8.624 -0.3309  0.4788  0.4160
 2651TIP3    H132148   0.396   5.828   8.570  0.3490  0.6565 -0.6333
 2651TIP3    H232149   0.440   5.865   8.710 -1.4504 -0.1982  0.1887
 2652TIP3   OH232150   7.602   0.915   7.260  0.0052  0.6829  0.2151
 2652TIP3    H132151   7.599   0.893   7.167 -1.9044  1.7470 -0.0254
 2652TIP3    H232152   7.578   0.834   7.304 -2.6192  0.9861 -0.4495
 2653TIP3   OH232153   5.592   0.934   8.081 -0.2729  0.0374 -0.0645
 2653TIP3    H132154   5.580   0.870   8.011  2.4818 -0.0037 -0.6118
 2653TIP3    H232155   5.589   0.883   8.161 -2.6984 -0.0246 -0.1272
 2654TIP3   OH232156   3.349   2.300   8.002  0.6427 -0.2188  0.2961
 2654TIP3    H132157   3.421   2.335   7.949  0.4046 -2.4056 -1.6351
 2654TIP3    H232158   3.285   2.270   7.937  0.0400 -2.4725  1.8241
 2655TIP3   OH232159   5.519   3.622   8.517  0.1214 -0.3099  0.4901
 2655TIP3    H132160   5.461   3.629   8.592  0.1006  1.2794  0.3495
 2655TIP3    H232161   5.599   3.667   8.543  0.0304  0.4728 -0.5169
 2656TIP3   OH232162   2.160   3.065   7.367 -0.5483 -0.2207  0.3716
 2656TIP3    H132163   2.210   2.997   7.411  1.0508  0.9835  0.5356
 2656TIP3    H232164   2.082   3.078   7.421  0.1615 -0.4777  1.4911
 2657TIP3   OH232165   4.085   5.058   7.634 -0.5077  0.0765  0.0457
 2657TIP3    H132166   4.159   5.080   7.578  0.0383  0.1314  0.7630
 2657TIP3    H232167   4.085   5.127   7.701 -0.3699 -0.6776  0.8337
 2658TIP3   OH232168   2.098   5.207   9.557 -0.0394  0.1413  0.1858
 2658TIP3    H132169   2.137   5.164   9.481  0.1795  0.8456 -0.1074
 2658TIP3    H232170   2.169   5.215   9.620  0.2270  1.1532 -0.2312
 2659TIP3   OH232171   4.792   2.885   8.614 -0.1341  0.1279  0.3451
 2659TIP3    H132172   4.773   2.959   8.672 -0.9027 -0.4008  0.7804
 2659TIP3    H232173   4.879   2.905   8.579  0.0460  0.8049  1.1290
 2660TIP3   OH232174   3.142   2.452   7.680  0.5802  0.3167  0.2998
 2660TIP3    H132175   3.058   2.488   7.651  1.7079  2.3642 -0.6085
 2660TIP3    H232176   3.182   2.523   7.731  1.3910 -0.9619  1.5063
 2661TIP3   OH232177   4.048   3.332   7.239  0.1388 -0.2212 -0.6283
 2661TIP3    H132178   4.119   3.276   7.210  1.1995 -0.4106  2.0524
 2661TIP3    H232179   4.083   3.421   7.232  0.4214 -0.2714  0.0444
 2662TIP3   OH232180   4.219   0.348   8.279 -0.3356 -0.2533 -0.2786
 2662TIP3    H132181   4.307   0.340   8.315 -0.0210 -0.0532 -0.9811
 2662TIP3    H232182   4.214   0.439   8.248 -0.7410 -0.2971 -0.3469
 2663TIP3   OH232183   0.810   2.264   8.642 -0.0950 -0.0938 -0.4730
 2663TIP3    H132184   0.900   2.294   8.657 -0.2916  0.2462  0.0701
 2663TIP3    H232185   0.803   2.253   8.548  0.4269  0.1709 -0.5458
 2664TIP3   OH232186   6.567   3.630   9.370 -0.2981  0.2675 -0.0766
 2664TIP3    H132187   6.614   3.699   9.418 -0.3811 -0.0817  0.5120
 2664TIP3    H232188   6.618   3.619   9.290 -0.4934  1.2754 -0.3578
 2665TIP3   OH232189   4.437   5.981   7.837  0.1737  0.6660 -0.2746
 2665TIP3    H132190   4.472   5.933   7.912  0.3796  1.5703  0.2149
 2665TIP3    H232191   4.474   6.068   7.845 -0.9096  1.1763 -0.6408
 2666TIP3   OH232192   7.440   2.097   7.352 -0.2250 -0.0940  0.0149
 2666TIP3    H132193   7.346   2.112   7.349 -0.3011 -0.6743 -0.6089
 2666TIP3    H232194   7.476   2.153   7.283 -0.1361 -0.0182  0.1223
 2667TIP3   OH232195   1.329   5.292   7.427 -0.0183  0.0309  0.3490
 2667TIP3    H132196   1.243   5.266   7.461  0.8460 -0.4990  2.3107
 2667TIP3    H232197   1.351   5.372   7.474  0.6455  0.0630  0.0007
 2668TIP3   OH232198   1.095   2.836   9.034  0.4421  0.1978 -0.8265
 2668TIP3    H132199   1.046   2.803   9.109  1.6215  1.0347  0.3672
 2668TIP3    H232200   1.036   2.826   8.959  0.1309 -3.0011 -0.2722
 2669TIP3   OH232201   1.311   6.457   9.367 -0.0719  0.2369  0.2316
 2669TIP3    H132202   1.331   6.490   9.455  1.6357 -1.2012  0.4473
 2669TIP3    H232203   1.219   6.432   9.371 -0.0393  0.2648  1.6026
 2670TIP3   OH232204   3.393   1.117   7.355  0.1981  0.4685 -0.4042
 2670TIP3    H132205   3.473   1.107   7.407  1.0010  0.8001 -1.5467
 2670TIP3    H232206   3.418   1.173   7.282 -1.0762  0.5450 -0.8146
 2671TIP3   OH232207   3.721   1.325   9.191 -0.0762 -0.1894 -0.0266
 2671TIP3    H132208   3.639   1.277   9.180 -0.6047  0.5443  0.5910
 2671TIP3    H232209   3.697   1.417   9.176  0.5195  0.0915  0.6807
 2672TIP3   OH232210   0.830   1.651   9.104 -0.3973 -0.1942  0.2405
 2672TIP3    H132211   0.840   1.742   9.132  0.3760 -0.1802 -0.0558
 2672TIP3    H232212   0.740   1.646   9.071 -0.6251  0.3204  0.7474
 2673TIP3   OH232213   2.815   1.744   9.288 -0.0817 -0.1915  0.1337
 2673TIP3    H132214   2.819   1.656   9.326  0.4850 -0.8480 -1.3703
 2673TIP3    H232215   2.727   1.749   9.250 -0.9173  0.7353  2.0811
 2674TIP3   OH232216   6.252   1.870   6.712  0.0321  0.0615 -0.1124
 2674TIP3    H132217   6.344   1.845   6.705  0.0627  0.2861 -0.5486
 2674TIP3    H232218   6.204   1.789   6.696  0.1546 -0.1361  0.4910
 2675TIP3   OH232219   4.051   0.298   7.685 -0.0533  0.5850 -0.1055
 2675TIP3    H132220   4.069   0.328   7.774 -1.7613  1.6807 -0.0855
 2675TIP3    H232221   3.984   0.231   7.695  1.4147 -1.0185 -0.4312
 2676TIP3   OH232222   4.964   3.768   8.363  0.0841  0.2931  0.3813
 2676TIP3    H132223   4.905   3.824   8.414  0.2928  0.4899  0.4121
 2676TIP3    H232224   5.031   3.828   8.330 -1.0187  0.4971 -1.6483
 2677TIP3   OH232225   7.589   1.552   8.875  0.0937 -0.8016  0.1295
 2677TIP3    H132226   7.509   1.587   8.913  0.3277 -0.0564 -0.0573
 2677TIP3    H232227   7.563   1.516   8.790  0.0472 -0.0885 -0.1634
 2678TIP3   OH232228   6.891   1.958   7.799 -0.0454 -0.0153 -0.2205
 2678TIP3    H132229   6.876   1.886   7.738 -0.6358 -1.2926  1.3540
 2678TIP3    H232230   6.875   2.037   7.748  0.1746 -1.0017 -1.8815
 2679TIP3   OH232231   4.429   4.758   7.807 -0.4631  0.0317  0.2440
 2679TIP3    H132232   4.384   4.774   7.889  0.3384 -1.1133  0.9390
 2679TIP3    H232233   4.365   4.712   7.753 -0.8767  0.4750  0.3500
 2680TIP3   OH232234   2.013   6.013   7.522 -0.1001 -0.5271  0.0475
 2680TIP3    H132235   2.064   6.024   7.442  2.1970 -2.3295  1.1225
 2680TIP3    H232236   2.009   6.100   7.561 -1.1371  0.3512 -1.8811
 2681TIP3   OH232237   2.491   4.396   9.129  0.1383 -0.7467 -0.0264
 2681TIP3    H132238   2.437   4.467   9.093 -0.1893  0.0160  1.8581
 2681TIP3    H232239   2.574   4.438   9.151 -0.0597 -0.9187  1.1136
 2682TIP3   OH232240   3.257   5.108   7.799  0.6628  0.2548 -1.0247
 2682TIP3    H132241   3.204   5.078   7.873 -2.6353 -0.2475 -3.3516
 2682TIP3    H232242   3.323   5.165   7.838 -0.7111 -0.2118  2.3108
 2683TIP3   OH232243   2.168   4.417   8.760 -0.3533 -0.0825 -0.2572
 2683TIP3    H132244   2.227   4.403   8.834 -2.0612 -0.0053  1.1896
 2683TIP3    H232245   2.131   4.330   8.742  0.0905 -0.1076 -1.0496
 2684TIP3   OH232246   5.960   1.687   8.654  0.4183  0.4605  0.0966
 2684TIP3    H132247   6.034   1.636   8.621  1.5805 -0.3139  3.5543
 2684TIP3    H232248   5.883   1.635   8.633  0.7121  1.1416 -3.3097
 2685TIP3   OH232249   5.563   2.582   6.690  0.8086 -0.0970  0.1561
 2685TIP3    H132250   5.605   2.667   6.704  2.1577 -0.7396  0.0847
 2685TIP3    H232251   5.470   2.603   6.679  1.2229  1.4492 -0.6515
 2686TIP3   OH232252   2.958   5.571   9.454  0.0617 -0.0887 -0.4818
 2686TIP3    H132253   2.886   5.628   9.481  1.0471  0.4820  1.0830
 2686TIP3    H232254   3.030   5.631   9.435  0.8635 -0.7497  0.3775
 2687TIP3   OH232255   2.386   3.200   9.362  0.2759 -0.2798 -0.1407
 2687TIP3    H132256   2.434   3.130   9.407 -0.3562 -1.2944 -0.9926
 2687TIP3    H232257   2.299   3.164   9.349  0.4145 -0.0080 -2.1130
 2688TIP3   OH232258   6.254   1.784   8.816 -0.1443 -0.1427  0.0130
 2688TIP3    H132259   6.237   1.771   8.910  1.6878 -1.2267  0.2341
 2688TIP3    H232260   6.190   1.728   8.773  0.1293 -0.9808  0.6701
 2689TIP3   OH232261   4.893   5.437   7.370  0.0336 -0.4516 -0.0532
 2689TIP3    H132262   4.876   5.527   7.341 -1.3561 -0.6340  0.1339
 2689TIP3    H232263   4.988   5.434   7.385 -0.1466  1.5396  1.8241
 2690TIP3   OH232264   6.577   5.871   7.819  0.2649 -0.4331 -0.5229
 2690TIP3    H132265   6.604   5.927   7.747 -0.7618 -1.7711 -2.0102
 2690TIP3    H232266   6.589   5.781   7.787 -0.4863 -1.0745  0.8485
 2691TIP3   OH232267   0.632   4.966   7.050  0.6001  0.6098  0.3475
 2691TIP3    H132268   0.679   5.037   7.094  1.0799  0.1750  0.5540
 2691TIP3    H232269   0.558   5.008   7.007 -0.7888  0.8866  2.8153
 2692TIP3   OH232270   4.388   6.316   8.053  0.3733  0.2619  0.0406
 2692TIP3    H132271   4.314   6.374   8.073  0.9203  0.4029  1.8370
 2692TIP3    H232272   4.352   6.228   8.060 -0.0406  0.3488 -0.8999
 2693TIP3   OH232273   2.813   3.142   8.738  0.0281  0.3570 -0.3248
 2693TIP3    H132274   2.791   3.195   8.814  2.1884 -0.5361  1.0093
 2693TIP3    H232275   2.803   3.051   8.768  2.3141 -0.0316 -0.5777
 2694TIP3   OH232276   1.102   1.880   7.255 -0.3782 -1.0986  0.3616
 2694TIP3    H132277   1.091   1.816   7.184 -0.7791  1.3873 -1.9993
 2694TIP3    H232278   1.197   1.886   7.267  0.0904  1.3889 -3.0928
 2695TIP3   OH232279   6.410   2.401   7.763 -0.3533 -0.1352 -0.1454
 2695TIP3    H132280   6.482   2.425   7.705 -0.3274 -2.0765 -0.9919
 2695TIP3    H232281   6.424   2.308   7.781 -0.2475  0.3872  3.1874
 2696TIP3   OH232282   1.321   1.116   8.469 -0.1664 -0.1563 -0.2891
 2696TIP3    H132283   1.254   1.092   8.534 -0.4997 -1.9981 -1.2420
 2696TIP3    H232284   1.284   1.090   8.385  0.4930  1.6692 -1.2099
 2697TIP3   OH232285   6.807   4.997   9.329 -0.5428 -0.0294  0.4257
 2697TIP3    H132286   6.874   4.956   9.275  1.7519  1.4314  2.0044
 2697TIP3    H232287   6.775   4.927   9.385  0.1118 -0.6005  0.0998
 2698TIP3   OH232288   5.085   6.833   9.615 -0.5933 -0.1562  0.1342
 2698TIP3    H132289   5.141   6.892   9.566 -0.4779 -0.8617 -0.6013
 2698TIP3    H232290   5.098   6.858   9.707  2.5114 -1.6091  0.1928
 2699TIP3   OH232291   7.222   1.339   8.226 -0.6666  0.2021  0.0275
 2699TIP3    H132292   7.200   1.380   8.309 -2.5586 -0.5122 -0.0615
 2699TIP3    H232293   7.236   1.412   8.166 -0.3193  0.7126  0.7128
 2700TIP3   OH232294   1.958   6.846   7.253  0.1264  0.1005  0.4065
 2700TIP3    H132295   1.986   6.915   7.193 -0.2387 -1.3827 -1.5634
 2700TIP3    H232296   1.863   6.854   7.256  0.0871 -0.2818  0.2094
 2701TIP3   OH232297   4.432   4.621   8.809  0.2976  0.4959 -0.6268
 2701TIP3    H132298   4.372   4.577   8.749  0.1441  0.2067 -0.2610
 2701TIP3    H232299   4.377   4.680   8.860  0.0734 -0.8038  0.7003
 2702TIP3   OH232300   5.981   0.440   8.338  0.1868 -0.5205  0.0205
 2702TIP3    H132301   5.890   0.454   8.364  0.1263 -1.2014  0.2131
 2702TIP3    H232302   6.029   0.512   8.377 -0.1004 -0.8058  0.9272
 2703TIP3   OH232303   4.473   0.597   8.810 -0.0686  0.0059 -0.0163
 2703TIP3    H132304   4.382   0.617   8.834 -1.4219 -2.3761 -2.6749
 2703TIP3    H232305   4.502   0.675   8.762 -1.1092  0.3106 -0.1793
 2704TIP3   OH232306   6.878   5.530   9.017  0.7920  0.8546 -0.1484
 2704TIP3    H132307   6.972   5.515   9.023  0.4993 -0.7066  1.1310
 2704TIP3    H232308   6.864   5.559   8.927  2.5840  1.9487 -0.1272
 2705TIP3   OH232309   3.776   6.425   9.713 -0.2036  0.0787 -0.6440
 2705TIP3    H132310   3.847   6.390   9.767  0.7472  1.6797 -0.7929
 2705TIP3    H232311   3.741   6.349   9.667  3.8519 -0.3902 -3.4388
 2706TIP3   OH232312   0.187   4.825   7.676  0.3369 -0.9348  0.1165
 2706TIP3    H132313   0.133   4.902   7.661  2.5494  0.4935 -1.0275
 2706TIP3    H232314   0.161   4.764   7.607  0.6436  0.0148 -0.8680
 2707TIP3   OH232315   0.316   3.442   8.970  0.3645  0.2315  0.2366
 2707TIP3    H132316   0.239   3.385   8.967  0.4555  0.1400 -0.7455
 2707TIP3    H232317   0.356   3.433   8.883  2.1795 -0.6724  1.1152
 2708TIP3   OH232318   3.660   0.197   9.301  0.0847  0.5866  0.8012
 2708TIP3    H132319   3.667   0.103   9.284 -1.6227  0.0805  2.6288
 2708TIP3    H232320   3.750   0.229   9.291  0.5914 -1.0824 -0.5416
 2709TIP3   OH232321   5.190   2.101   7.873 -0.1087  0.0178  0.2964
 2709TIP3    H132322   5.140   2.172   7.834  1.7513  0.4458 -1.5017
 2709TIP3    H232323   5.203   2.127   7.964 -1.0813  1.0151  0.1681
 2710TIP3   OH232324   4.009   3.478   7.615  0.1499 -0.0474  0.3084
 2710TIP3    H132325   4.023   3.450   7.705 -1.3886 -0.2020  0.5240
 2710TIP3    H232326   3.916   3.502   7.611  0.5020  1.2690 -0.8855
 2711TIP3   OH232327   3.464   3.965   8.046  0.0051 -0.7951  0.1085
 2711TIP3    H132328   3.555   3.994   8.053 -0.2197  0.7139 -2.0783
 2711TIP3    H232329   3.414   4.047   8.045 -0.9439 -1.2884 -3.0576
 2712TIP3   OH232330   1.659   2.111   9.499 -0.0190 -0.1560  0.2309
 2712TIP3    H132331   1.567   2.110   9.525  0.7421 -1.3937  3.3476
 2712TIP3    H232332   1.674   2.024   9.461  0.1206 -0.4981  1.0303
 2713TIP3   OH232333   7.406   3.512   8.759  0.3366 -0.4795  0.6694
 2713TIP3    H132334   7.315   3.530   8.782  0.2395  0.7771 -0.5103
 2713TIP3    H232335   7.416   3.550   8.671  2.3897  0.8432  1.3858
 2714TIP3   OH232336   5.089   3.372   7.141 -0.7963  0.1272 -0.5649
 2714TIP3    H132337   5.048   3.285   7.138 -1.2137  0.3617 -2.2206
 2714TIP3    H232338   5.025   3.430   7.101 -0.3677  1.1633  0.2103
 2715TIP3   OH232339   3.346   3.788   7.881 -0.4987 -0.2030  0.1288
 2715TIP3    H132340   3.379   3.852   7.944  0.1870 -0.2967 -0.1214
 2715TIP3    H232341   3.252   3.805   7.876 -0.1351  1.9339 -1.1592
 2716TIP3   OH232342   7.489   4.823   7.990  0.6974 -0.1869 -0.0622
 2716TIP3    H132343   7.469   4.773   7.911  0.2511 -1.7437  0.9808
 2716TIP3    H232344   7.403   4.842   8.028  0.9029 -2.5164  1.8168
 2717TIP3   OH232345   4.637   5.191   8.951  0.1901 -0.4223 -0.4836
 2717TIP3    H132346   4.625   5.099   8.927  2.5220 -0.6357 -1.1397
 2717TIP3    H232347   4.629   5.239   8.868 -0.5881 -0.0706 -0.2125
 2718TIP3   OH232348   0.501   4.570   8.433 -0.1620  0.2761  0.0596
 2718TIP3    H132349   0.464   4.657   8.416  1.0055  0.2915 -3.0040
 2718TIP3    H232350   0.574   4.586   8.493  0.4876  1.5826 -1.0170
 2719TIP3   OH232351   1.698   6.862   7.376 -0.3449 -0.0483  0.3820
 2719TIP3    H132352   1.652   6.810   7.309 -0.3008 -1.9696  1.7706
 2719TIP3    H232353   1.668   6.952   7.360  0.5384 -0.1910 -2.9309
 2720TIP3   OH232354   5.639   3.332   7.990  0.2817 -0.0668 -0.0176
 2720TIP3    H132355   5.644   3.300   8.080  0.7003  0.7664  0.2649
 2720TIP3    H232356   5.547   3.323   7.966  0.0938  0.0785  0.6368
 2721TIP3   OH232357   1.034   7.439   8.211  0.0713 -0.4937 -0.1927
 2721TIP3    H132358   1.112   7.406   8.255 -0.1933 -1.5159 -0.4615
 2721TIP3    H232359   0.983   7.482   8.279 -0.5821 -2.4974  0.6561
 2722TIP3   OH232360   5.077   0.956   8.295  0.3781 -0.0324 -0.0052
 2722TIP3    H132361   5.133   0.985   8.367  0.4630  1.4959 -0.6539
 2722TIP3    H232362   5.038   1.036   8.261 -2.4733 -1.0107  0.5810
 2723TIP3   OH232363   3.310   1.121   8.998  0.9141  0.1460  0.3715
 2723TIP3    H132364   3.327   1.090   9.086  0.8817 -0.1763  0.2634
 2723TIP3    H232365   3.278   1.045   8.951  0.5397  0.4107  0.1882
 2724TIP3   OH232366   1.533   3.777   8.141  0.2309 -0.1895  0.5556
 2724TIP3    H132367   1.452   3.769   8.091  1.2259 -0.2631 -1.1118
 2724TIP3    H232368   1.507   3.822   8.221 -1.1346  1.5964 -0.8048
 2725TIP3   OH232369   7.077   2.646   7.261  0.0083 -0.0051 -0.1397
 2725TIP3    H132370   7.148   2.705   7.235  0.3122  0.3144  1.2822
 2725TIP3    H232371   7.121   2.563   7.279 -0.0285  0.0631  0.2911
 2726TIP3   OH232372   0.202   0.362   8.872  0.1001 -0.0378  0.3166
 2726TIP3    H132373   0.281   0.411   8.894 -0.5385  0.5806  1.3635
 2726TIP3    H232374   0.208   0.347   8.778  1.1315  0.5851  0.2651
 2727TIP3   OH232375   5.937   6.264   7.254  0.1635  0.2380 -0.6392
 2727TIP3    H132376   5.920   6.341   7.200 -1.0839 -0.0166 -0.6474
 2727TIP3    H232377   5.932   6.296   7.344 -1.3876  0.0245 -0.6078
 2728TIP3   OH232378   6.875   2.538   7.936  0.1476  0.2034 -0.0644
 2728TIP3    H132379   6.945   2.582   7.983  0.3219  0.3325 -0.4457
 2728TIP3    H232380   6.795   2.581   7.967  0.1880 -0.2440  0.7112
 2729TIP3   OH232381   2.828   6.665   9.039 -0.2872 -0.0519  0.3568
 2729TIP3    H132382   2.905   6.627   8.996 -0.1459 -0.4273  0.9275
 2729TIP3    H232383   2.859   6.749   9.074 -0.5607  0.5299 -0.7795
 2730TIP3   OH232384   1.360   5.535   7.627  0.3530  0.3547  0.3716
 2730TIP3    H132385   1.451   5.552   7.654  0.5757  0.4665 -0.4182
 2730TIP3    H232386   1.348   5.588   7.549 -0.3457  0.2024  0.3687
 2731TIP3   OH232387   3.902   7.437   7.735  0.0052  0.1095  0.6530
 2731TIP3    H132388   3.833   7.501   7.752  0.1670  0.7828 -1.0032
 2731TIP3    H232389   3.856   7.360   7.700  0.0173  0.3341  0.1248
 2732TIP3   OH232390   1.050   5.242   7.416  0.8259  0.0931 -0.3524
 2732TIP3    H132391   1.039   5.337   7.412  1.0222  0.1195 -0.2696
 2732TIP3    H232392   0.990   5.213   7.484  0.4778  0.1123 -0.6452
 2733TIP3   OH232393   3.683   3.795   8.314  0.3700  0.0895 -0.3588
 2733TIP3    H132394   3.647   3.830   8.396 -0.8933 -0.6149 -0.5801
 2733TIP3    H232395   3.703   3.872   8.262 -0.3959  0.5331 -0.0208
 2734TIP3   OH232396   2.270   4.595   7.922 -0.1289 -0.6941 -0.3947
 2734TIP3    H132397   2.227   4.581   8.006  0.9973 -0.1505  0.2817
 2734TIP3    H232398   2.209   4.556   7.858 -0.5710 -1.9371  0.7294
 2735TIP3   OH232399   0.904   3.320   9.132 -0.1797 -0.4276  0.3313
 2735TIP3    H132400   0.839   3.316   9.203  0.4743  1.6884  1.1243
 2735TIP3    H232401   0.853   3.336   9.053 -0.7224 -0.0825  0.7454
 2736TIP3   OH232402   2.719   6.965   7.542 -0.3768 -0.2050 -0.2337
 2736TIP3    H132403   2.779   7.024   7.588  0.0082 -1.1074  0.4530
 2736TIP3    H232404   2.747   6.969   7.451  0.8601 -0.7289  0.0922
 2737TIP3   OH232405   0.953   0.425   8.385 -0.2670 -0.5429 -0.4050
 2737TIP3    H132406   0.909   0.487   8.442 -0.3531 -1.1526  0.2042
 2737TIP3    H232407   0.890   0.353   8.375 -0.0735 -0.6472 -0.8997
 2738TIP3   OH232408   3.151   4.598   8.147  0.1286  0.4086  0.2266
 2738TIP3    H132409   3.183   4.543   8.218  0.8827  0.9907  0.3496
 2738TIP3    H232410   3.075   4.644   8.184  0.5024  0.6882  0.6551
 2739TIP3   OH232411   3.814   4.365   7.724 -0.4913  0.2837 -0.1943
 2739TIP3    H132412   3.897   4.321   7.744 -0.6202 -0.5099 -1.3313
 2739TIP3    H232413   3.841   4.452   7.693 -0.0215 -0.2893 -1.4267
 2740TIP3   OH232414   4.615   2.654   9.132 -0.4431 -0.3385  0.0964
 2740TIP3    H132415   4.591   2.590   9.199  0.3920 -0.1212  0.6094
 2740TIP3    H232416   4.676   2.713   9.176  0.5490 -0.5166 -1.0183
 2741TIP3   OH232417   4.776   7.536   7.408 -0.1045 -0.8142 -0.0050
 2741TIP3    H132418   4.766   7.441   7.409  1.7218 -1.1255 -1.9457
 2741TIP3    H232419   4.700   7.568   7.360 -1.6891 -1.0629  2.2327
 2742TIP3   OH232420   6.501   0.990   8.492  0.1280  0.1101  0.2434
 2742TIP3    H132421   6.538   1.079   8.493 -1.3433  0.8373 -2.1816
 2742TIP3    H232422   6.508   0.962   8.401  2.4453 -3.2037  1.2529
 2743TIP3   OH232423   4.005   0.363   7.111 -0.2238  0.3807  0.4657
 2743TIP3    H132424   3.957   0.424   7.056 -0.7473  0.2973  0.8211
 2743TIP3    H232425   3.940   0.296   7.134  0.7550 -1.2672 -1.3268
 2744TIP3   OH232426   1.208   2.444   7.255  0.2201  0.0682  0.2785
 2744TIP3    H132427   1.263   2.366   7.250  1.7641  1.1965 -2.4145
 2744TIP3    H232428   1.212   2.471   7.346  1.7014 -1.5624  0.7494
 2745TIP3   OH232429   7.378   2.791   8.811  0.5706  0.5612 -0.4473
 2745TIP3    H132430   7.383   2.878   8.850 -0.0873  0.5982 -0.4365
 2745TIP3    H232431   7.297   2.793   8.759 -0.3053 -0.5569  0.8066
 2746TIP3   OH232432   3.727   6.136   8.195 -0.1216 -0.1078 -0.1787
 2746TIP3    H132433   3.717   6.046   8.165 -0.1231 -0.1295 -0.1137
 2746TIP3    H232434   3.787   6.176   8.133  1.0378 -0.5607  0.6164
 2747TIP3   OH232435   1.658   2.452   7.709 -0.3608  0.4523  0.3542
 2747TIP3    H132436   1.611   2.520   7.757 -1.0362  1.6503 -1.8518
 2747TIP3    H232437   1.733   2.497   7.670 -0.7401 -0.0502 -1.0304
 2748TIP3   OH232438   2.267   4.889   8.919  0.0317  0.4110 -0.3218
 2748TIP3    H132439   2.283   4.853   8.832  1.3687  2.9858 -1.2523
 2748TIP3    H232440   2.172   4.880   8.932 -0.1248 -0.4148 -1.8356
 2749TIP3   OH232441   3.286   5.044   6.947  0.8306 -0.5391 -0.1329
 2749TIP3    H132442   3.250   5.079   6.866  0.5309  1.8078  0.9324
 2749TIP3    H232443   3.284   4.949   6.935 -0.0890 -0.2954 -2.4676
 2750TIP3   OH232444   0.482   3.744   8.279  0.0256 -0.2267  0.4504
 2750TIP3    H132445   0.566   3.784   8.259  0.2142 -1.0443 -0.4995
 2750TIP3    H232446   0.486   3.723   8.372  0.3717  0.8698  0.6912
 2751TIP3   OH232447   5.404   6.659   8.166 -0.3310 -0.1267 -0.1611
 2751TIP3    H132448   5.411   6.719   8.240  1.3872  1.3640 -1.4585
 2751TIP3    H232449   5.457   6.583   8.192 -0.6515 -0.1148  0.5633
 2752TIP3   OH232450   5.587   1.096   8.412 -0.5749 -0.2950  0.1328
 2752TIP3    H132451   5.540   1.017   8.437  0.3401 -0.8050  0.3165
 2752TIP3    H232452   5.557   1.116   8.323 -0.3376 -1.2395 -0.1698
 2753TIP3   OH232453   4.073   5.976   7.623 -0.0161  0.2025 -0.4165
 2753TIP3    H132454   4.071   6.069   7.601  0.8845  0.9193  2.1287
 2753TIP3    H232455   4.095   5.932   7.541  0.2906  2.2919 -1.5303
 2754TIP3   OH232456   0.691   3.921   7.765  0.8240 -0.2748 -0.6621
 2754TIP3    H132457   0.607   3.956   7.796  0.5035 -0.7875 -0.9416
 2754TIP3    H232458   0.737   3.897   7.845  0.0928 -1.3746 -0.5387
 2755TIP3   OH232459   2.377   3.492   9.421  0.5417 -0.2765  0.3155
 2755TIP3    H132460   2.389   3.397   9.420 -0.4278 -0.6308 -4.7535
 2755TIP3    H232461   2.449   3.526   9.370  0.4260  1.7262  1.3849
 2756TIP3   OH232462   5.524   1.791   8.605 -0.5529  0.2402  0.2222
 2756TIP3    H132463   5.548   1.835   8.687  2.2468  0.4429 -0.5774
 2756TIP3    H232464   5.455   1.845   8.567 -1.1135  0.7588  1.9114
 2757TIP3   OH232465   3.342   0.561   9.570 -0.2078 -0.1457  0.3131
 2757TIP3    H132466   3.392   0.479   9.573 -0.4633 -0.3761 -1.0982
 2757TIP3    H232467   3.263   0.539   9.520 -0.6087  0.8026  0.5081
 2758TIP3   OH232468   1.612   0.196   7.882  0.2766  0.1636 -0.1046
 2758TIP3    H132469   1.537   0.145   7.913  0.9398 -0.6453  0.2139
 2758TIP3    H232470   1.615   0.179   7.787 -1.5388  2.3572 -0.6455
 2759TIP3   OH232471   3.324   7.591   8.338 -0.1239 -0.0582  0.2336
 2759TIP3    H132472   3.360   7.679   8.327  1.3334 -0.5472  0.8753
 2759TIP3    H232473   3.374   7.553   8.410 -1.3696 -1.0938  0.5944
 2760TIP3   OH232474   5.841   4.615   7.675 -0.7848  0.1631  0.0172
 2760TIP3    H132475   5.917   4.589   7.728  0.2375  1.4927 -0.7380
 2760TIP3    H232476   5.820   4.538   7.623 -0.5866 -0.5413  0.9682
 2761TIP3   OH232477   1.354   1.705   7.029 -0.3166  0.0741 -0.5514
 2761TIP3    H132478   1.362   1.630   6.971 -0.6389  0.7046 -1.4334
 2761TIP3    H232479   1.423   1.765   7.000 -0.3693  0.3253 -0.1667
 2762TIP3   OH232480   7.503   7.199   9.145 -0.1315 -0.6358  0.7238
 2762TIP3    H132481   7.563   7.128   9.121 -0.6612 -0.4029 -1.5166
 2762TIP3    H232482   7.424   7.182   9.093 -0.4764  1.2893  0.5561
 2763TIP3   OH232483   2.725   1.478   9.389  0.1058 -0.0532 -0.0969
 2763TIP3    H132484   2.711   1.398   9.440 -3.2266  0.3212 -0.1900
 2763TIP3    H232485   2.764   1.448   9.307  1.2848 -1.2309  0.8613
 2764TIP3   OH232486   1.902   3.949   8.712 -0.3214  0.1290  0.4080
 2764TIP3    H132487   1.987   3.917   8.681  0.1499  1.1268  0.6412
 2764TIP3    H232488   1.851   3.870   8.726  0.5740 -0.4917  0.2788
 2765TIP3   OH232489   5.199   5.511   8.636 -0.9593 -0.7584 -0.2395
 2765TIP3    H132490   5.149   5.523   8.716 -0.6589  0.0885 -0.1712
 2765TIP3    H232491   5.175   5.585   8.580 -0.7505 -1.0385 -0.7085
 2766TIP3   OH232492   3.403   6.516   9.551 -0.6093 -0.3564  0.6582
 2766TIP3    H132493   3.329   6.496   9.608  0.3442  0.4140  2.2202
 2766TIP3    H232494   3.373   6.590   9.498 -0.5599  0.7683  2.1522
 2767TIP3   OH232495   3.007   0.186   9.205 -0.6463  0.3604 -0.2361
 2767TIP3    H132496   2.988   0.262   9.259  0.2028 -0.0057  0.5954
 2767TIP3    H232497   2.927   0.134   9.208  0.0790 -0.7726  2.5596
 2768TIP3   OH232498   5.609   7.657   8.284 -0.0972 -0.5841 -0.0186
 2768TIP3    H132499   5.530   7.711   8.276  0.3399  0.2954  1.2194
 2768TIP3    H232500   5.681   7.719   8.270  0.4124 -0.8832  1.1646
 2769TIP3   OH232501   6.234   3.437   7.433  0.1525  0.0881 -0.4293
 2769TIP3    H132502   6.301   3.444   7.365 -0.6580 -1.9480 -1.5375
 2769TIP3    H232503   6.154   3.415   7.385 -0.8369  0.3193  1.0447
 2770TIP3   OH232504   4.826   4.190   8.299  0.2723 -0.0152  0.2017
 2770TIP3    H132505   4.921   4.179   8.303  0.4688  1.2383 -0.4446
 2770TIP3    H232506   4.798   4.193   8.390  0.8628 -0.3082  0.3978
 2771TIP3   OH232507   1.632   4.279   7.528  0.4309  0.1747  0.3005
 2771TIP3    H132508   1.570   4.334   7.575 -1.1017 -0.3749 -0.9771
 2771TIP3    H232509   1.625   4.308   7.437  1.0929 -0.7793 -0.0695
 2772TIP3   OH232510   6.609   1.505   8.712  0.5236  0.6120  0.3084
 2772TIP3    H132511   6.521   1.511   8.749  0.6883 -3.1535  1.7370
 2772TIP3    H232512   6.612   1.419   8.671  4.1972 -0.5737  2.5268
 2773TIP3   OH232513   4.439   1.747   7.753  0.5422 -0.4553  0.3971
 2773TIP3    H132514   4.417   1.745   7.660  0.0758 -1.9292  0.5090
 2773TIP3    H232515   4.439   1.655   7.780 -2.4689  0.0128  2.5470
 2774TIP3   OH232516   6.786   4.278   8.922 -0.4431 -0.1397  0.0691
 2774TIP3    H132517   6.726   4.352   8.935 -0.3395  0.0759 -0.6560
 2774TIP3    H232518   6.733   4.211   8.879 -0.1372  0.0979 -0.6884
 2775TIP3   OH232519   4.575   2.035   7.589  0.0236 -0.1947  0.7083
 2775TIP3    H132520   4.488   2.020   7.627  0.2906 -0.8155  1.0907
 2775TIP3    H232521   4.562   2.106   7.526 -0.2591  1.5486  2.6165
 2776TIP3   OH232522   3.940   3.857   8.498 -0.1056  0.6675  0.2329
 2776TIP3    H132523   3.877   3.794   8.534  2.1157 -0.7948  1.8210
 2776TIP3    H232524   3.889   3.938   8.487 -2.3400 -0.5336  0.9943
 2777TIP3   OH232525   1.069   3.172   7.869  0.1594 -0.2222  0.7047
 2777TIP3    H132526   1.048   3.219   7.949 -0.9541 -0.5546  0.6294
 2777TIP3    H232527   1.162   3.152   7.876  0.3416  0.7909  1.3581
 2778TIP3   OH232528   5.992   6.422   7.813 -0.4929  0.2546 -0.4869
 2778TIP3    H132529   6.080   6.426   7.851 -0.5878 -4.2515  0.7927
 2778TIP3    H232530   6.008   6.400   7.721 -0.1815 -1.2747 -0.1011
 2779TIP3   OH232531   5.944   5.670   9.070 -0.4540 -0.7285 -0.3930
 2779TIP3    H132532   5.939   5.757   9.029  0.4230  0.2027  1.3567
 2779TIP3    H232533   5.853   5.648   9.090 -0.5247  1.2803  1.9757
 2780TIP3   OH232534   6.112   7.470   8.554 -0.1299  0.3695 -0.3638
 2780TIP3    H132535   6.065   7.518   8.486 -0.7180  0.6212  0.2048
 2780TIP3    H232536   6.055   7.475   8.631  0.7301  0.4877  0.2836
 2781TIP3   OH232537   4.850   4.897   8.277 -0.7467 -0.0325  0.1400
 2781TIP3    H132538   4.833   4.830   8.344 -1.5995  0.1947  0.1592
 2781TIP3    H232539   4.809   4.862   8.197  0.2310 -0.2829 -0.2643
 2782TIP3   OH232540   2.775   0.762   6.860  0.3990  0.0264 -0.0705
 2782TIP3    H132541   2.707   0.805   6.809 -0.6832  0.1347  1.4242
 2782TIP3    H232542   2.812   0.697   6.799 -0.0062  0.9559 -1.3614
 2783TIP3   OH232543   4.432   5.838   9.827 -0.2371  0.1628 -0.5855
 2783TIP3    H132544   4.342   5.809   9.840 -0.0071  0.4146  1.8882
 2783TIP3    H232545   4.484   5.758   9.828 -0.3516  0.0568 -1.5983
 2784TIP3   OH232546   1.982   0.790   6.713  0.3669 -0.2370  0.4657
 2784TIP3    H132547   2.022   0.866   6.670  1.3017 -1.0115 -0.0777
 2784TIP3    H232548   1.942   0.826   6.792  1.9660  0.6117  0.9204
 2785TIP3   OH232549   7.462   3.304   7.172 -0.0696  0.1705 -0.1928
 2785TIP3    H132550   7.484   3.367   7.104  0.4420 -0.5919 -0.7554
 2785TIP3    H232551   7.411   3.354   7.236 -0.7175  0.8611 -1.2206
 2786TIP3   OH232552   0.740   3.021   8.119  0.7842  0.4319 -0.0019
 2786TIP3    H132553   0.708   2.939   8.155  0.4613  0.4276 -0.2856
 2786TIP3    H232554   0.794   2.995   8.044  1.1909  0.4543  0.2796
 2787TIP3   OH232555   2.966   1.173   8.166  0.0925 -0.5399  0.5540
 2787TIP3    H132556   2.980   1.166   8.072  0.5268 -0.4374  0.6068
 2787TIP3    H232557   3.010   1.097   8.203  0.4063 -0.2793  0.7179
 2788TIP3   OH232558   5.397   7.147   7.971  0.2113 -0.3728 -0.0801
 2788TIP3    H132559   5.316   7.099   7.955  1.1177 -1.1475 -3.0927
 2788TIP3    H232560   5.410   7.142   8.066 -2.7074 -1.0565  0.3796
 2789TIP3   OH232561   2.670   1.651   8.943  0.3048  0.0437 -0.8351
 2789TIP3    H132562   2.751   1.659   8.893 -0.3814 -0.7126 -2.1266
 2789TIP3    H232563   2.647   1.558   8.938 -0.2904  0.1192  0.0921
 2790TIP3   OH232564   3.455   1.320   7.758 -0.1410  0.4096  0.0814
 2790TIP3    H132565   3.361   1.304   7.754  0.1060 -1.0020 -2.6714
 2790TIP3    H232566   3.471   1.386   7.691  0.7882  0.9103  0.7764
 2791TIP3   OH232567   3.469   2.974   7.801 -0.3615  0.0651  0.0231
 2791TIP3    H132568   3.456   2.948   7.710 -0.8917  0.6517 -0.0694
 2791TIP3    H232569   3.474   2.891   7.849  0.0410 -0.2508 -0.5502
 2792TIP3   OH232570   4.044   0.100   6.705 -0.0533 -0.0612  0.2923
 2792TIP3    H132571   3.980   0.037   6.671 -0.7595 -0.2128  1.7937
 2792TIP3    H232572   3.993   0.158   6.761  1.2957 -1.2378  2.9395
 2793TIP3   OH232573   2.850   2.772   9.244 -0.2191 -0.1963 -0.4267
 2793TIP3    H132574   2.914   2.747   9.310  1.3173  0.6445 -1.5377
 2793TIP3    H232575   2.878   2.859   9.215 -0.7803 -0.5807 -2.2579
 2794TIP3   OH232576   5.311   2.191   9.313  0.4372 -0.5831  0.1618
 2794TIP3    H132577   5.224   2.195   9.273  0.1708  0.0926  0.7970
 2794TIP3    H232578   5.301   2.131   9.386  0.0602  0.7532  1.2565
 2795TIP3   OH232579   0.169   4.943   8.047  0.0110  0.1901  0.6322
 2795TIP3    H132580   0.179   4.853   8.077  1.3127  0.3571  0.7305
 2795TIP3    H232581   0.122   4.987   8.119  0.6611 -0.0736  1.2344
 2796TIP3   OH232582   0.745   4.066   7.031 -0.7893  0.4228 -0.0721
 2796TIP3    H132583   0.652   4.047   7.041 -0.9260  0.6717 -0.7917
 2796TIP3    H232584   0.751   4.112   6.947 -0.0785  0.8150  0.1832
 2797TIP3   OH232585   7.070   3.042   8.149 -0.3239 -0.5033  0.1725
 2797TIP3    H132586   7.157   3.019   8.118 -0.0521 -0.2682  0.7323
 2797TIP3    H232587   7.025   2.959   8.157 -0.2781 -0.5951 -0.4813
 2798TIP3   OH232588   4.320   4.131   7.248 -0.0858 -0.3710 -0.5108
 2798TIP3    H132589   4.226   4.131   7.226 -0.6531 -0.2584  1.7167
 2798TIP3    H232590   4.347   4.040   7.235 -0.5147 -0.4246 -1.0959
 2799TIP3   OH232591   2.859   1.374   8.345  0.2351 -0.4404 -0.3198
 2799TIP3    H132592   2.827   1.429   8.274 -0.1624 -0.1201  0.1004
 2799TIP3    H232593   2.900   1.300   8.301  0.0851 -0.1966 -0.8837
 2800TIP3   OH232594   4.926   2.259   9.075 -0.1185  0.3678 -0.5153
 2800TIP3    H132595   4.956   2.341   9.113  2.3495 -1.0096  0.8207
 2800TIP3    H232596   4.978   2.248   8.996  1.0382 -0.7372  0.3405
 2801TIP3   OH232597   2.898   2.352   7.910  0.2565  0.0130  0.2025
 2801TIP3    H132598   2.929   2.392   7.829 -0.0933  1.9288  0.9348
 2801TIP3    H232599   2.965   2.377   7.975  0.4337 -1.3141  0.5488
 2802TIP3   OH232600   1.886   2.331   9.139  0.2164  0.7564 -0.0687
 2802TIP3    H132601   1.807   2.292   9.101  0.9696 -0.3280 -0.6168
 2802TIP3    H232602   1.911   2.400   9.077  0.3015  0.3608 -0.4843
 2803TIP3   OH232603   5.331   6.978   8.625  0.6559 -0.1888 -0.3274
 2803TIP3    H132604   5.396   6.910   8.643  2.4251  1.9056  1.6922
 2803TIP3    H232605   5.381   7.051   8.588 -0.9516  0.6337 -1.0241
 2804TIP3   OH232606   5.700   5.747   9.080  0.0449  0.0021  0.4006
 2804TIP3    H132607   5.620   5.767   9.129  0.3480 -0.1939  0.9760
 2804TIP3    H232608   5.669   5.698   9.003 -0.3062 -0.9024  1.1007
 2805TIP3   OH232609   6.385   6.889   7.499 -0.0657  0.2242 -0.4547
 2805TIP3    H132610   6.351   6.968   7.541  1.1432  0.4716  0.1053
 2805TIP3    H232611   6.422   6.920   7.416  0.7805  0.3237 -0.0468
 2806TIP3   OH232612   1.107   6.190   7.845 -0.4663 -0.0435 -0.1012
 2806TIP3    H132613   1.036   6.127   7.856 -1.7272  1.1250 -1.1867
 2806TIP3    H232614   1.142   6.203   7.933 -1.1355 -1.1516  0.3390
 2807TIP3   OH232615   4.521   1.114   6.618 -0.1188  0.5107 -0.4308
 2807TIP3    H132616   4.426   1.118   6.603 -0.4556 -1.7048  0.6230
 2807TIP3    H232617   4.542   1.021   6.606  1.8489  0.8925 -0.1433
 2808TIP3   OH232618   5.134   7.173   9.453  0.6248 -0.0925  0.1805
 2808TIP3    H132619   5.164   7.162   9.363  1.9317  1.2217  0.4098
 2808TIP3    H232620   5.213   7.159   9.506  0.4659  1.5927  0.9382
 2809TIP3   OH232621   5.478   2.301   9.122 -0.2879  0.1993 -0.1847
 2809TIP3    H132622   5.417   2.272   9.190  0.1072  0.2795  0.2095
 2809TIP3    H232623   5.434   2.279   9.039  1.0589 -3.9701 -0.0186
 2810TIP3   OH232624   2.225   6.950   7.913  0.6021 -0.1861 -0.2996
 2810TIP3    H132625   2.307   6.910   7.941  0.2920 -0.2846  0.5137
 2810TIP3    H232626   2.230   6.953   7.818  1.7843  0.3302 -0.2307
 2811TIP3   OH232627   2.117   6.029   6.674  0.5187  0.1098 -0.2407
 2811TIP3    H132628   2.186   6.017   6.740  0.7774 -3.3314 -0.9410
 2811TIP3    H232629   2.158   6.085   6.608  2.2472 -0.8780 -0.0758
 2812TIP3   OH232630   1.589   4.693   8.202  0.5975 -0.4481 -0.4444
 2812TIP3    H132631   1.631   4.657   8.280 -0.2011 -2.0333 -0.6817
 2812TIP3    H232632   1.591   4.788   8.213  2.8758 -0.5390  0.2149
 2813TIP3   OH232633   6.273   0.795   8.984  0.1939 -0.5764 -0.1315
 2813TIP3    H132634   6.269   0.802   9.080  1.1752 -0.6387 -0.0776
 2813TIP3    H232635   6.233   0.711   8.964 -0.5667 -0.2964  0.1719
 2814TIP3   OH232636   6.112   3.232   8.206  0.3125  0.1772 -0.2580
 2814TIP3    H132637   6.049   3.304   8.201  1.8420  1.5732 -0.1291
 2814TIP3    H232638   6.057   3.153   8.215 -1.4692  1.5819  4.1042
 2815TIP3   OH232639   7.477   4.068   9.769  0.9742  0.2111 -0.0656
 2815TIP3    H132640   7.528   4.068   9.850  0.1248  0.9538  0.4914
 2815TIP3    H232641   7.542   4.065   9.700  1.6814 -3.0175  0.6051
 2816TIP3   OH232642   2.975   4.584   8.907  0.3904  0.1677 -0.2218
 2816TIP3    H132643   2.897   4.637   8.922  0.0565 -0.5913  0.9244
 2816TIP3    H232644   3.032   4.603   8.982  0.7394 -0.2452 -0.3744
 2817TIP3   OH232645   7.383   3.013   8.971  0.0983 -0.6709  0.3930
 2817TIP3    H132646   7.410   3.095   8.929 -0.4565 -1.3035 -1.2839
 2817TIP3    H232647   7.298   3.034   9.010 -0.3969 -0.6112 -0.6720
 2818TIP3   OH232648   2.145   5.382   7.619  0.0402  0.6965  0.0142
 2818TIP3    H132649   2.182   5.344   7.699 -0.9772  1.1409  0.7243
 2818TIP3    H232650   2.211   5.365   7.551 -0.5078 -2.6398  0.1732
 2819TIP3   OH232651   5.031   1.021   7.282 -0.4541  0.0812  0.0962
 2819TIP3    H132652   5.069   1.064   7.205  1.1469  0.1771  0.9057
 2819TIP3    H232653   5.003   0.935   7.250 -1.5164  0.8015 -0.9996
 2820TIP3   OH232654   2.042   4.628   8.580 -0.7263  0.1685  0.3116
 2820TIP3    H132655   2.076   4.538   8.586 -1.2155  0.0060  0.7078
 2820TIP3    H232656   1.960   4.626   8.629 -0.4531  0.9729  0.8159
 2821TIP3   OH232657   0.468   4.835   8.395  0.6970  0.2595  0.3855
 2821TIP3    H132658   0.440   4.891   8.467  2.5110 -1.0831  2.2366
 2821TIP3    H232659   0.559   4.860   8.379  0.1891  0.8973 -1.8669
 2822TIP3   OH232660   0.985   0.203   6.950  0.3147 -0.4450  0.0257
 2822TIP3    H132661   1.040   0.252   6.889 -0.0439 -0.5044 -0.3516
 2822TIP3    H232662   0.896   0.219   6.919  0.2125 -1.6565 -0.3345
 2823TIP3   OH232663   0.607   7.448   9.110  0.3138 -0.2478  0.3871
 2823TIP3    H132664   0.574   7.515   9.170 -1.2500 -1.3046  0.7660
 2823TIP3    H232665   0.618   7.370   9.165  2.1905 -0.3169 -0.0213
 2824TIP3   OH232666   6.388   3.641   8.686  0.2710  0.7767 -0.2021
 2824TIP3    H132667   6.384   3.704   8.614  1.4839 -0.7168 -1.6423
 2824TIP3    H232668   6.467   3.664   8.735 -0.3941  1.6035  0.5333
 2825TIP3   OH232669   4.691   4.787   7.699 -0.4099  0.6989  0.0930
 2825TIP3    H132670   4.612   4.779   7.753 -1.0021  1.6656 -0.5994
 2825TIP3    H232671   4.734   4.702   7.707 -0.5488  0.7660  1.9631
 2826TIP3   OH232672   7.576   5.125   7.373  0.1141  0.3031  0.0251
 2826TIP3    H132673   7.621   5.205   7.401  0.1166  1.1934 -2.2308
 2826TIP3    H232674   7.495   5.157   7.333 -0.2563 -0.9031 -0.2230
 2827TIP3   OH232675   5.607   7.216   8.717  0.1723 -0.3344 -0.0259
 2827TIP3    H132676   5.641   7.147   8.774  1.1035 -0.4927 -0.7498
 2827TIP3    H232677   5.561   7.275   8.777 -0.1117 -1.2523  0.6839
 2828TIP3   OH232678   3.200   6.351   7.677  0.4033 -0.7052 -0.0614
 2828TIP3    H132679   3.207   6.287   7.606  2.5425 -1.7317  0.9780
 2828TIP3    H232680   3.250   6.426   7.646  0.1516 -0.5915 -0.1961
 2829TIP3   OH232681   4.643   7.618   8.091 -0.4851 -0.0089  0.2988
 2829TIP3    H132682   4.580   7.566   8.041 -0.2317 -1.3500  1.3028
 2829TIP3    H232683   4.708   7.554   8.119  1.4661  1.3656 -0.8680
 2830TIP3   OH232684   3.628   0.019   8.767 -0.1460 -0.5593  0.6050
 2830TIP3    H132685   3.587  -0.059   8.804  2.6390 -1.9789  1.0096
 2830TIP3    H232686   3.650   0.073   8.842 -2.0722  0.6977  0.3244
 2831TIP3   OH232687   5.289   2.730   7.219 -0.5377 -0.2116  0.2169
 2831TIP3    H132688   5.252   2.792   7.157  0.0407  3.3273  3.0736
 2831TIP3    H232689   5.355   2.780   7.267  0.6237 -3.3180  2.2047
 2832TIP3   OH232690   2.815   5.160   7.692 -0.2360 -0.3251 -0.3677
 2832TIP3    H132691   2.883   5.202   7.744  0.3295  0.4369 -1.6865
 2832TIP3    H232692   2.849   5.073   7.673  0.7198  0.2877 -1.6062
 2833TIP3   OH232693   3.732   1.744   8.617 -0.2292  0.2101 -0.8431
 2833TIP3    H132694   3.688   1.817   8.573  0.5274  1.4376  0.3846
 2833TIP3    H232695   3.792   1.710   8.550 -2.0763 -0.7210 -2.1382
 2834TIP3   OH232696   2.561   6.990   7.238  0.3796 -0.1683  0.6532
 2834TIP3    H132697   2.500   6.932   7.192 -0.0445 -1.1630  2.3803
 2834TIP3    H232698   2.640   6.991   7.184 -0.4864 -0.3818 -0.6505
 2835TIP3   OH232699   7.098   3.506   7.853 -0.4204  0.1501 -0.2726
 2835TIP3    H132700   7.175   3.452   7.871  1.4015  1.8591 -2.4604
 2835TIP3    H232701   7.027   3.463   7.902  1.8178 -1.6112  1.6757
 2836TIP3   OH232702   1.086   1.983   7.697 -0.0548  0.3624  0.8143
 2836TIP3    H132703   1.015   2.041   7.672  0.7438  1.1612  0.3216
 2836TIP3    H232704   1.058   1.896   7.668 -1.0878  0.5537  1.1921
 2837TIP3   OH232705   1.187   5.805   7.660  0.1900  0.4637 -0.2288
 2837TIP3    H132706   1.206   5.747   7.734 -2.4332 -0.0726  0.1136
 2837TIP3    H232707   1.232   5.887   7.682  0.9107 -0.2457  1.0805
 2838TIP3   OH232708   1.383   4.735   8.713 -0.2106  0.4883  0.4055
 2838TIP3    H132709   1.401   4.826   8.736 -2.6348  0.7568  1.5658
 2838TIP3    H232710   1.388   4.688   8.796 -0.5174 -0.1484  0.0692
 2839TIP3   OH232711   5.157   7.523   7.990  0.2172  0.2515 -0.0865
 2839TIP3    H132712   5.163   7.608   8.032  0.7324  1.1621 -1.9034
 2839TIP3    H232713   5.101   7.471   8.048  2.0440  0.9070  2.4585
 2840TIP3   OH232714   1.722   4.077   7.029 -0.5324  0.6754 -0.2738
 2840TIP3    H132715   1.730   4.158   7.080 -0.7444 -0.4240  1.6005
 2840TIP3    H232716   1.627   4.067   7.017 -0.8827 -1.2955  3.0546
 2841TIP3   OH232717   1.357   0.484   8.850  0.0731  0.2964  0.7431
 2841TIP3    H132718   1.338   0.570   8.812 -2.0217  0.7814  2.7166
 2841TIP3    H232719   1.275   0.436   8.842  1.1754 -1.5461 -0.1929
 2842TIP3   OH232720   6.863   0.784   7.758 -0.6962  0.5838  0.0362
 2842TIP3    H132721   6.832   0.789   7.667  0.2496  1.7843 -0.2459
 2842TIP3    H232722   6.957   0.766   7.749 -1.1087 -2.4867  0.8545
 2843TIP3   OH232723   2.375   6.745   9.505  0.2120 -0.1847 -0.4709
 2843TIP3    H132724   2.424   6.663   9.498 -1.8916 -1.7028  1.2089
 2843TIP3    H232725   2.360   6.772   9.415  0.5578 -1.9342 -1.0926
 2844TIP3   OH232726   5.427   2.119   7.538  0.1017  0.0777  0.3916
 2844TIP3    H132727   5.485   2.183   7.497  0.5999 -0.4613  0.2531
 2844TIP3    H232728   5.339   2.146   7.511  0.4236 -0.3296 -1.1225
 2845TIP3   OH232729   1.914   1.115   8.846 -0.3736  0.1400 -0.3179
 2845TIP3    H132730   1.947   1.028   8.826 -0.6034  0.3178 -1.6069
 2845TIP3    H232731   1.923   1.163   8.763 -2.1040  0.7307 -0.2058
 2846TIP3   OH232732   4.202   3.541   8.832  0.4319 -0.0331 -0.1587
 2846TIP3    H132733   4.175   3.611   8.773  1.7244 -0.2670 -1.0598
 2846TIP3    H232734   4.168   3.461   8.791  0.6375 -0.1186 -0.1615
 2847TIP3   OH232735   0.147   2.506   8.979 -0.3620  0.0178 -0.3206
 2847TIP3    H132736   0.109   2.594   8.978  2.4077  1.3174 -0.0283
 2847TIP3    H232737   0.202   2.503   8.900  0.0798 -1.2075  0.0198
 2848TIP3   OH232738   2.192   3.714   9.455  0.1386  0.3014  0.5515
 2848TIP3    H132739   2.256   3.645   9.470  0.5481  0.9654  2.1244
 2848TIP3    H232740   2.131   3.708   9.529 -0.2741  1.1208  0.3000
 2849TIP3   OH232741   0.118   2.681   8.054 -0.5268 -0.2477 -0.2408
 2849TIP3    H132742   0.165   2.752   8.010 -0.1357 -1.5536 -2.0671
 2849TIP3    H232743   0.183   2.612   8.065 -1.3142 -0.9936 -0.1363
 2850TIP3   OH232744   4.039   5.689   7.981  0.2209  0.1104  0.3945
 2850TIP3    H132745   3.995   5.637   8.048 -0.6450  1.2103  0.7014
 2850TIP3    H232746   4.060   5.626   7.912  0.6845 -0.9467  1.4677
 2851TIP3   OH232747   6.772   7.028   8.039 -0.1033 -0.2369  0.1737
 2851TIP3    H132748   6.833   7.006   8.110 -0.7171  0.6692  1.0061
 2851TIP3    H232749   6.690   7.047   8.084 -0.4275  0.6518 -0.7750
 2852TIP3   OH232750   3.385   3.085   7.470 -0.1106  0.2073 -0.5397
 2852TIP3    H132751   3.397   3.180   7.474 -1.0445  0.3026  0.4780
 2852TIP3    H232752   3.419   3.061   7.384 -0.4983  1.5724 -1.1177
 2853TIP3   OH232753   3.251   4.189   8.972  0.3088  0.0298 -0.1603
 2853TIP3    H132754   3.209   4.240   9.041  0.3303  0.1712 -0.2517
 2853TIP3    H232755   3.329   4.240   8.949 -0.0350  0.3052 -0.7287
 2854TIP3   OH232756   1.898   2.768   9.001  0.1598 -0.1064  0.0376
 2854TIP3    H132757   1.810   2.757   9.037  1.0190 -1.0126  1.9785
 2854TIP3    H232758   1.917   2.861   9.012 -0.3284 -0.0157  0.1358
 2855TIP3   OH232759   5.922   4.154   8.897 -0.3834 -0.3617  0.0909
 2855TIP3    H132760   6.001   4.099   8.897  0.5532  0.8976 -1.2205
 2855TIP3    H232761   5.909   4.177   8.989  0.9731 -0.3801  0.3119
 2856TIP3   OH232762   1.351   0.111   9.044 -0.4659 -0.5807  0.2758
 2856TIP3    H132763   1.387   0.026   9.070  0.5148 -0.5808 -0.9852
 2856TIP3    H232764   1.424   0.156   9.000 -1.2278  0.5559  0.1220
 2857TIP3   OH232765   2.399   6.041   9.146  0.4398 -0.0719 -0.0382
 2857TIP3    H132766   2.465   6.055   9.078 -0.9464  1.2559 -1.1841
 2857TIP3    H232767   2.366   5.953   9.129  1.7869 -0.7007  0.4633
 2858TIP3   OH232768   3.831   5.644   7.667  0.5306 -0.4606  0.2460
 2858TIP3    H132769   3.922   5.659   7.695  0.3265 -0.3528  0.8690
 2858TIP3    H232770   3.794   5.588   7.735 -0.4068  1.0273  1.0138
 2859TIP3   OH232771   7.010   5.579   7.506 -0.0338 -0.3897 -0.0934
 2859TIP3    H132772   6.944   5.638   7.470 -0.3465 -0.0094  1.0667
 2859TIP3    H232773   7.083   5.584   7.444 -0.2930  0.7441 -0.3249
 2860TIP3   OH232774   2.758   2.656   8.636 -0.3422  0.0777 -0.0033
 2860TIP3    H132775   2.764   2.589   8.568  0.8576  0.1437  0.0156
 2860TIP3    H232776   2.746   2.606   8.717 -1.8673  0.0033 -0.2568
 2861TIP3   OH232777   5.547   1.502   7.663  0.1942  0.1272 -0.7687
 2861TIP3    H132778   5.503   1.584   7.641  0.2651 -0.2627 -2.5529
 2861TIP3    H232779   5.639   1.517   7.641  0.7335  0.4175  1.4450
 2862TIP3   OH232780   4.858   3.538   7.052 -0.0730 -0.0037 -0.7894
 2862TIP3    H132781   4.917   3.604   7.017  0.1609  1.2568  1.7080
 2862TIP3    H232782   4.771   3.578   7.045 -0.2021 -0.3406 -1.1727
 2863TIP3   OH232783   7.191   4.930   9.476  0.7071  0.3020 -0.1944
 2863TIP3    H132784   7.279   4.926   9.440  0.1835 -0.4532 -1.4841
 2863TIP3    H232785   7.167   4.838   9.490  0.0017  0.4792 -0.1953
 2864TIP3   OH232786   0.435   3.046   9.784 -0.2191 -0.0357  0.5568
 2864TIP3    H132787   0.402   3.024   9.697 -0.0557  0.8857  0.2532
 2864TIP3    H232788   0.424   3.140   9.791 -2.2274 -0.3349  2.3880
 2865TIP3   OH232789   5.677   6.174   7.830  0.0524 -0.5724 -0.3842
 2865TIP3    H132790   5.645   6.264   7.837  0.3708 -0.5084  0.3074
 2865TIP3    H232791   5.606   6.126   7.786  0.5816  0.3789 -2.4172
 2866TIP3   OH232792   4.344   0.744   8.564  0.0888 -1.2997  0.3738
 2866TIP3    H132793   4.405   0.798   8.613  1.4747 -2.9188  0.5329
 2866TIP3    H232794   4.336   0.787   8.479  0.0811 -0.1478  0.9488
 2867TIP3   OH232795   3.105   3.753   8.130 -0.0071 -0.1909 -0.3638
 2867TIP3    H132796   3.039   3.697   8.171 -0.3122  0.0773 -0.4854
 2867TIP3    H232797   3.179   3.695   8.114 -0.1679 -0.4674 -0.1158
 2868TIP3   OH232798   4.711   0.439   7.744 -0.6520  0.4611 -0.3660
 2868TIP3    H132799   4.642   0.472   7.687 -0.0680  0.7276 -0.9254
 2868TIP3    H232800   4.789   0.435   7.689 -0.3370 -0.3377  0.1203
 2869TIP3   OH232801   0.142   4.639   7.243  0.0904 -0.0408  0.4171
 2869TIP3    H132802   0.215   4.696   7.219 -0.3802 -0.0809 -1.2827
 2869TIP3    H232803   0.145   4.634   7.338 -0.0554  3.1058  0.6911
 2870TIP3   OH232804   3.182   4.942   9.239  0.1782  0.3939 -0.0095
 2870TIP3    H132805   3.177   5.038   9.241  0.5255  0.4129  0.2505
 2870TIP3    H232806   3.261   4.924   9.188  1.4414  0.3172  1.8750
 2871TIP3   OH232807   5.556   2.571   6.967 -0.4316  0.4289  0.3854
 2871TIP3    H132808   5.519   2.653   7.000  1.9008  1.8671 -0.2772
 2871TIP3    H232809   5.515   2.559   6.881 -0.7551  0.9420  0.4640
 2872TIP3   OH232810   1.960   5.506   7.169 -0.1237  0.5776  0.1576
 2872TIP3    H132811   1.916   5.587   7.142  1.3695  1.4557  0.2156
 2872TIP3    H232812   1.958   5.509   7.265 -1.0015 -0.0069  0.1665
 2873TIP3   OH232813   1.548   6.374   6.669 -0.4272 -0.3546 -0.0753
 2873TIP3    H132814   1.618   6.315   6.641  1.6283  1.5537  0.7762
 2873TIP3    H232815   1.545   6.364   6.764 -0.9963 -0.0795 -0.0614
 2874TIP3   OH232816   4.588   2.317   7.439 -0.2615 -0.3297  0.4422
 2874TIP3    H132817   4.507   2.347   7.481 -0.6142 -1.0603  0.3007
 2874TIP3    H232818   4.603   2.380   7.369  0.4007  0.9819  1.7047
 2875TIP3   OH232819   0.093   2.603   8.474 -0.1748 -0.0784  0.8247
 2875TIP3    H132820   0.142   2.685   8.469 -1.2668  0.5291 -0.7397
 2875TIP3    H232821   0.130   2.549   8.405 -0.7302 -0.1633  0.5929
 2876TIP3   OH232822   0.940   5.482   7.985  0.0426 -0.6984  0.4163
 2876TIP3    H132823   1.030   5.501   7.956  0.1225 -0.5929  0.7334
 2876TIP3    H232824   0.889   5.484   7.904  0.3550 -0.9441  0.2056
 2877TIP3   OH232825   4.260   6.716   8.935  0.3970  0.5436 -0.7358
 2877TIP3    H132826   4.185   6.765   8.899 -0.0182 -0.6296 -1.4988
 2877TIP3    H232827   4.220   6.649   8.990  0.8425 -0.5174 -1.6709
 2878TIP3   OH232828   2.874   5.512   9.208 -0.1063 -0.6206 -0.3072
 2878TIP3    H132829   2.885   5.508   9.303 -1.7327 -0.1627 -0.0666
 2878TIP3    H232830   2.781   5.529   9.196  0.5355  2.5737 -1.8847
 2879TIP3   OH232831   3.357   6.200   7.446 -0.2128 -0.0951 -0.2104
 2879TIP3    H132832   3.346   6.282   7.398 -1.0433  0.3338  0.6889
 2879TIP3    H232833   3.291   6.142   7.410  0.6047 -0.5103 -1.0934
 2880TIP3   OH232834   4.747   5.218   8.236 -0.2896 -0.1113 -0.3227
 2880TIP3    H132835   4.693   5.291   8.267  2.7737  2.0183  0.4191
 2880TIP3    H232836   4.761   5.163   8.313  0.8490  0.8894  0.2164
 2881TIP3   OH232837   7.589   4.066   7.467  0.3924  0.5839 -0.2189
 2881TIP3    H132838   7.606   4.157   7.442  1.1825  0.0963 -1.5310
 2881TIP3    H232839   7.495   4.054   7.451 -0.2063  1.7089  1.8960
 2882TIP3   OH232840   4.009   2.025   9.259 -0.0740  0.2605 -0.5367
 2882TIP3    H132841   3.986   2.079   9.336  2.7324  0.8756 -0.0241
 2882TIP3    H232842   4.012   2.088   9.187  1.0417  0.4164 -0.3684
 2883TIP3   OH232843   2.191   0.862   7.562  0.4824 -0.7738 -0.1954
 2883TIP3    H132844   2.229   0.820   7.485 -0.5399  1.6921 -2.1879
 2883TIP3    H232845   2.259   0.857   7.628  1.7120 -2.2807 -1.4904
 2884TIP3   OH232846   1.165   0.275   8.275 -0.3312 -0.7194  0.0897
 2884TIP3    H132847   1.106   0.333   8.324  1.3467  1.1639  0.0282
 2884TIP3    H232848   1.160   0.307   8.185 -0.8158 -1.9377 -0.3251
 2885TIP3   OH232849   4.760   6.759   7.483 -0.2056 -0.1475  0.3700
 2885TIP3    H132850   4.694   6.697   7.514 -0.5990  0.1800  0.2027
 2885TIP3    H232851   4.751   6.758   7.388 -0.6326  0.6146  0.3973
 2886TIP3   OH232852   1.511   3.673   7.185  0.6365  0.2218 -0.2318
 2886TIP3    H132853   1.551   3.592   7.215 -1.3256 -0.7977 -0.2450
 2886TIP3    H232854   1.483   3.655   7.096 -1.2061  0.3397  0.2786
 2887TIP3   OH232855   2.397   0.844   7.783  0.3051 -0.0904 -0.3355
 2887TIP3    H132856   2.483   0.886   7.778  0.3995 -0.3382 -0.9097
 2887TIP3    H232857   2.404   0.786   7.859  0.5223  0.1568 -0.1634
 2888TIP3   OH232858   6.577   4.506   8.447  0.4966  0.0705  0.0889
 2888TIP3    H132859   6.663   4.483   8.411  1.4980  2.6351  0.6367
 2888TIP3    H232860   6.566   4.448   8.522  1.1014 -1.2071 -0.7693
 2889TIP3   OH232861   6.272   4.812   7.209  0.0055 -0.0566  0.7152
 2889TIP3    H132862   6.272   4.816   7.113  1.5291 -1.0463  0.6457
 2889TIP3    H232863   6.179   4.812   7.233 -0.4824 -2.3106 -0.8833
 2890TIP3   OH232864   1.126   7.126   8.965 -0.1263 -0.4704  0.1861
 2890TIP3    H132865   1.130   7.032   8.951  0.6691 -0.2921 -0.8822
 2890TIP3    H232866   1.172   7.164   8.890  0.2497  0.7412  0.9973
 2891TIP3   OH232867   0.902   0.693   9.040 -0.0203  0.3060 -0.7468
 2891TIP3    H132868   0.931   0.784   9.050  1.6610 -0.4526  2.4931
 2891TIP3    H232869   0.817   0.690   9.085  0.8704 -0.0840  0.9857
 2892TIP3   OH232870   0.043   5.103   8.865  0.0494  0.1061 -0.4989
 2892TIP3    H132871  -0.010   5.025   8.851 -1.6466  1.5126 -2.4325
 2892TIP3    H232872  -0.011   5.160   8.919  0.4090  0.7749 -0.8294
 2893TIP3   OH232873   4.171   5.192   9.051 -0.0675  0.3881  0.6715
 2893TIP3    H132874   4.212   5.112   9.084 -0.6168 -1.6277 -2.9264
 2893TIP3    H232875   4.111   5.219   9.120  0.6245 -1.9555  2.3032
 2894TIP3   OH232876   6.071   0.268   7.509  0.0374  0.1819 -0.0301
 2894TIP3    H132877   6.068   0.363   7.520 -1.2243 -0.0115  1.6567
 2894TIP3    H232878   6.116   0.236   7.587  0.1008 -0.6472 -0.3925
 2895TIP3   OH232879   5.391   1.544   8.597  0.4606  0.6437  0.2591
 2895TIP3    H132880   5.423   1.473   8.542  0.1071  1.4984 -1.0940
 2895TIP3    H232881   5.357   1.609   8.536  0.0736  1.6517  1.4893
 2896TIP3   OH232882   4.296   3.019   8.951 -0.1495  0.3481  0.0922
 2896TIP3    H132883   4.243   3.051   9.024  0.8258  0.5785  0.7247
 2896TIP3    H232884   4.233   3.002   8.881 -0.9508  1.5147  0.4965
 2897TIP3   OH232885   3.687   2.887   9.212  0.0022 -0.4635 -0.1146
 2897TIP3    H132886   3.733   2.829   9.151  0.9562 -0.4076  0.5343
 2897TIP3    H232887   3.605   2.908   9.167 -0.6638 -2.7900 -0.1274
 2898TIP3   OH232888   0.127   7.257   7.345 -0.2338  0.4087  0.1147
 2898TIP3    H132889   0.141   7.337   7.395 -0.0647  1.7317 -1.9278
 2898TIP3    H232890   0.132   7.186   7.410 -0.3960  2.0305  1.9704
 2899TIP3   OH232891   5.369   5.007   9.473 -0.2225  0.1309  0.5172
 2899TIP3    H132892   5.423   5.035   9.399 -1.1608 -0.2379 -0.3400
 2899TIP3    H232893   5.310   4.942   9.436  0.6450 -1.6355  2.0474
 2900TIP3   OH232894   3.027   6.232   8.057 -0.4771 -0.2644  0.7951
 2900TIP3    H132895   3.016   6.208   8.150  0.0188 -2.1422  0.4047
 2900TIP3    H232896   2.962   6.301   8.043  0.0297  0.6922  2.7446
 2901TIP3   OH232897   6.595   3.233   8.144  0.5900 -0.3628  0.1241
 2901TIP3    H132898   6.559   3.205   8.228  0.1712 -0.3348 -0.0413
 2901TIP3    H232899   6.517   3.249   8.090  0.8485  0.1715 -0.0856
 2902TIP3   OH232900   0.861   1.604   9.508 -0.0442  0.5070  0.1434
 2902TIP3    H132901   0.809   1.670   9.461  0.2801 -0.5647 -1.7795
 2902TIP3    H232902   0.799   1.567   9.571 -1.2607  0.2085 -1.1735
 2903TIP3   OH232903   6.934   0.106   7.558 -0.0548 -1.0138  0.4305
 2903TIP3    H132904   6.916   0.056   7.478  1.3862  0.5394 -0.9448
 2903TIP3    H232905   6.982   0.045   7.614 -0.4380 -1.9141 -0.2020
 2904TIP3   OH232906   6.163   2.220   8.621 -0.0104  0.0901 -0.1835
 2904TIP3    H132907   6.171   2.168   8.700 -0.8955 -1.0430 -0.8052
 2904TIP3    H232908   6.184   2.310   8.648  1.6079 -0.5786  0.8875
 2905TIP3   OH232909   7.278   4.414   8.293 -0.4030  0.1820 -0.1390
 2905TIP3    H132910   7.197   4.417   8.242 -0.8686 -1.8968  0.3910
 2905TIP3    H232911   7.272   4.489   8.352 -2.5878 -0.6443  0.7899
 2906TIP3   OH232912   1.715   2.123   9.124  0.8510  0.1449  0.2157
 2906TIP3    H132913   1.673   2.062   9.064  0.5676  0.8716 -0.3406
 2906TIP3    H232914   1.692   2.090   9.211  1.1791 -0.8580 -0.0576
 2907TIP3   OH232915   4.942   3.342   8.593 -0.9422  0.2060  0.2431
 2907TIP3    H132916   4.922   3.432   8.619 -2.6759 -0.5466  1.8045
 2907TIP3    H232917   4.890   3.328   8.514 -1.1035  0.4018  0.3143
 2908TIP3   OH232918   0.499   6.679   7.930 -0.1388  0.3458  0.0312
 2908TIP3    H132919   0.546   6.650   8.008 -0.5725 -1.3381 -0.2909
 2908TIP3    H232920   0.514   6.610   7.865 -2.9463 -0.2512 -0.1140
 2909TIP3   OH232921   3.223   0.920   8.461  0.3674 -0.2859  0.3373
 2909TIP3    H132922   3.234   0.866   8.539  0.4273 -0.5357  0.1557
 2909TIP3    H232923   3.282   0.994   8.474 -2.8961  2.2199  2.7456
 2910TIP3   OH232924   3.815   0.634   7.953 -0.2913 -0.0975 -0.2299
 2910TIP3    H132925   3.751   0.572   7.987 -0.2803 -0.6837 -1.2281
 2910TIP3    H232926   3.859   0.669   8.031 -1.5226  0.0065  0.4417
 2911TIP3   OH232927   4.296   5.098   8.191  0.0040 -0.0299 -0.3399
 2911TIP3    H132928   4.217   5.043   8.187  0.4896 -0.8071  0.3756
 2911TIP3    H232929   4.289   5.142   8.276  1.0635 -1.2565  0.4185
 2912TIP3   OH232930   4.627   4.380   8.829  0.0666 -0.0606  0.0758
 2912TIP3    H132931   4.635   4.290   8.799 -2.1130 -0.4815  0.6165
 2912TIP3    H232932   4.589   4.426   8.754 -1.8447 -0.3175  0.8363
 2913TIP3   OH232933   4.828   3.317   7.367  0.1943  0.5507 -0.5260
 2913TIP3    H132934   4.906   3.366   7.393 -0.2177  1.2539 -0.5961
 2913TIP3    H232935   4.763   3.384   7.347 -0.5621 -0.0315 -0.0807
 2914TIP3   OH232936   6.916   5.711   8.248 -0.3077 -0.5821  0.4280
 2914TIP3    H132937   6.862   5.742   8.320  0.6780 -1.9513  1.8201
 2914TIP3    H232938   6.927   5.617   8.265  2.3755 -0.3944  0.1392
 2915TIP3   OH232939   1.982   6.452   8.369 -0.2906 -0.5382 -0.5523
 2915TIP3    H132940   2.011   6.540   8.391 -0.1478 -0.3882 -1.3185
 2915TIP3    H232941   1.887   6.459   8.362 -0.4871 -0.8708  1.2365
 2916TIP3   OH232942   1.280   5.051   7.796  0.1810 -0.0922 -0.7271
 2916TIP3    H132943   1.291   5.079   7.705  0.7405 -0.5223 -0.8021
 2916TIP3    H232944   1.219   4.977   7.791 -0.9763  0.8182 -0.5731
 2917TIP3   OH232945   0.959   0.690   8.252 -0.1268 -0.2355  0.4667
 2917TIP3    H132946   0.971   0.600   8.222  0.8401 -0.1376  0.5482
 2917TIP3    H232947   0.941   0.681   8.346  0.8497 -0.2978  0.6552
 2918TIP3   OH232948   5.880   2.755   8.652 -0.2911 -0.2922  0.0675
 2918TIP3    H132949   5.830   2.814   8.708  0.2779 -0.4515  0.7545
 2918TIP3    H232950   5.814   2.704   8.605 -0.7714  0.0103  0.4113
 2919TIP3   OH232951   5.545   4.542   8.929 -1.0373  0.7583  0.2361
 2919TIP3    H132952   5.548   4.522   9.022 -1.2322 -1.1335 -0.1176
 2919TIP3    H232953   5.626   4.591   8.912  0.1617 -0.8446  1.0094
 2920TIP3   OH232954   3.151   3.633   8.574 -0.6352 -0.2641 -0.0520
 2920TIP3    H132955   3.174   3.564   8.637  0.5858 -0.2407 -0.4497
 2920TIP3    H232956   3.222   3.633   8.511 -0.7603  1.1619 -0.2329
 2921TIP3   OH232957   0.687   1.799   7.238 -0.2808 -0.7745  0.1066
 2921TIP3    H132958   0.759   1.836   7.289 -0.2913  0.3242 -0.6390
 2921TIP3    H232959   0.693   1.842   7.153 -2.9546  0.8822  0.6201
 2922TIP3   OH232960   0.603   7.121   7.438 -0.5561 -0.0568  0.0662
 2922TIP3    H132961   0.605   7.188   7.369  3.1390 -0.2289 -0.2067
 2922TIP3    H232962   0.588   7.170   7.518  0.9255  1.0214 -0.2691
 2923TIP3   OH232963   0.193   2.748   6.615  0.3286  0.3258  0.3630
 2923TIP3    H132964   0.220   2.738   6.706 -0.2518 -0.3716  0.4651
 2923TIP3    H232965   0.098   2.734   6.617 -0.0326  2.3669 -0.0334
 2924TIP3   OH232966   0.597   6.536   8.402 -0.2172  0.2768  0.2051
 2924TIP3    H132967   0.657   6.583   8.459  1.7533 -1.2932 -0.4788
 2924TIP3    H232968   0.533   6.497   8.461 -0.4691  1.7917  0.9647
 2925TIP3   OH232969   4.664   1.941   9.058  0.6491  0.1246 -0.2044
 2925TIP3    H132970   4.621   1.916   9.140 -0.9518  0.0537 -1.0406
 2925TIP3    H232971   4.638   1.874   8.995  2.2334 -0.0792 -0.6964
 2926TIP3   OH232972   0.589   3.073   8.956  0.4822 -0.0525  0.2631
 2926TIP3    H132973   0.596   2.977   8.952  0.7406 -0.0042 -0.9939
 2926TIP3    H232974   0.496   3.089   8.971  0.5362 -0.5004  1.1308
 2927TIP3   OH232975   0.325   6.602   7.548  0.0913 -0.5213  0.0443
 2927TIP3    H132976   0.318   6.643   7.461  2.6921 -0.6778 -0.3201
 2927TIP3    H232977   0.418   6.606   7.569 -0.1275 -2.6493  1.8045
 2928TIP3   OH232978   3.248   0.148   9.383  0.2201  0.9715 -0.1036
 2928TIP3    H132979   3.270   0.080   9.319  1.1540 -0.5861  1.7738
 2928TIP3    H232980   3.161   0.125   9.413  0.2126  1.0865 -0.0356
 2929TIP3   OH232981   5.927   4.919   9.647  0.0258  0.1929 -0.0593
 2929TIP3    H132982   5.865   4.968   9.593  1.9664 -0.3304 -2.9939
 2929TIP3    H232983   5.994   4.984   9.672  0.4069 -0.0643 -0.3957
 2930TIP3   OH232984   2.637   5.818   9.194 -0.4958  0.1158  0.2833
 2930TIP3    H132985   2.562   5.832   9.251 -1.5351  0.5533 -1.1458
 2930TIP3    H232986   2.706   5.873   9.232 -1.6164  1.5782  0.2870
 2931TIP3   OH232987   2.627   6.572   8.780 -0.3814 -0.1865 -0.4225
 2931TIP3    H132988   2.581   6.516   8.842  1.2098 -0.5399  0.4874
 2931TIP3    H232989   2.636   6.656   8.826 -2.2696  0.7135 -1.5670
 2932TIP3   OH232990   6.335   7.425   7.663 -0.3749  0.1443  0.3819
 2932TIP3    H132991   6.261   7.449   7.719 -0.0617  1.2052  0.3635
 2932TIP3    H232992   6.316   7.466   7.579 -0.2787 -0.4847  0.0411
 2933TIP3   OH232993   0.416   3.947   8.973  0.2058  0.0595 -0.3610
 2933TIP3    H132994   0.457   3.912   9.051  0.1162 -0.1099 -0.3900
 2933TIP3    H232995   0.418   3.875   8.910 -1.3880 -0.4124  0.0861
 2934TIP3   OH232996   4.661   6.754   8.441  0.1400  0.3730 -0.0471
 2934TIP3    H132997   4.703   6.746   8.527  0.6533  2.5140 -0.0451
 2934TIP3    H232998   4.727   6.721   8.379  1.2143  2.0890  0.1153
 2935TIP3   OH232999   1.428   7.003   8.625  0.3859  1.1177 -0.5772
 2935TIP3    H133000   1.456   7.089   8.592  0.1440  0.5446 -2.3770
 2935TIP3    H233001   1.341   7.018   8.660  1.0552  1.9616  0.8165
 2936TIP3   OH233002   3.189   5.734   9.408  0.1754  0.3784 -0.5211
 2936TIP3    H133003   3.193   5.793   9.482 -1.4820  1.6566 -1.3962
 2936TIP3    H233004   3.264   5.759   9.353  0.6309  0.3167  0.0712
 2937TIP3   OH233005   1.909   1.255   7.936 -0.3778  0.4746  0.0905
 2937TIP3    H133006   1.981   1.194   7.925 -0.0529  0.7699  0.5655
 2937TIP3    H233007   1.862   1.224   8.014 -0.6118  0.4297 -0.0681
 2938TIP3   OH233008   0.751   2.029   8.432 -0.2553 -0.3731  0.2467
 2938TIP3    H133009   0.757   1.986   8.347  0.4347 -3.2086  1.6131
 2938TIP3    H233010   0.841   2.057   8.451  0.2360 -2.5048  1.3026
 2939TIP3   OH233011   3.234   3.335   9.305  0.2380  0.0391  0.2664
 2939TIP3    H133012   3.231   3.252   9.258 -0.2522 -1.3140  2.5246
 2939TIP3    H233013   3.149   3.375   9.290  0.1693 -0.2673 -0.1592
 2940TIP3   OH233014   7.425   0.856   7.528  0.5079 -0.5734  0.1809
 2940TIP3    H133015   7.355   0.921   7.526  0.9746 -0.0744 -0.1496
 2940TIP3    H233016   7.401   0.793   7.461  1.3308  0.6302 -1.3199
 2941TIP3   OH233017   6.914   1.581   7.250 -0.4058 -0.0413 -0.2893
 2941TIP3    H133018   6.850   1.650   7.266  0.5394  0.5070  1.3576
 2941TIP3    H233019   6.995   1.612   7.292  0.8839 -0.8498 -2.0335
 2942TIP3   OH233020   4.617   0.423   8.999 -0.4358 -0.6872 -0.2611
 2942TIP3    H133021   4.563   0.454   8.927  0.8960 -0.6218 -1.2728
 2942TIP3    H233022   4.615   0.494   9.063  1.7159  1.1834 -2.0804
 2943TIP3   OH233023   5.812   6.599   9.517  0.1246 -0.0517  0.0161
 2943TIP3    H133024   5.887   6.629   9.465 -0.9504 -0.1662 -1.6610
 2943TIP3    H233025   5.782   6.520   9.472 -2.1494  1.0179 -0.4768
 2944TIP3   OH233026   6.186   1.853   9.084  0.2169 -0.4118  0.2703
 2944TIP3    H133027   6.151   1.803   9.158  2.0917 -3.5755 -0.7730
 2944TIP3    H233028   6.120   1.920   9.067 -0.9446 -0.4250  3.8563
 2945TIP3   OH233029   4.821   3.263   6.963  0.4532  0.8409  0.1916
 2945TIP3    H133030   4.750   3.214   7.006  0.5410  0.2583 -0.3160
 2945TIP3    H233031   4.816   3.350   7.002 -0.6318  0.8502  0.0628
 2946TIP3   OH233032   7.545   7.016   6.561  0.1014  0.0963  1.1925
 2946TIP3    H133033   7.562   6.984   6.473  2.8606 -1.5778  2.1687
 2946TIP3    H233034   7.535   7.111   6.552 -1.1627 -0.2036 -1.0371
 2947TIP3   OH233035   5.377   5.547   8.093  0.4332 -0.2421 -0.0133
 2947TIP3    H133036   5.298   5.598   8.112  0.9541  0.7164 -0.3529
 2947TIP3    H233037   5.391   5.558   7.999  0.7340 -0.7713 -0.0377
 2948TIP3   OH233038   2.226   6.273   9.545 -0.1622  0.3782  0.5056
 2948TIP3    H133039   2.235   6.365   9.571  0.3697  0.0419  1.5763
 2948TIP3    H233040   2.177   6.276   9.463  3.0287  1.8797 -1.5772
 2949TIP3   OH233041   0.256   6.585   6.235  0.2083 -0.4373  0.6995
 2949TIP3    H133042   0.349   6.565   6.241 -0.0532 -1.4671  1.7791
 2949TIP3    H233043   0.223   6.576   6.324 -0.9852 -0.4145  0.2870
 2950TIP3   OH233044   2.791   4.763   7.341 -0.1497 -0.4316  0.0371
 2950TIP3    H133045   2.749   4.753   7.426 -1.1967 -1.3445 -0.5582
 2950TIP3    H233046   2.884   4.746   7.358 -0.3551 -0.6544  0.9888
 2951TIP3   OH233047   0.911   6.459   8.021  0.2563  0.1664 -0.0886
 2951TIP3    H133048   0.908   6.554   8.025 -1.6985  0.2415 -1.5626
 2951TIP3    H233049   0.819   6.432   8.024  0.7510 -1.6630  0.0632
 2952TIP3   OH233050   6.852   3.795   8.134  0.0645  0.5220  0.2006
 2952TIP3    H133051   6.883   3.840   8.056 -0.5431  3.1893  1.3792
 2952TIP3    H233052   6.928   3.745   8.165 -0.2551 -2.3489 -3.1311
 2953TIP3   OH233053   2.967   2.457   9.188 -0.1764  0.5190  0.1939
 2953TIP3    H133054   2.885   2.507   9.193 -0.6449 -0.2633  0.4071
 2953TIP3    H233055   3.032   2.514   9.229 -0.5315  1.3129 -0.3229
 2954TIP3   OH233056   3.137   5.434   7.557  0.4914 -0.2222 -0.4778
 2954TIP3    H133057   3.202   5.498   7.585  0.8400 -0.0508 -1.6322
 2954TIP3    H233058   3.185   5.351   7.551  0.1600 -0.4954  0.5081
 2955TIP3   OH233059   5.914   2.810   7.296 -0.0100  0.0208 -0.0386
 2955TIP3    H133060   5.886   2.751   7.226 -0.8625  1.5057 -1.0021
 2955TIP3    H233061   5.998   2.844   7.267 -0.2998  0.5341 -0.2876
 2956TIP3   OH233062   2.935   7.095   8.104 -0.1337  0.4347 -0.0130
 2956TIP3    H133063   2.905   7.160   8.041  1.3533 -0.7031 -1.9892
 2956TIP3    H233064   3.015   7.133   8.142  0.3287  0.0900 -0.6306
 2957TIP3   OH233065   3.329   2.905   8.166  0.8238 -0.3509 -0.0765
 2957TIP3    H133066   3.236   2.925   8.154  0.5148 -1.3376  0.6226
 2957TIP3    H233067   3.357   2.870   8.081  0.7846  0.7254 -0.5542
 2958TIP3   OH233068   4.529   3.272   8.201 -0.5874  0.1644  0.1343
 2958TIP3    H133069   4.472   3.231   8.137 -0.6427  1.1944 -0.4877
 2958TIP3    H233070   4.612   3.284   8.156 -0.7673  1.3222  0.0918
 2959TIP3   OH233071   2.456   4.167   7.428 -0.7633 -0.0966 -0.4406
 2959TIP3    H133072   2.427   4.077   7.413  0.2171 -0.4617 -0.2583
 2959TIP3    H233073   2.496   4.194   7.345 -1.5476  0.3814 -0.6757
 2960TIP3   OH233074   0.957   3.833   8.397 -0.2917 -0.3442  0.0014
 2960TIP3    H133075   0.996   3.909   8.354  0.2877 -0.4277  0.3678
 2960TIP3    H233076   0.915   3.869   8.476  1.3453 -0.5815  1.0360
 2961TIP3   OH233077   2.782   5.691   7.953  0.8312  0.0371  0.0273
 2961TIP3    H133078   2.852   5.729   7.902  1.2955  0.8914  1.2614
 2961TIP3    H233079   2.811   5.601   7.970  0.4098 -0.4546 -1.6268
 2962TIP3   OH233080   3.233   4.274   8.601 -0.4449  0.6572 -0.5313
 2962TIP3    H133081   3.190   4.309   8.679 -1.2187 -0.7566 -0.2874
 2962TIP3    H233082   3.202   4.329   8.530  0.1234  1.8526  0.1087
 2963TIP3   OH233083   4.818   1.484   9.526  0.0888  0.3641 -0.2556
 2963TIP3    H133084   4.885   1.470   9.593 -1.2034  1.7295  1.4294
 2963TIP3    H233085   4.739   1.508   9.575 -1.7362 -1.3497 -2.1458
 2964TIP3   OH233086   2.134   4.568   8.167 -0.3090  0.6627 -0.1599
 2964TIP3    H133087   2.099   4.642   8.217 -0.1244  0.1568  0.7374
 2964TIP3    H233088   2.203   4.532   8.222  0.9942  1.0367 -1.4789
 2965TIP3   OH233089   5.825   1.884   8.776  0.0537 -0.0850  0.0810
 2965TIP3    H133090   5.823   1.943   8.701 -0.9828  0.8743  0.8228
 2965TIP3    H233091   5.885   1.815   8.751 -0.5434  0.0213 -1.7700
 2966TIP3   OH233092   4.720   3.082   7.268 -0.1676  0.1923  0.0895
 2966TIP3    H133093   4.731   3.173   7.294 -2.7368  0.3368  0.9295
 2966TIP3    H233094   4.653   3.084   7.200 -0.0056 -1.0499 -0.1289
 2967TIP3   OH233095   4.970   0.002   8.873  0.1251  0.2707  0.2207
 2967TIP3    H133096   4.906  -0.047   8.926  0.0378 -1.2929 -1.2534
 2967TIP3    H233097   4.916   0.056   8.815  0.1985  0.8211  0.6564
 2968TIP3   OH233098   4.612   0.463   9.429 -0.0822 -0.0325 -0.5681
 2968TIP3    H133099   4.690   0.409   9.438 -0.9953 -1.1059  1.5227
 2968TIP3    H233100   4.619   0.501   9.341  4.0171  1.9153  0.3803
 2969TIP3   OH233101   5.453   5.201   7.662 -0.2265 -0.5050  0.2005
 2969TIP3    H133102   5.402   5.267   7.616  0.4214  0.4304  0.7947
 2969TIP3    H233103   5.394   5.126   7.670 -1.4151  0.4538  0.6561
 2970TIP3   OH233104   5.303   0.123   8.559  0.1223  0.0441 -0.2099
 2970TIP3    H133105   5.247   0.045   8.568 -2.4788  1.8347  0.1833
 2970TIP3    H233106   5.364   0.117   8.632 -0.7271 -1.0848  0.4564
 2971TIP3   OH233107   7.321   4.327   8.694 -0.6060  0.5451  0.1300
 2971TIP3    H133108   7.390   4.314   8.629 -1.5664  0.1763 -0.8318
 2971TIP3    H233109   7.283   4.412   8.673 -2.0326 -0.3039 -0.8809
 2972TIP3   OH233110   7.471   1.754   7.085  0.5457  0.4826  0.4167
 2972TIP3    H133111   7.533   1.752   7.012  0.7780  2.6576  0.5134
 2972TIP3    H233112   7.397   1.700   7.056  1.8764 -1.0882 -0.2145
 2973TIP3   OH233113   5.759   0.758   7.545 -0.3380 -0.0599 -0.3305
 2973TIP3    H133114   5.742   0.846   7.512 -0.0567 -0.0250 -0.3846
 2973TIP3    H233115   5.787   0.709   7.468 -1.3456 -0.4262 -0.4684
 2974TIP3   OH233116   3.317   2.900   8.780 -0.4768 -0.0343  0.1952
 2974TIP3    H133117   3.372   2.910   8.702  0.9099 -0.6174  1.0391
 2974TIP3    H233118   3.302   2.805   8.786 -1.0205  0.0618  0.3366
 2975TIP3   OH233119   4.287   3.240   7.590  0.1350 -0.4018  0.3780
 2975TIP3    H133120   4.326   3.185   7.521  0.0673  0.2181 -0.1631
 2975TIP3    H233121   4.348   3.312   7.601 -1.6746  1.6499 -1.8517
 2976TIP3   OH233122   4.847   4.320   8.992 -0.1854  0.2685 -0.2357
 2976TIP3    H133123   4.909   4.354   8.927  0.5343 -0.7458 -0.1011
 2976TIP3    H233124   4.761   4.350   8.962  0.1636  0.0255 -1.5142
 2977TIP3   OH233125   1.981   5.191   8.384  0.9775 -0.2810  0.2946
 2977TIP3    H133126   1.942   5.109   8.415 -1.5863  0.3479 -0.9492
 2977TIP3    H233127   1.983   5.182   8.288 -0.9202  1.6303 -0.0191
 2978TIP3   OH233128   6.903   6.174   9.158 -0.2806 -0.0041 -0.7852
 2978TIP3    H133129   6.891   6.234   9.231 -0.3422 -1.7749  0.7443
 2978TIP3    H233130   6.847   6.208   9.089  0.5404  2.2872 -0.3982
 2979TIP3   OH233131   3.032   0.348   7.516 -0.4271  0.3863 -0.4209
 2979TIP3    H133132   3.126   0.348   7.534 -0.7503  0.0674  1.4293
 2979TIP3    H233133   3.024   0.305   7.430  1.1159  0.6781 -0.7431
 2980TIP3   OH233134   1.322   6.742   8.163 -0.1465 -0.1901 -0.0795
 2980TIP3    H133135   1.231   6.748   8.193 -0.2433 -0.4301 -0.3170
 2980TIP3    H233136   1.370   6.803   8.219 -0.1703 -1.2305  1.1335
 2981TIP3   OH233137   5.812   4.950   7.195  0.4744 -0.3001 -0.0821
 2981TIP3    H133138   5.762   5.011   7.250  0.6337 -0.5801  0.3784
 2981TIP3    H233139   5.797   4.981   7.106 -1.5079 -1.0888 -0.0729
 2982TIP3   OH233140   0.813   0.853   7.802  0.2861 -0.1036  0.0484
 2982TIP3    H133141   0.867   0.856   7.882  0.0729 -3.0778  0.4238
 2982TIP3    H233142   0.869   0.811   7.737 -1.0471 -2.1047  0.0869
 2983TIP3   OH233143   6.213   3.059   9.305  0.2859 -0.3458  0.4101
 2983TIP3    H133144   6.257   2.990   9.356  1.0005 -0.7566 -0.7097
 2983TIP3    H233145   6.125   3.026   9.291  0.5979 -1.0251 -0.0462
 2984TIP3   OH233146   2.032   5.264   9.093  0.0572  0.6915 -0.1062
 2984TIP3    H133147   2.001   5.346   9.056  1.8417  1.3787 -0.1781
 2984TIP3    H233148   2.123   5.256   9.064 -0.4980 -2.1431 -1.4485
 2985TIP3   OH233149   1.958   4.385   7.434 -0.1125  0.5584 -0.2696
 2985TIP3    H133150   1.968   4.479   7.420  0.0810  0.5582 -0.1335
 2985TIP3    H233151   1.877   4.377   7.485 -0.5183  0.5981 -0.8945
 2986TIP3   OH233152   2.344   0.977   7.165  0.1868 -0.1335 -0.5189
 2986TIP3    H133153   2.352   1.067   7.135  0.7370  0.0052  0.0031
 2986TIP3    H233154   2.281   0.936   7.106 -0.8061  0.8492 -0.1626
 2987TIP3   OH233155   0.952   5.866   8.419  0.3009 -0.4183 -0.0666
 2987TIP3    H133156   0.858   5.872   8.434  0.4006 -0.9599  0.8792
 2987TIP3    H233157   0.989   5.846   8.506  1.6010  2.5867  0.1955
 2988TIP3   OH233158   6.411   7.048   8.554 -0.0165  0.0176 -0.3923
 2988TIP3    H133159   6.372   7.131   8.579 -0.6900 -0.1624 -0.8209
 2988TIP3    H233160   6.407   6.995   8.634  0.9171  0.5777  0.0294
 2989TIP3   OH233161   3.145   4.647   8.583 -0.5793 -0.4745  0.1834
 2989TIP3    H133162   3.083   4.709   8.623 -0.8638  0.7738 -2.0220
 2989TIP3    H233163   3.210   4.703   8.540  0.4652 -1.7537  0.0527
 2990TIP3   OH233164   6.139   0.476   8.106 -0.0857  0.0759 -0.2166
 2990TIP3    H133165   6.060   0.507   8.063 -0.2538 -1.1317 -0.8027
 2990TIP3    H233166   6.108   0.434   8.186  0.2778  3.0412  1.6389
 2991TIP3   OH233167   1.348   0.702   7.648  0.2475  0.0219 -0.0813
 2991TIP3    H133168   1.347   0.607   7.650  0.4464  0.0309  1.0792
 2991TIP3    H233169   1.434   0.725   7.612 -0.0322 -0.2274 -0.9300
 2992TIP3   OH233170   0.776   3.672   8.210  0.1480  0.4857 -0.3266
 2992TIP3    H133171   0.793   3.717   8.127 -0.0598  1.2501  0.0354
 2992TIP3    H233172   0.828   3.720   8.275  0.7853 -0.4773 -0.1017
 2993TIP3   OH233173   0.445   5.414   7.945 -0.0857  0.4624 -0.3424
 2993TIP3    H133174   0.359   5.390   7.980  0.9187 -2.7119  0.2888
 2993TIP3    H233175   0.484   5.468   8.014 -0.3752 -0.8101  0.8699
 2994TIP3   OH233176   5.977   5.689   9.534 -0.0622 -0.1010 -0.3229
 2994TIP3    H133177   6.001   5.708   9.443 -1.1646 -2.6839 -1.2680
 2994TIP3    H233178   5.935   5.769   9.565  1.1625  1.1619 -1.7481
 2995TIP3   OH233179   2.801   0.000   9.146 -0.0010  0.4760  0.1046
 2995TIP3    H133180   2.726  -0.038   9.192  1.3793 -2.1621  0.3634
 2995TIP3    H233181   2.789  -0.027   9.055 -0.2860  1.6591 -0.2296
 2996TIP3   OH233182   5.685   4.647   8.521  0.7599  0.1762  0.0475
 2996TIP3    H133183   5.697   4.622   8.430  0.0032 -0.5826  0.1414
 2996TIP3    H233184   5.590   4.644   8.534  0.9266 -0.8744  1.1697
 2997TIP3   OH233185   2.361   4.900   8.663  0.0987 -0.0171  0.8415
 2997TIP3    H133186   2.305   4.978   8.662  1.0711  0.7077  1.3217
 2997TIP3    H233187   2.338   4.852   8.583  0.6222  1.5798 -0.3047
 2998TIP3   OH233188   0.292   5.904   9.486  0.3721  0.1890  0.8246
 2998TIP3    H133189   0.303   5.853   9.566  1.1623 -0.3029  0.4241
 2998TIP3    H233190   0.218   5.863   9.441  1.2217 -0.8837  0.3341
 2999TIP3   OH233191   2.948   4.269   7.649 -0.9683  0.2205 -0.0507
 2999TIP3    H133192   2.908   4.187   7.678  0.4100 -0.5684 -0.3401
 2999TIP3    H233193   2.875   4.320   7.613 -2.0909 -0.2560  1.4512
 3000TIP3   OH233194   6.199   1.260   6.389 -0.0642 -0.7207  0.1873
 3000TIP3    H133195   6.151   1.214   6.458 -3.8007  1.8246 -0.4014
 3000TIP3    H233196   6.174   1.216   6.308 -0.2714 -0.2454 -0.0098
 3001TIP3   OH233197   1.905   5.013   7.287  0.8993  0.1007 -0.4661
 3001TIP3    H133198   1.902   4.973   7.200  0.7151 -0.7395 -0.0786
 3001TIP3    H233199   1.827   4.981   7.331  1.5807 -0.4034  0.4088
 3002TIP3   OH233200   3.703   0.288   8.645 -0.5464 -0.0132  0.2261
 3002TIP3    H133201   3.663   0.216   8.597  0.0820  0.8673 -1.7348
 3002TIP3    H233202   3.797   0.274   8.634 -0.4082  0.6768  0.4837
 3003TIP3   OH233203   4.668   4.958   7.035 -0.1559 -0.1696 -0.2655
 3003TIP3    H133204   4.704   5.020   6.972 -0.9712 -0.3172 -0.8786
 3003TIP3    H233205   4.692   4.995   7.120 -0.2859  0.7823 -0.6270
 3004TIP3   OH233206   3.995   0.655   8.251 -0.1790 -0.5333 -0.0502
 3004TIP3    H133207   4.066   0.653   8.187 -0.0007  0.6001  0.0896
 3004TIP3    H233208   4.039   0.660   8.335 -0.4084  0.5864  0.0178
 3005TIP3   OH233209   5.843   0.263   7.689  0.0631  0.0855 -0.5207
 3005TIP3    H133210   5.904   0.271   7.763 -1.2981 -0.7386  0.7545
 3005TIP3    H233211   5.880   0.320   7.622  1.2746  1.0084  0.8474
 3006TIP3   OH233212   6.858   0.321   7.293 -0.4127  0.0240  0.9602
 3006TIP3    H133213   6.879   0.229   7.305 -1.6659 -0.1991  1.6062
 3006TIP3    H233214   6.869   0.336   7.199 -0.1400 -0.7595  0.8636
 3007TIP3   OH233215   6.069   3.736   8.147 -0.1853 -0.3505 -0.4529
 3007TIP3    H133216   6.116   3.718   8.228 -0.1966  0.4692 -0.2543
 3007TIP3    H233217   6.023   3.818   8.164  1.2224  0.7992 -1.8571
 3008TIP3   OH233218   6.544   7.028   9.211 -0.0023  0.0360 -0.6188
 3008TIP3    H133219   6.637   7.013   9.231  0.0811 -0.4679 -1.3620
 3008TIP3    H233220   6.544   7.089   9.138 -0.1890 -1.3505 -1.8256
 3009TIP3   OH233221   0.751   2.014   9.497 -0.2918 -0.0131 -0.1975
 3009TIP3    H133222   0.716   2.089   9.449  1.2967  1.0778  0.2715
 3009TIP3    H233223   0.702   2.013   9.579 -0.2061  0.6222 -0.1345
 3010TIP3   OH233224   7.400   2.540   8.882  0.8661  0.1207  0.2040
 3010TIP3    H133225   7.426   2.498   8.800 -3.5282 -0.0581 -1.3850
 3010TIP3    H233226   7.396   2.634   8.860  1.3320  0.2891  0.8011
 3011TIP3   OH233227   2.130   3.080   9.323 -1.1726  0.9730  0.3736
 3011TIP3    H133228   2.091   3.120   9.245 -0.6552  1.2449  0.2559
 3011TIP3    H233229   2.068   3.011   9.347  0.1435 -1.2732 -2.1401
 3012TIP3   OH233230   3.253   0.865   7.821 -0.5373  0.4830 -0.6282
 3012TIP3    H133231   3.164   0.876   7.787 -0.9556 -1.3337 -0.2215
 3012TIP3    H233232   3.304   0.838   7.744 -0.3200  1.4973 -0.8555
 3013TIP3   OH233233   7.049   0.610   8.670 -0.3027  0.2219 -0.4475
 3013TIP3    H133234   7.011   0.554   8.602 -4.0765  0.8716  0.8782
 3013TIP3    H233235   7.046   0.557   8.750 -0.6753  1.1436  0.1631
 3014TIP3   OH233236   4.867   2.826   9.303  0.1886  0.5389  0.2807
 3014TIP3    H133237   4.918   2.783   9.372 -1.0749  0.7150  1.3688
 3014TIP3    H233238   4.903   2.915   9.298 -0.1756  0.7617  1.2624
 3015TIP3   OH233239   2.835   6.093   7.590  0.1926 -0.0461 -0.2609
 3015TIP3    H133240   2.810   6.160   7.653  0.0468 -0.4034  0.0653
 3015TIP3    H233241   2.929   6.085   7.599  0.6541  2.0103 -2.1843
 3016TIP3   OH233242   1.889   1.568   8.517 -0.5096  1.0916  0.7926
 3016TIP3    H133243   1.911   1.559   8.424  2.4008  0.3027  1.4707
 3016TIP3    H233244   1.963   1.613   8.556 -1.1880  0.4802  2.9355
 3017TIP3   OH233245   6.727   3.834   7.848  0.1055  0.2525 -0.3306
 3017TIP3    H133246   6.731   3.797   7.760  0.7996 -0.2191 -0.1130
 3017TIP3    H233247   6.741   3.928   7.835 -1.2479  0.4011 -0.8457
 3018TIP3   OH233248   0.528   7.266   6.850 -0.0994 -0.2132  0.1708
 3018TIP3    H133249   0.506   7.251   6.758 -0.6360  0.1894  0.2310
 3018TIP3    H233250   0.470   7.338   6.878  2.6424  2.3217 -0.2083
 3019TIP3   OH233251   3.905   0.583   6.987  0.5365 -0.3453  0.2855
 3019TIP3    H133252   3.859   0.585   6.903 -0.4538 -1.3677  0.7798
 3019TIP3    H233253   3.839   0.607   7.052  0.5143 -2.2871  1.0625
 3020TIP3   OH233254   2.354   5.474   7.880  0.2162  0.0931  0.4118
 3020TIP3    H133255   2.303   5.399   7.912 -0.1823  0.8278  1.5889
 3020TIP3    H233256   2.444   5.441   7.876 -0.1322 -0.8193 -0.3528
 3021TIP3   OH233257   1.859   0.765   8.503  0.1001 -0.2238 -0.1501
 3021TIP3    H133258   1.808   0.801   8.575 -0.6493  1.4582 -1.4379
 3021TIP3    H233259   1.919   0.835   8.479 -0.0370 -0.5378 -1.4836
 3022TIP3   OH233260   0.772   1.854   8.228 -0.2102  0.3185 -0.1992
 3022TIP3    H133261   0.743   1.841   8.138  0.9071  1.0225 -0.6861
 3022TIP3    H233262   0.862   1.822   8.229 -0.6243 -0.8902  1.0186
 3023TIP3   OH233263   4.906   2.208   8.799  0.3168  0.3543 -0.2881
 3023TIP3    H133264   4.814   2.218   8.820  0.1668 -1.2429 -0.0293
 3023TIP3    H233265   4.911   2.122   8.756  1.7919  0.0442  0.4498
 3024TIP3   OH233266   6.658   0.512   8.411 -0.1029  0.4445 -0.5001
 3024TIP3    H133267   6.684   0.604   8.424  0.7232 -0.0332  1.5257
 3024TIP3    H233268   6.576   0.518   8.363 -0.6241  2.3178  0.5035
 3025TIP3   OH233269   2.949   7.449   8.879  0.2518  0.0063  0.5970
 3025TIP3    H133270   2.969   7.400   8.959 -0.7426 -0.9209  0.3042
 3025TIP3    H233271   2.900   7.387   8.824 -0.5702  1.1528 -0.0119
 3026TIP3   OH233272   5.289   3.381   7.300 -0.1435  0.2321  0.2053
 3026TIP3    H133273   5.215   3.390   7.240 -0.3217 -0.7559  0.2708
 3026TIP3    H233274   5.309   3.471   7.326 -2.0675  0.4634  1.1032
 3027TIP3   OH233275   3.853   1.175   8.522  0.3800 -0.0386 -0.1201
 3027TIP3    H133276   3.905   1.096   8.533  0.7577  0.0028 -1.4978
 3027TIP3    H233277   3.768   1.153   8.562  0.6401 -0.9621 -0.0490
 3028TIP3   OH233278   5.970   7.037   7.925 -0.2286 -0.6474  0.3678
 3028TIP3    H133279   5.911   7.067   7.994 -0.0177 -0.5781  0.5192
 3028TIP3    H233280   6.055   7.073   7.950 -0.2367 -0.2354 -0.1715
 3029TIP3   OH233281   4.261   6.818   9.643  0.2802  0.3337 -0.5786
 3029TIP3    H133282   4.254   6.886   9.710 -2.3921  2.5221 -2.8870
 3029TIP3    H233283   4.292   6.863   9.565 -0.7718 -1.2450 -1.9832
 3030TIP3   OH233284   6.096   5.106   9.099  0.5298  0.0296 -0.0958
 3030TIP3    H133285   6.053   5.118   9.015 -0.2040  0.8655  0.3795
 3030TIP3    H233286   6.128   5.194   9.122 -1.3543  0.3554  1.5745
 3031TIP3   OH233287   5.927   3.410   8.158 -0.3381 -0.7470  0.1170
 3031TIP3    H133288   5.856   3.407   8.094 -0.8467 -1.8286  0.7102
 3031TIP3    H233289   5.913   3.492   8.206 -0.5872 -0.4663 -0.4291
 3032TIP3   OH233290   1.402   6.502   8.318  0.1618  0.8399  0.1487
 3032TIP3    H133291   1.332   6.437   8.317  1.1763 -0.2931  0.8107
 3032TIP3    H233292   1.375   6.566   8.252 -1.3168  0.2603  0.1391
 3033TIP3   OH233293   3.581   2.225   8.487  0.4463 -0.3721 -0.0799
 3033TIP3    H133294   3.640   2.236   8.561  0.5424 -0.4359 -0.1471
 3033TIP3    H233295   3.507   2.282   8.507  0.9670  0.4582 -0.4542
 3034TIP3   OH233296   0.828   5.192   9.209  0.2540  0.3401 -0.6923
 3034TIP3    H133297   0.841   5.186   9.303 -0.2317 -0.9208 -0.6879
 3034TIP3    H233298   0.823   5.286   9.191  0.9595  0.6113  0.4400
 3035TIP3   OH233299   1.939   2.863   7.574  0.1920  0.1146  0.0402
 3035TIP3    H133300   1.928   2.927   7.645 -0.2990  0.5448 -0.4093
 3035TIP3    H233301   2.033   2.850   7.567  0.3349  1.1341 -0.1467
 3036TIP3   OH233302   3.591   1.660   7.878 -0.1946 -0.9251 -0.6493
 3036TIP3    H133303   3.541   1.741   7.873  0.2456 -0.6378 -0.5555
 3036TIP3    H233304   3.532   1.597   7.919  0.8024  0.5340  3.6193
 3037TIP3   OH233305   4.643   1.884   7.862  0.1471  0.1101  0.0502
 3037TIP3    H133306   4.572   1.830   7.826 -0.6377  0.5324  0.9390
 3037TIP3    H233307   4.614   1.974   7.850 -0.0320  0.2728  1.4864
 3038TIP3   OH233308   2.829   6.553   8.402 -0.3538  0.1703 -0.0135
 3038TIP3    H133309   2.831   6.473   8.453 -0.5813  0.3219  0.2395
 3038TIP3    H233310   2.809   6.622   8.466 -0.7427  0.3476 -0.3220
 3039TIP3   OH233311   5.621   6.794   9.230 -0.3477  0.0922 -0.2917
 3039TIP3    H133312   5.705   6.758   9.201 -1.9382 -2.8408 -1.6310
 3039TIP3    H233313   5.586   6.840   9.154 -0.5429  0.1551 -0.1667
 3040TIP3   OH233314   4.835   1.804   8.465  0.5036  0.3016  0.2703
 3040TIP3    H133315   4.883   1.757   8.534 -0.0009 -0.3996  0.1485
 3040TIP3    H233316   4.768   1.743   8.436  0.4387  0.7525 -0.5570
 3041TIP3   OH233317   7.135   5.129   6.756 -0.2406  0.2571  0.1510
 3041TIP3    H133318   7.180   5.204   6.718 -0.8386  0.7924  0.4724
 3041TIP3    H233319   7.179   5.113   6.839  0.5101 -0.3673 -0.3565
 3042TIP3   OH233320   5.872   1.122   8.557  0.3558 -0.2613 -0.1529
 3042TIP3    H133321   5.937   1.110   8.626 -0.3519  0.8336  0.7602
 3042TIP3    H233322   5.798   1.163   8.602 -0.3357 -0.0092 -1.4722
 3043TIP3   OH233323   5.713   1.561   8.152 -0.0919  0.0335  0.2050
 3043TIP3    H133324   5.729   1.563   8.058  0.0166 -1.4027  0.1598
 3043TIP3    H233325   5.619   1.545   8.161 -0.1621  0.5109  0.3510
 3044TIP3   OH233326   0.042   2.296   8.004 -0.3115  0.0560  0.5804
 3044TIP3    H133327   0.024   2.359   7.934  0.5623  1.0353  1.2197
 3044TIP3    H233328  -0.045   2.270   8.035 -0.7029 -0.1669 -0.6630
 3045TIP3   OH233329   4.643   3.053   9.549  0.4411  0.4014  0.7257
 3045TIP3    H133330   4.573   3.063   9.614 -0.0786  1.0961  0.0819
 3045TIP3    H233331   4.609   2.987   9.488 -0.8939  2.5929 -1.0931
 3046TIP3   OH233332   5.842   4.832   9.223 -0.0066 -0.3171  0.7305
 3046TIP3    H133333   5.771   4.807   9.282  0.2057 -1.8553  0.3567
 3046TIP3    H233334   5.854   4.757   9.166  0.9035  0.5158 -0.2157
 3047TIP3   OH233335   1.175   2.824   7.058 -0.0641 -0.1678 -0.3295
 3047TIP3    H133336   1.190   2.798   7.149  0.1764 -1.9232 -0.8256
 3047TIP3    H233337   1.080   2.825   7.048 -0.1267  1.3011  0.2574
 3048TIP3   OH233338   2.991   4.864   8.729  0.2240  0.3105 -0.6306
 3048TIP3    H133339   2.940   4.852   8.809 -0.5251  0.2669 -1.1131
 3048TIP3    H233340   2.952   4.941   8.687  1.5242  1.2077 -0.2584
 3049TIP3   OH233341   0.530   0.810   8.409 -0.0528  0.4836  0.2555
 3049TIP3    H133342   0.497   0.775   8.326  2.0581 -0.8132 -0.0866
 3049TIP3    H233343   0.516   0.740   8.472  2.4867 -0.3743 -0.0317
 3050TIP3   OH233344   7.200   3.051   9.410  0.0269 -0.2928  0.8748
 3050TIP3    H133345   7.133   3.117   9.391 -0.0241 -0.4455  0.5078
 3050TIP3    H233346   7.281   3.089   9.377  0.2326  0.1461  1.8530
 3051TIP3   OH233347   1.034   1.983   9.209 -0.0736  0.2734  0.0709
 3051TIP3    H133348   0.977   2.047   9.252 -0.5294 -1.1550  1.6693
 3051TIP3    H233349   1.069   1.929   9.280  0.5312 -1.0894 -1.1996
 3052TIP3   OH233350   2.887   5.564   7.520 -0.4872 -0.2159  0.2652
 3052TIP3    H133351   2.977   5.535   7.538 -0.4439  0.8987  2.1482
 3052TIP3    H233352   2.897   5.655   7.492 -1.0092 -0.1385  0.3275
 3053TIP3   OH233353   0.338   3.210   8.377 -0.2908 -0.0831  0.3198
 3053TIP3    H133354   0.351   3.180   8.467 -0.8596 -0.9028  0.1353
 3053TIP3    H233355   0.395   3.154   8.324 -0.7486 -0.3182  0.0636
 3054TIP3   OH233356   6.180   2.284   8.170 -0.5189 -0.0691  0.7371
 3054TIP3    H133357   6.219   2.323   8.091  0.9019 -0.0220  1.4399
 3054TIP3    H233358   6.115   2.223   8.136  2.4208 -2.7100 -0.6848
 3055TIP3   OH233359   1.234   4.130   8.734 -0.0193 -0.6917 -0.0148
 3055TIP3    H133360   1.195   4.103   8.817  0.6855 -0.1344  0.5137
 3055TIP3    H233361   1.224   4.054   8.677  0.4902 -1.4917  0.9295
 3056TIP3   OH233362   1.456   1.370   8.934 -0.0068  0.5270  0.2678
 3056TIP3    H133363   1.545   1.360   8.902 -0.5853 -2.3253 -0.7789
 3056TIP3    H233364   1.400   1.350   8.859 -1.4925  0.2606  1.3788
 3057TIP3   OH233365   4.567   2.274   8.498 -0.2655 -0.7402  0.6879
 3057TIP3    H133366   4.517   2.302   8.422 -3.2476 -2.7212  1.7154
 3057TIP3    H233367   4.653   2.314   8.487 -1.7454  2.1796 -1.7172
 3058TIP3   OH233368   5.565   5.953   6.977  0.4399 -0.3416  0.2115
 3058TIP3    H133369   5.561   5.875   6.922  1.5393 -0.1607 -0.1392
 3058TIP3    H233370   5.655   5.985   6.968  0.1818  0.6106  0.8430
 3059TIP3   OH233371   2.570   0.632   6.956  0.3308 -0.2680 -0.0874
 3059TIP3    H133372   2.568   0.727   6.948 -1.0461 -0.3500 -0.9547
 3059TIP3    H233373   2.660   0.608   6.932  0.6851  0.8054  0.1370
 3060TIP3   OH233374   5.266   1.322   9.272 -0.1637  0.4785  0.0727
 3060TIP3    H133375   5.245   1.388   9.338  0.3089  0.1820  0.5318
 3060TIP3    H233376   5.356   1.342   9.245  0.0552 -0.0906  0.3636
 3061TIP3   OH233377   2.724   7.297   8.376  0.4388  0.6812  0.4004
 3061TIP3    H133378   2.632   7.293   8.351  0.0435 -0.8177  1.9283
 3061TIP3    H233379   2.731   7.373   8.433  0.2361  0.9958  0.0127
 3062TIP3   OH233380   7.649   6.622   6.742  0.0447  0.4837 -0.3592
 3062TIP3    H133381   7.721   6.676   6.709 -0.8340  1.7493 -0.2931
 3062TIP3    H233382   7.687   6.535   6.752  1.4618  1.0313 -0.6726
 3063TIP3   OH233383   0.318   3.932   7.973 -0.2355 -0.4047  0.7173
 3063TIP3    H133384   0.263   3.878   7.917  0.7556 -0.8658  0.1604
 3063TIP3    H233385   0.279   3.924   8.060 -0.7234 -1.1564  0.4354
 3064TIP3   OH233386   6.864   1.053   7.860 -0.6222 -0.2461 -0.3909
 3064TIP3    H133387   6.889   1.081   7.948 -1.9387  1.5515 -0.5235
 3064TIP3    H233388   6.892   0.962   7.854  1.6543  0.2787  1.0289
 3065TIP3   OH233389   1.669   2.211   7.996  0.0425 -0.2772  0.1663
 3065TIP3    H133390   1.681   2.119   8.017  2.7902  0.4329  2.1845
 3065TIP3    H233391   1.715   2.223   7.913  0.2431 -0.6049  0.2300
 3066TIP3   OH233392   6.489   2.202   8.857  0.1721 -0.5898  0.1043
 3066TIP3    H133393   6.415   2.250   8.891  0.1846  0.2469 -0.9835
 3066TIP3    H233394   6.467   2.186   8.765  1.6334  0.3434 -0.4477
 3067TIP3   OH233395   4.927   1.362   7.957 -0.6619  0.5976 -0.0199
 3067TIP3    H133396   4.978   1.415   7.895  0.6086  1.5007  1.7336
 3067TIP3    H233397   4.839   1.362   7.921  0.1441  0.5308 -2.1776
 3068TIP3   OH233398   1.033   2.484   8.600  0.5723  0.1057 -0.6040
 3068TIP3    H133399   1.119   2.475   8.641 -0.8691 -0.0925  2.6154
 3068TIP3    H233400   1.021   2.401   8.553  0.9687 -1.1702  1.4261
 3069TIP3   OH233401   2.597   6.595   9.190  0.0664  0.0554  0.5675
 3069TIP3    H133402   2.657   6.568   9.120  0.3674 -1.6488  1.4178
 3069TIP3    H233403   2.636   6.675   9.225  1.6433 -0.7609  0.8075
 3070TIP3   OH233404   5.145   6.497   8.156  0.1980  0.4581  0.4859
 3070TIP3    H133405   5.208   6.567   8.178  2.1806 -0.0448 -2.9085
 3070TIP3    H233406   5.075   6.542   8.110  0.1619  0.5239  0.6045
 3071TIP3   OH233407   1.265   6.494   7.972  0.4869 -0.1837  0.3596
 3071TIP3    H133408   1.358   6.472   7.974  0.4340 -0.6213 -1.0162
 3071TIP3    H233409   1.261   6.586   7.997  1.3563  0.0224 -0.2229
 3072TIP3   OH233410   2.360   4.285   7.161  0.3336 -0.1434 -0.2909
 3072TIP3    H133411   2.372   4.366   7.112  0.6810  0.0613  0.1298
 3072TIP3    H233412   2.416   4.221   7.116  0.3770 -0.0489 -0.3712
 3073TIP3   OH233413   4.204   6.640   8.159 -0.1298 -0.0061 -0.0639
 3073TIP3    H133414   4.196   6.692   8.080  1.7870  0.3179 -0.0858
 3073TIP3    H233415   4.293   6.655   8.190 -0.6793 -0.4428  1.9416
 3074TIP3   OH233416   1.183   3.817   7.409  0.6026  0.0375  0.3557
 3074TIP3    H133417   1.128   3.896   7.409 -1.8382 -1.5785  1.0111
 3074TIP3    H233418   1.246   3.833   7.480 -0.8745  0.7806  1.5814
 3075TIP3   OH233419   6.615   3.427   7.894  0.2566  0.2944 -0.4983
 3075TIP3    H133420   6.576   3.476   7.822  0.2233  0.5574 -0.3009
 3075TIP3    H233421   6.573   3.461   7.973  1.0209  0.7358 -0.2601
 3076TIP3   OH233422   5.834   7.198   8.106 -0.4614 -0.4504  0.3401
 3076TIP3    H133423   5.740   7.216   8.098 -0.3223  0.5924  0.8567
 3076TIP3    H233424   5.874   7.284   8.119  0.7799 -0.6657 -1.5657
 3077TIP3   OH233425   2.074   3.249   8.787  0.0591 -0.2098  0.3742
 3077TIP3    H133426   1.982   3.224   8.793  0.0687 -0.1224  0.9665
 3077TIP3    H233427   2.073   3.344   8.779  0.1147 -0.1346  1.1586
 3078TIP3   OH233428   6.958   1.562   9.089 -0.6724  0.1095 -0.1225
 3078TIP3    H133429   6.962   1.469   9.110 -1.5659 -0.0356 -0.5613
 3078TIP3    H233430   6.871   1.590   9.119 -0.1163  0.9993  0.7553
 3079TIP3   OH233431   6.024   3.141   7.378  0.6625  0.1240  0.6960
 3079TIP3    H133432   6.057   3.210   7.321  1.6642 -1.7029 -1.0646
 3079TIP3    H233433   6.070   3.153   7.461  0.6104  1.6911  0.5178
 3080TIP3   OH233434   5.202   4.629   9.627 -0.1648 -0.3464 -0.6106
 3080TIP3    H133435   5.289   4.618   9.589 -0.1306 -0.3498 -0.5308
 3080TIP3    H233436   5.210   4.706   9.684  0.8065 -2.5702  2.4516
 3081TIP3   OH233437   1.686   1.199   9.174  0.2227 -0.2223  0.1891
 3081TIP3    H133438   1.747   1.234   9.109 -0.4530  1.6261  0.4701
 3081TIP3    H233439   1.622   1.149   9.123  0.6010 -0.1388 -0.3789
 3082TIP3   OH233440   0.331   7.215   8.904  0.2617 -0.5384  0.2792
 3082TIP3    H133441   0.355   7.300   8.867  1.0562  0.4781  2.9474
 3082TIP3    H233442   0.235   7.216   8.906  0.2636  0.3594  0.4241
 3083TIP3   OH233443   1.449   4.091   8.986 -0.5891 -0.2100  0.3074
 3083TIP3    H133444   1.541   4.065   8.980 -0.5825  0.1631 -2.2860
 3083TIP3    H233445   1.451   4.176   9.030  0.2047 -0.5625  0.9817
 3084TIP3   OH233446   0.891   3.697   7.894  0.6759  0.1253  0.8814
 3084TIP3    H133447   0.959   3.668   7.835 -0.9556  1.0148 -1.5971
 3084TIP3    H233448   0.913   3.788   7.914  2.3302 -0.7351  3.4564
 3085TIP3   OH233449   0.781   0.363   7.375  0.1188 -0.4781 -0.4132
 3085TIP3    H133450   0.782   0.414   7.294 -0.2103  0.9344  0.4400
 3085TIP3    H233451   0.867   0.322   7.378  0.5654  0.3768 -0.9262
 3086TIP3   OH233452   0.840   7.091   9.197  0.5194  0.2926 -0.1265
 3086TIP3    H133453   0.749   7.118   9.191  0.8214  1.3705  0.0365
 3086TIP3    H233454   0.853   7.035   9.121 -1.0871 -2.4224  1.4098
 3087TIP3   OH233455   6.021   4.005   9.291  0.0367  0.1440  0.3240
 3087TIP3    H133456   5.990   3.948   9.361 -0.7081  0.1137 -0.0224
 3087TIP3    H233457   5.942   4.035   9.247  0.4829  0.3690 -0.3456
 3088TIP3   OH233458   1.029   6.010   9.409 -0.2194  0.0556 -0.0782
 3088TIP3    H133459   1.021   6.084   9.468  0.0376 -0.1619  0.2292
 3088TIP3    H233460   1.107   6.030   9.356 -0.4610  0.2599 -0.3624
 3089TIP3   OH233461   7.493   1.742   8.208  0.1839  0.2256 -0.1154
 3089TIP3    H133462   7.480   1.806   8.278  0.8430 -0.0201  0.2452
 3089TIP3    H233463   7.454   1.783   8.131  0.6853  1.1114  0.0804
 3090TIP3   OH233464   2.897   5.452   8.051 -0.0200 -0.4032  0.1509
 3090TIP3    H133465   2.911   5.396   7.975 -1.7929 -0.2989 -0.2829
 3090TIP3    H233466   2.887   5.391   8.125  1.4823 -0.5089  0.3071
 3091TIP3   OH233467   1.642   6.527   8.857  0.6418  0.3790 -0.0874
 3091TIP3    H133468   1.734   6.511   8.838  0.3540 -0.3128 -0.9810
 3091TIP3    H233469   1.616   6.451   8.910  1.3587  2.1329  3.0341
 3092TIP3   OH233470   7.164   2.784   7.977 -0.0043  0.2435  0.2401
 3092TIP3    H133471   7.113   2.827   7.909  1.0699 -0.8172 -1.2996
 3092TIP3    H233472   7.242   2.752   7.932  0.3038 -1.3119  1.7764
 3093TIP3   OH233473   4.653   0.539   8.393  0.0978  0.4387  0.4996
 3093TIP3    H133474   4.693   0.567   8.475 -0.5067 -1.1901  1.3957
 3093TIP3    H233475   4.654   0.617   8.337  0.0908  1.7056  2.2149
 3094TIP3   OH233476   3.683   3.512   7.626  0.2018 -0.2264  0.1315
 3094TIP3    H133477   3.622   3.546   7.692  0.2515 -2.0384  1.1611
 3094TIP3    H233478   3.632   3.511   7.545 -1.6976 -2.9603  1.2169
 3095TIP3   OH233479   6.473   3.173   7.099 -0.1213  0.0498 -0.0634
 3095TIP3    H133480   6.417   3.186   7.022 -0.4776  1.7573  0.4451
 3095TIP3    H233481   6.562   3.184   7.066 -0.1637 -0.8975 -0.5335
 3096TIP3   OH233482   4.069   7.182   8.275  1.0555 -0.2374  0.3432
 3096TIP3    H133483   3.989   7.142   8.310  0.6502  1.3208  1.2976
 3096TIP3    H233484   4.133   7.111   8.275 -0.2104 -1.4445 -0.1431
 3097TIP3   OH233485   2.900   0.884   8.445 -0.1640 -0.5269  0.1865
 3097TIP3    H133486   2.941   0.919   8.524  0.0054 -0.4736  0.0758
 3097TIP3    H233487   2.943   0.799   8.431  1.9616  0.7207 -1.4996
 3098TIP3   OH233488   4.980   2.472   9.338 -0.7586 -0.2368 -0.1647
 3098TIP3    H133489   4.986   2.504   9.248 -0.9148 -0.3159 -0.2030
 3098TIP3    H233490   4.993   2.550   9.392 -2.2819  0.1031 -0.2623
 3099TIP3   OH233491   0.567   3.969   8.545  0.0440  0.3594 -0.0554
 3099TIP3    H133492   0.599   3.989   8.633 -1.0518  1.3264  0.1456
 3099TIP3    H233493   0.505   3.897   8.558  0.8565 -0.3881 -0.2271
 3100TIP3   OH233494   0.149   5.762   6.575  0.4322  0.0123 -0.2769
 3100TIP3    H133495   0.111   5.675   6.589  1.5612 -0.2051  1.7607
 3100TIP3    H233496   0.244   5.748   6.580  0.6206  1.6437  2.2782
 3101TIP3   OH233497   0.624   0.105   8.139  0.1583 -0.1422  0.0077
 3101TIP3    H133498   0.603   0.107   8.045 -0.3375 -0.5305  0.1064
 3101TIP3    H233499   0.608   0.015   8.165  1.7038 -0.4003  0.1608
 3102TIP3   OH233500   6.912   4.676   9.293 -0.1246 -0.0652 -0.7654
 3102TIP3    H133501   6.939   4.584   9.286  0.3785 -0.0056  0.1730
 3102TIP3    H233502   6.979   4.716   9.348 -0.4986  0.8022 -0.9294
 3103TIP3   OH233503   6.753   1.699   8.581  0.8513 -0.2897  0.5036
 3103TIP3    H133504   6.702   1.636   8.632 -1.0423 -0.0251 -0.9764
 3103TIP3    H233505   6.729   1.784   8.615  0.7880 -0.1903  0.2128
 3104TIP3   OH233506   5.834   2.249   9.196 -0.0700  0.1926 -0.3161
 3104TIP3    H133507   5.788   2.235   9.278 -0.3319  1.3033 -0.2526
 3104TIP3    H233508   5.836   2.163   9.154  1.7775 -0.8124  1.6927
 3105TIP3   OH233509   1.213   3.983   9.149  0.5475  0.1355  0.1071
 3105TIP3    H133510   1.209   3.911   9.211 -1.7322  1.6950  1.9461
 3105TIP3    H233511   1.298   4.024   9.165  0.2952  0.0887  1.7734
 3106TIP3   OH233512   2.694   6.000   9.545  0.3590  0.5414  0.1720
 3106TIP3    H133513   2.624   6.043   9.595  0.1539  3.4254 -2.3456
 3106TIP3    H233514   2.773   6.013   9.598 -0.0471  2.4874  0.3625
 3107TIP3   OH233515   0.727   2.325   8.332 -0.2618  0.0521 -0.6514
 3107TIP3    H133516   0.675   2.403   8.352 -2.7169 -1.4759 -0.6760
 3107TIP3    H233517   0.708   2.305   8.241 -1.2417 -1.6245 -0.1321
 3108TIP3   OH233518   0.871   4.827   8.941 -0.6953 -0.4966 -0.1500
 3108TIP3    H133519   0.888   4.733   8.936  2.5385 -0.0373 -0.0518
 3108TIP3    H233520   0.889   4.860   8.853 -1.9426  0.0448 -0.2210
 3109TIP3   OH233521   2.242   2.963   8.564  0.5339 -0.7274 -0.2418
 3109TIP3    H133522   2.335   2.979   8.583  0.0393  0.8688  1.0714
 3109TIP3    H233523   2.204   2.941   8.649 -0.3481 -1.1476 -0.7323
 3110TIP3   OH233524   1.307   0.770   8.749 -0.0880  0.3718  0.3416
 3110TIP3    H133525   1.225   0.797   8.709 -0.6618  1.7722  2.3138
 3110TIP3    H233526   1.294   0.783   8.843  1.6295 -1.4879  0.9298
 3111TIP3   OH233527   2.287   5.203   8.989  0.1506 -0.3231 -0.0196
 3111TIP3    H133528   2.303   5.153   8.909  0.5440  0.9713 -0.7699
 3111TIP3    H233529   2.355   5.271   8.989 -0.4559  0.3012  0.8961
 3112TIP3   OH233530   3.549   5.954   8.355  0.4811  0.2760  0.0127
 3112TIP3    H133531   3.480   5.992   8.300 -0.1893 -2.7471 -1.4497
 3112TIP3    H233532   3.621   6.015   8.348 -1.0471  2.0970 -0.7890
 3113TIP3   OH233533   0.937   2.535   9.503 -0.1818  0.3242 -0.0507
 3113TIP3    H133534   0.925   2.488   9.586 -1.7089  0.8739  0.0690
 3113TIP3    H233535   0.947   2.626   9.528  0.9353  0.3010 -0.3916
 3114TIP3   OH233536   3.297   3.618   7.365  0.0283 -0.3745 -0.0766
 3114TIP3    H133537   3.391   3.606   7.355  0.0571  0.3222 -0.7695
 3114TIP3    H233538   3.283   3.712   7.355 -0.6810 -0.3997  0.5791
 3115TIP3   OH233539   2.491   7.662   8.871  0.3196  0.1469  0.8711
 3115TIP3    H133540   2.447   7.747   8.871 -0.6276 -0.3252  0.3633
 3115TIP3    H233541   2.482   7.631   8.781  1.9802  0.1584  0.6739
 3116TIP3   OH233542   2.566   7.361   8.960  0.5812 -0.1174  0.6641
 3116TIP3    H133543   2.579   7.350   9.054  1.6069 -0.5736  0.4875
 3116TIP3    H233544   2.529   7.449   8.951 -1.2921 -0.7487  1.6170
 3117TIP3   OH233545   2.377   0.590   7.503  0.0459 -0.1396 -0.1084
 3117TIP3    H133546   2.468   0.609   7.525 -0.1670 -0.7176  1.3761
 3117TIP3    H233547   2.356   0.652   7.432  1.6364 -0.1507 -0.6243
 3118TIP3   OH233548   0.260   0.998   8.470 -0.2746 -0.5146 -0.5517
 3118TIP3    H133549   0.321   0.961   8.406 -0.7950 -1.1556 -0.6891
 3118TIP3    H233550   0.176   0.956   8.450 -1.3264  1.9557 -1.8402
 3119TIP3   OH233551   0.660   6.461   7.817  0.0419 -0.4830 -0.3232
 3119TIP3    H133552   0.704   6.377   7.808  0.7488 -0.2150  0.5265
 3119TIP3    H233553   0.730   6.523   7.838 -0.1917  0.6581 -2.6174
 3120TIP3   OH233554   2.021   4.124   7.621 -0.1316  0.5478 -0.1850
 3120TIP3    H133555   2.018   4.219   7.613 -1.5684  0.5567  0.1945
 3120TIP3    H233556   2.115   4.103   7.616  0.0995  1.6973 -3.2048
 3121TIP3   OH233557   0.956   4.826   7.398  0.6746 -0.5813 -0.3178
 3121TIP3    H133558   0.884   4.889   7.384 -0.4033 -1.3189  1.6208
 3121TIP3    H233559   0.972   4.790   7.311  0.0617  1.0285 -1.1545
 3122TIP3   OH233560   1.076   1.641   8.847 -0.2627 -0.8190 -0.2423
 3122TIP3    H133561   1.141   1.647   8.776 -0.2222  0.3739 -0.1166
 3122TIP3    H233562   1.039   1.729   8.853 -0.6841 -1.0616  0.8375
 3123TIP3   OH233563   2.529   6.227   7.973 -0.5840 -0.4290 -0.2690
 3123TIP3    H133564   2.492   6.153   7.923 -0.2726  0.3520 -1.7225
 3123TIP3    H233565   2.552   6.291   7.906  1.3099  0.0498  0.7948
 3124TIP3   OH233566   1.728   2.916   7.848  0.0781  0.2670 -0.0498
 3124TIP3    H133567   1.681   2.997   7.868  0.6939  1.0664 -1.6269
 3124TIP3    H233568   1.811   2.946   7.811  0.9020 -1.1071  0.6179
 3125TIP3   OH233569   7.595   4.705   8.224  0.1842 -0.1120 -0.3037
 3125TIP3    H133570   7.683   4.743   8.228 -0.8951  2.6183  0.3537
 3125TIP3    H233571   7.549   4.760   8.160 -1.4444 -0.4806  0.5006
 3126TIP3   OH233572   0.434   7.541   7.614 -0.5603  0.4996 -0.0349
 3126TIP3    H133573   0.485   7.515   7.538  2.3906  1.5362  1.4486
 3126TIP3    H233574   0.453   7.476   7.680  1.2845  2.4054  1.4477
 3127TIP3   OH233575   5.142   5.587   9.698  0.2042 -0.6981  0.0020
 3127TIP3    H133576   5.175   5.505   9.735  0.0638 -0.4754  0.6431
 3127TIP3    H233577   5.053   5.566   9.670  0.7876 -1.2441 -1.5394
 3128TIP3   OH233578   4.543   6.229   7.834 -0.2410  0.0633 -0.3771
 3128TIP3    H133579   4.508   6.285   7.902 -0.7441  1.5544 -1.8172
 3128TIP3    H233580   4.637   6.223   7.854  0.1732  2.8918 -1.1405
 3129TIP3   OH233581   1.870   5.258   7.427  0.1825  0.7221  0.0478
 3129TIP3    H133582   1.816   5.322   7.380 -1.1098 -0.7743 -0.5943
 3129TIP3    H233583   1.895   5.194   7.361  1.8127  0.7481  0.5989
 3130TIP3   OH233584   1.663   4.271   7.867  0.3315 -0.8204 -0.1420
 3130TIP3    H133585   1.748   4.305   7.893 -0.3745 -0.4787  1.9255
 3130TIP3    H233586   1.654   4.188   7.914  0.0259 -1.5162 -1.3657
 3131TIP3   OH233587   2.998   1.785   9.066 -0.2650 -0.7692 -0.0866
 3131TIP3    H133588   3.064   1.722   9.037 -0.5799 -3.0737  3.5972
 3131TIP3    H233589   2.950   1.739   9.135 -2.1710  2.7244  1.1316
 3132TIP3   OH233590   0.728   5.745   8.613 -0.0164  0.3361 -0.2818
 3132TIP3    H133591   0.709   5.652   8.618  0.3424  0.3105  2.0114
 3132TIP3    H233592   0.642   5.787   8.616 -0.1253  0.0883  0.2127
 3133TIP3   OH233593   7.542   5.891   8.393  0.0988 -0.6411  0.3730
 3133TIP3    H133594   7.503   5.918   8.310 -1.4419  1.5924  1.6914
 3133TIP3    H233595   7.521   5.798   8.401 -1.2730 -0.4813 -0.9355
 3134TIP3   OH233596   7.363   2.176   8.350 -0.3426 -0.0559 -0.2734
 3134TIP3    H133597   7.297   2.190   8.419  0.6881 -1.5601  1.1007
 3134TIP3    H233598   7.331   2.100   8.302 -0.9604  0.8755 -1.3885
 3135TIP3   OH233599   2.275   1.831   9.466 -0.7048  0.0369 -0.1774
 3135TIP3    H133600   2.291   1.784   9.548  0.0909  0.4506 -0.0870
 3135TIP3    H233601   2.239   1.764   9.407  0.3889 -0.6942 -0.0430
 3136TIP3   OH233602   1.734   0.575   7.862 -0.3425  0.2683  0.2632
 3136TIP3    H133603   1.746   0.655   7.914  2.7544 -1.3833  2.3822
 3136TIP3    H233604   1.804   0.578   7.797 -1.8680  0.4819 -1.4412
 3137TIP3   OH233605   6.157   7.015   9.316  0.1274  0.0082 -0.1283
 3137TIP3    H133606   6.156   6.982   9.406  0.7674 -0.1484 -0.1684
 3137TIP3    H233607   6.226   6.964   9.273  0.1343  0.3947 -0.5843
 3138TIP3   OH233608   2.892   1.594   8.756 -0.5806  0.0600  0.0469
 3138TIP3    H133609   2.977   1.632   8.778 -0.0682  0.3381 -2.1197
 3138TIP3    H233610   2.913   1.523   8.695 -1.9113  1.2541 -1.9347
 3139TIP3   OH233611   7.055   2.161   8.001 -0.1572  0.2506 -0.0871
 3139TIP3    H133612   7.044   2.082   7.949  3.2310 -0.7890  0.5516
 3139TIP3    H233613   7.135   2.202   7.967 -0.9690  2.6055  0.6115
 3140TIP3   OH233614   2.998   1.691   8.309 -0.0954  0.2511  0.0807
 3140TIP3    H133615   2.960   1.742   8.237  0.4369 -0.7148 -0.9104
 3140TIP3    H233616   2.973   1.739   8.388 -1.2355  0.9886 -0.7001
 3141TIP3   OH233617   5.877   0.791   7.049 -0.6331 -0.0553 -0.1821
 3141TIP3    H133618   5.895   0.871   6.999 -0.9119  0.6802  0.8457
 3141TIP3    H233619   5.791   0.763   7.018 -2.2543  2.1322  1.9348
 3142TIP3   OH233620   5.796   1.558   7.531 -0.2201 -0.2629 -0.3540
 3142TIP3    H133621   5.840   1.642   7.539  0.4410 -0.5986 -0.4286
 3142TIP3    H233622   5.814   1.530   7.441  0.0767 -0.7652 -0.1397
 3143TIP3   OH233623   0.262   4.740   9.455  0.4283  0.2326 -0.1701
 3143TIP3    H133624   0.304   4.804   9.398  1.3952 -0.0535  0.1932
 3143TIP3    H233625   0.314   4.742   9.536 -0.8174  0.5211  0.6585
 3144TIP3   OH233626   5.774   1.673   9.445  0.7537 -0.1119  0.2568
 3144TIP3    H133627   5.802   1.583   9.426 -0.0006 -0.2686 -0.2020
 3144TIP3    H233628   5.730   1.667   9.529  0.4196 -0.2400  0.0753
 3145TIP3   OH233629   5.413   4.659   8.517 -0.3627 -0.1380 -1.1260
 3145TIP3    H133630   5.380   4.731   8.571  1.0853  0.1242 -0.5226
 3145TIP3    H233631   5.349   4.649   8.447 -0.4400  1.9394 -1.3975
 3146TIP3   OH233632   2.930   0.872   7.348 -0.1431  0.8854 -0.2687
 3146TIP3    H133633   2.870   0.815   7.299  0.2687  0.3710 -0.1807
 3146TIP3    H233634   3.017   0.835   7.331  0.4072  2.8001 -2.0605
 3147TIP3   OH233635   2.008   3.515   7.621 -0.4318 -0.2252  0.1938
 3147TIP3    H133636   2.034   3.607   7.617 -1.3703  0.1229  1.5178
 3147TIP3    H233637   1.979   3.495   7.532  0.0132  0.6911 -0.1707
 3148TIP3   OH233638   0.433   6.607   9.664  0.8989  0.5140  0.0711
 3148TIP3    H133639   0.350   6.654   9.671  0.2498 -0.5456 -0.3914
 3148TIP3    H233640   0.490   6.667   9.615 -0.1986  0.4645 -1.3038
 3149TIP3   OH233641   6.425   2.918   7.946 -0.5900  0.1576 -0.5547
 3149TIP3    H133642   6.466   2.966   7.874  0.1078 -1.3779 -1.2344
 3149TIP3    H233643   6.411   2.983   8.014 -1.3902  1.6962 -2.1201
 3150TIP3   OH233644   0.129   6.060   9.135  0.1804  0.0626 -0.1973
 3150TIP3    H133645   0.221   6.086   9.140  0.4901 -1.2051  2.0436
 3150TIP3    H233646   0.095   6.073   9.223 -1.4319 -0.7309 -0.6595
 3151TIP3   OH233647   7.655   5.242   7.994 -0.2348 -0.2168  0.6530
 3151TIP3    H133648   7.651   5.155   7.955  0.3792  0.5029 -1.1335
 3151TIP3    H233649   7.566   5.259   8.025 -0.2852 -1.5863  1.3350
 3152TIP3   OH233650   7.430   6.190   7.252  0.5184 -0.1235 -0.2663
 3152TIP3    H133651   7.447   6.115   7.194  1.2640 -0.1041 -0.0855
 3152TIP3    H233652   7.348   6.168   7.297  0.1713 -0.3441 -0.9922
 3153TIP3   OH233653   1.161   7.371   9.489 -0.0873 -0.1753  0.2347
 3153TIP3    H133654   1.107   7.299   9.521 -2.1913  0.5714 -1.4250
 3153TIP3    H233655   1.212   7.333   9.417 -0.3657 -0.2675  0.0854
 3154TIP3   OH233656   2.235   2.705   9.314  0.2490  0.4272  1.3601
 3154TIP3    H133657   2.210   2.616   9.290  0.2731  0.7779 -0.0908
 3154TIP3    H233658   2.292   2.695   9.390  2.6881 -1.0626 -0.5033
 3155TIP3   OH233659   5.732   0.961   8.886  0.7113  0.2372  0.0346
 3155TIP3    H133660   5.654   0.934   8.839  0.2963  0.9268  0.3137
 3155TIP3    H233661   5.793   0.888   8.876 -0.8738 -1.4535  2.0183
 3156TIP3   OH233662   1.149   0.455   8.588 -0.3776  0.2452  0.6224
 3156TIP3    H133663   1.188   0.530   8.543 -1.9794  1.5620  1.3558
 3156TIP3    H233664   1.071   0.434   8.537  0.1425 -1.0423  0.3338
 3157TIP3   OH233665   2.059   2.800   8.073 -0.3894 -0.6086 -0.4007
 3157TIP3    H133666   2.131   2.862   8.069  0.4556 -1.4034  1.3972
 3157TIP3    H233667   2.101   2.715   8.085 -1.5512 -1.4261 -1.8416
 3158TIP3   OH233668   4.227   5.145   8.756 -0.0978 -0.3873 -0.0072
 3158TIP3    H133669   4.221   5.230   8.712 -2.1568 -0.7701 -0.5687
 3158TIP3    H233670   4.200   5.163   8.846  0.2157 -0.3146  0.0734
 3159TIP3   OH233671   1.313   3.019   7.959 -0.0268  0.3291  0.6193
 3159TIP3    H133672   1.354   2.943   7.999 -0.6963 -0.1246  0.4685
 3159TIP3    H233673   1.365   3.094   7.989  1.5367 -0.3073 -0.3841
 3160TIP3   OH233674   1.113   1.710   8.468  0.0194 -0.1963  0.3078
 3160TIP3    H133675   1.142   1.630   8.512 -1.8933 -1.1195 -0.0109
 3160TIP3    H233676   1.049   1.680   8.403  0.4478  1.4456 -0.9460
 3161TIP3   OH233677   7.591   5.525   9.191 -0.2383 -0.0948  0.6065
 3161TIP3    H133678   7.568   5.505   9.282  2.2545  0.5064  1.4434
 3161TIP3    H233679   7.531   5.596   9.166  0.8305  1.7074  2.7923
 3162TIP3   OH233680   1.090   1.408   9.642  0.6850  0.4885  0.3366
 3162TIP3    H133681   1.042   1.486   9.617  2.2429  1.5009  0.3546
 3162TIP3    H233682   1.050   1.337   9.592  1.0375  1.7665 -1.8616
 3163TIP3   OH233683   4.049   7.167   7.477  0.2026 -0.7731 -0.2557
 3163TIP3    H133684   4.107   7.093   7.462 -1.2336 -2.2934  1.3180
 3163TIP3    H233685   3.964   7.138   7.444 -0.3986  0.1725  0.4101
 3164TIP3   OH233686   7.139   1.334   7.347  0.3105  0.2996 -0.0610
 3164TIP3    H133687   7.169   1.322   7.437 -0.8547 -0.0696  0.2987
 3164TIP3    H233688   7.072   1.267   7.335 -0.5335  1.2288 -0.7346
 3165TIP3   OH233689   6.136   7.088   8.498  0.3951 -0.5468  0.4784
 3165TIP3    H133690   6.044   7.085   8.470  0.2499 -0.0626  0.9003
 3165TIP3    H233691   6.135   7.139   8.579  1.5218  2.6844 -1.4010
 3166TIP3   OH233692   1.988   3.629   8.455  0.2185  0.0801 -0.5442
 3166TIP3    H133693   2.008   3.595   8.368  4.5246  0.7137 -0.0155
 3166TIP3    H233694   1.965   3.551   8.506 -0.8235 -0.4915 -1.8497
 3167TIP3   OH233695   5.102   3.015   8.794 -0.0331  0.2767 -0.0418
 3167TIP3    H133696   5.074   2.926   8.772 -1.8302  1.0910 -1.2793
 3167TIP3    H233697   5.193   3.005   8.822 -0.6428 -2.1351  1.3398
 3168TIP3   OH233698   1.862   2.246   8.277  0.5342 -0.7019 -0.4967
 3168TIP3    H133699   1.833   2.206   8.195  1.7900 -1.4277 -0.6178
 3168TIP3    H233700   1.873   2.339   8.256 -0.0191 -0.7231 -0.8926
 3169TIP3   OH233701   1.371   3.453   8.867 -0.3191 -0.5499  0.4122
 3169TIP3    H133702   1.325   3.525   8.825  1.3949  0.9702  1.0327
 3169TIP3    H233703   1.424   3.414   8.797 -0.2793 -0.3873  0.3518
 3170TIP3   OH233704   0.488   0.373   7.346  0.1051  0.0048  0.2580
 3170TIP3    H133705   0.478   0.466   7.326  0.2213  0.1143  0.6903
 3170TIP3    H233706   0.581   0.363   7.366  0.1604 -0.2750 -0.1344
 3171TIP3   OH233707   5.812   2.853   7.676  0.5174 -0.2404 -0.2722
 3171TIP3    H133708   5.776   2.814   7.597 -0.1164  1.6211 -0.9433
 3171TIP3    H233709   5.748   2.919   7.703  1.6142  0.4883  0.6904
 3172TIP3   OH233710   0.552   1.837   7.519  0.1278  0.2407 -0.8270
 3172TIP3    H133711   0.564   1.844   7.424  1.4364  0.9105 -0.6394
 3172TIP3    H233712   0.529   1.745   7.534 -1.6195  0.4633 -1.9143
 3173TIP3   OH233713   1.408   4.408   7.648 -0.1425 -1.1596 -0.0445
 3173TIP3    H133714   1.384   4.494   7.683 -0.8181 -1.4558  0.2468
 3173TIP3    H233715   1.357   4.346   7.700  0.9194 -1.7974  0.2642
 3174TIP3   OH233716   5.013   2.203   9.319 -0.0868 -0.0391  0.6048
 3174TIP3    H133717   5.007   2.289   9.360  2.5983  0.1413  0.7844
 3174TIP3    H233718   4.985   2.218   9.229 -1.3878  0.5976  1.0859
 3175TIP3   OH233719   5.676   3.199   9.275 -0.0140  0.4664  0.3011
 3175TIP3    H133720   5.750   3.257   9.294 -0.6030  1.0635  0.8446
 3175TIP3    H233721   5.629   3.244   9.204 -0.1430  0.3474  0.3109
 3176TIP3   OH233722   7.312   3.658   6.760 -0.2551  0.3859 -0.1176
 3176TIP3    H133723   7.307   3.753   6.744  0.9947  0.4856  0.0060
 3176TIP3    H233724   7.398   3.645   6.799 -0.1101 -0.9089 -0.8296
 3177TIP3   OH233725   7.099   4.392   7.702  0.4430 -0.4454 -0.9608
 3177TIP3    H133726   7.055   4.395   7.616 -0.7789 -2.1132 -0.4460
 3177TIP3    H233727   7.166   4.325   7.692 -0.1095 -1.0832 -0.4506
 3178TIP3   OH233728   2.156   5.309   7.963  0.3097  0.2985 -0.1833
 3178TIP3    H133729   2.201   5.246   7.907  2.2400  0.8761  0.6191
 3178TIP3    H233730   2.131   5.259   8.040 -0.3370  0.0108 -0.5650
 3179TIP3   OH233731   5.562   7.322   8.240  0.1765  0.0731 -0.0510
 3179TIP3    H133732   5.478   7.368   8.231  0.3279  1.0473  2.5259
 3179TIP3    H233733   5.628   7.386   8.216  0.2531 -1.0444 -3.2153
 3180TIP3   OH233734   7.650   4.153   9.426 -0.1261 -0.0682  0.1869
 3180TIP3    H133735   7.706   4.134   9.350 -0.7616 -0.9796 -0.0624
 3180TIP3    H233736   7.681   4.093   9.494 -1.1348 -0.9560 -0.1190
 3181TIP3   OH233737   6.747   6.498   8.764  0.8342  0.2331 -0.0003
 3181TIP3    H133738   6.764   6.411   8.728 -0.1509  0.1411 -0.2808
 3181TIP3    H233739   6.831   6.528   8.796  1.2956 -0.5978 -0.4110
 3182TIP3   OH233740   6.786   7.148   9.081 -0.3625  0.4629 -0.0316
 3182TIP3    H133741   6.769   7.238   9.052  1.4676  1.4283  1.6609
 3182TIP3    H233742   6.876   7.149   9.113 -0.8771 -1.5078  1.7442
 3183TIP3   OH233743   4.386   2.448   7.586  0.1923 -0.0539  0.1503
 3183TIP3    H133744   4.389   2.541   7.563 -3.4274  0.1660 -0.1075
 3183TIP3    H233745   4.366   2.448   7.680 -3.1315 -0.3041 -0.4206
 3184TIP3   OH233746   5.722   7.481   8.078 -0.3450 -0.0144  0.5362
 3184TIP3    H133747   5.678   7.455   7.997 -0.1616  0.3170  0.3228
 3184TIP3    H233748   5.767   7.562   8.054 -0.7075  0.3597  1.1112
 3185TIP3   OH233749   7.064   0.481   8.290 -0.0350  0.2169  0.0797
 3185TIP3    H133750   7.083   0.574   8.303  0.9874 -0.0973  0.8723
 3185TIP3    H233751   7.150   0.440   8.279 -0.5131 -0.5271 -1.1143
 3186TIP3   OH233752   2.411   0.664   8.496  0.1940  0.1512  0.4070
 3186TIP3    H133753   2.487   0.721   8.485 -0.4259  1.0241  0.5112
 3186TIP3    H233754   2.392   0.631   8.408  0.3209  0.4195  0.2794
 3187TIP3   OH233755   2.648   5.815   8.157 -0.3484 -0.0515  0.1550
 3187TIP3    H133756   2.704   5.767   8.218 -2.0690 -0.0528  1.8319
 3187TIP3    H233757   2.671   5.781   8.070  0.3789 -1.9114  1.0376
 3188TIP3   OH233758   1.006   4.403   9.201 -0.1415 -0.5651 -0.3052
 3188TIP3    H133759   1.061   4.335   9.240  0.1952  0.0883  0.3984
 3188TIP3    H233760   0.930   4.408   9.258 -0.7284 -1.1558 -1.0255
 3189TIP3   OH233761   6.064   1.470   7.593 -0.0524 -0.5594  0.1888
 3189TIP3    H133762   6.030   1.390   7.633  1.4823  0.5144  4.1268
 3189TIP3    H233763   5.998   1.536   7.611 -0.0863 -0.3592 -0.6248
 3190TIP3   OH233764   0.979   5.849   8.118  1.0029 -0.4316  0.5081
 3190TIP3    H133765   0.990   5.936   8.158  1.1527 -0.5057  0.6258
 3190TIP3    H233766   0.923   5.802   8.180  0.1928 -0.1333  0.0268
 3191TIP3   OH233767   1.145   4.974   8.780  0.4367 -0.0075 -0.0955
 3191TIP3    H133768   1.199   4.966   8.701 -0.2035  0.5767 -0.5938
 3191TIP3    H233769   1.189   4.916   8.843  1.2444 -0.0932 -0.7074
 3192TIP3   OH233770   4.711   0.299   7.968 -0.7110  0.2044 -0.1598
 3192TIP3    H133771   4.695   0.337   7.881 -1.8445  0.6888  0.2337
 3192TIP3    H233772   4.624   0.276   8.000 -0.2916 -0.1077  0.7839
 3193TIP3   OH233773   7.509   0.788   9.486  0.2534 -0.7023  0.0652
 3193TIP3    H133774   7.472   0.712   9.441  0.5714 -1.0900  0.4473
 3193TIP3    H233775   7.604   0.778   9.477  0.2819  0.3350 -0.9858
 3194TIP3   OH233776   3.951   7.535   6.599  0.6723  1.2529  0.4317
 3194TIP3    H133777   4.045   7.516   6.599  0.2776 -1.4010  2.5116
 3194TIP3    H233778   3.910   7.451   6.580 -1.3097  2.1081  0.7016
 3195TIP3   OH233779   5.399   6.414   8.713  0.0452 -0.1523 -0.1428
 3195TIP3    H133780   5.360   6.496   8.743 -0.2655  0.0895 -1.1527
 3195TIP3    H233781   5.487   6.438   8.686  1.0820 -0.7533  2.4135
 3196TIP3   OH233782   1.741   0.542   7.078 -0.4624 -0.5247 -0.3512
 3196TIP3    H133783   1.738   0.519   7.171 -1.2020  0.3493 -0.1361
 3196TIP3    H233784   1.779   0.630   7.077 -0.6194 -0.4609 -0.8604
 3197TIP3   OH233785   1.014   0.949   9.069 -0.4689 -0.6059  0.4761
 3197TIP3    H133786   1.024   1.026   9.012  1.2245 -1.0371  0.1218
 3197TIP3    H233787   0.970   0.983   9.147 -0.0053  0.6724  0.2163
 3198TIP3   OH233788   0.614   4.421   7.079 -0.3441  0.2009 -0.8421
 3198TIP3    H133789   0.670   4.498   7.076  1.6876 -1.1593 -0.0113
 3198TIP3    H233790   0.581   4.412   6.990 -0.3659  1.8172 -1.0233
 3199TIP3   OH233791   1.145   1.349   7.793  1.1645  0.1748  0.5896
 3199TIP3    H133792   1.237   1.325   7.805  0.9975 -0.9040 -0.1856
 3199TIP3    H233793   1.095   1.279   7.834  0.6836 -0.0157 -0.2840
 3200TIP3   OH233794   4.826   0.284   9.426  0.1603  0.7231 -0.1275
 3200TIP3    H133795   4.916   0.317   9.425  0.7216 -0.7350 -1.2561
 3200TIP3    H233796   4.829   0.204   9.373 -1.7061  0.3802  0.2138
 3201TIP3   OH233797   6.573   4.754   8.381  0.3574 -0.1983 -0.2650
 3201TIP3    H133798   6.564   4.662   8.406  1.6292 -0.3335 -0.2382
 3201TIP3    H233799   6.579   4.801   8.465 -1.1567  0.0350 -0.2569
 3202TIP3   OH233800   2.706   1.041   8.677  0.2477  0.0771  0.3638
 3202TIP3    H133801   2.801   1.033   8.668  0.2557  0.0789  0.4402
 3202TIP3    H233802   2.677   1.081   8.596  0.2372 -0.5124  0.0706
 3203TIP3   OH233803   5.628   1.686   8.993 -0.4715 -0.1953 -0.5399
 3203TIP3    H133804   5.679   1.720   9.066  1.3972 -2.7602 -0.5196
 3203TIP3    H233805   5.537   1.697   9.020  0.0637  2.2060  0.5319
 3204TIP3   OH233806   0.096   7.610   8.011  0.1071  0.0497  0.0117
 3204TIP3    H133807   0.126   7.629   8.100 -1.0739 -2.6662  1.1024
 3204TIP3    H233808   0.173   7.573   7.967  1.3848  3.5439 -0.9952
 3205TIP3   OH233809   1.729   4.704   9.590 -0.0615 -0.5267 -0.8186
 3205TIP3    H133810   1.703   4.719   9.681 -0.9171 -3.2277 -0.5290
 3205TIP3    H233811   1.733   4.792   9.552  0.6851  0.7283  1.8737
 3206TIP3   OH233812   6.134   4.881   8.712  0.0816 -0.4976  0.1644
 3206TIP3    H133813   6.127   4.976   8.701 -1.7873 -0.5444  0.6513
 3206TIP3    H233814   6.128   4.846   8.623  1.0343 -0.1759 -0.0430
 3207TIP3   OH233815   4.129   7.014   7.738  0.0170  0.5971  0.4870
 3207TIP3    H133816   4.165   7.000   7.650 -0.6263  1.1765  0.1254
 3207TIP3    H233817   4.045   6.969   7.738  1.1929 -1.7614  1.7114
 3208TIP3   OH233818   4.706   5.677   7.497  0.2542 -0.2043 -0.2162
 3208TIP3    H133819   4.683   5.676   7.404  1.3517 -2.6882 -0.5337
 3208TIP3    H233820   4.682   5.590   7.529 -2.8616  1.4770  2.6341
 3209TIP3   OH233821   0.753   4.884   7.962  0.9355  0.6118  0.3515
 3209TIP3    H133822   0.790   4.956   7.910  2.2985  0.0073  0.4511
 3209TIP3    H233823   0.747   4.811   7.901  1.7708  0.1394  0.8194
 3210TIP3   OH233824   3.744   6.242   8.485 -0.5882 -0.2820  0.0188
 3210TIP3    H133825   3.795   6.209   8.411 -0.8363 -1.7616  0.4630
 3210TIP3    H233826   3.685   6.307   8.447 -1.3540 -1.6734 -1.2703
 3211TIP3   OH233827   4.963   2.425   8.007 -0.2256  0.4108 -0.7903
 3211TIP3    H133828   4.907   2.361   8.050 -0.5375  0.5349 -1.0039
 3211TIP3    H233829   4.981   2.386   7.921 -0.5295  0.6729 -0.9720
 3212TIP3   OH233830   5.060   6.589   7.231  0.0386  0.0309 -0.2035
 3212TIP3    H133831   5.100   6.571   7.316  1.3793 -1.5965 -1.0971
 3212TIP3    H233832   5.072   6.508   7.181 -1.3246  0.6950 -1.7211
 3213TIP3   OH233833   5.452   4.843   9.011 -0.0855  0.0172  0.0864
 3213TIP3    H133834   5.440   4.805   9.098 -1.1170 -0.9028 -0.4215
 3213TIP3    H233835   5.496   4.774   8.960 -0.2769  0.2095 -0.3498
 3214TIP3   OH233836   4.993   2.671   7.699  0.0566  0.1548 -0.4147
 3214TIP3    H133837   5.047   2.619   7.759 -0.7242  0.2049  0.3497
 3214TIP3    H233838   5.025   2.760   7.709  1.8606 -0.2041 -2.2277
 3215TIP3   OH233839   1.835   5.818   7.634 -0.1400  0.1376  0.3998
 3215TIP3    H133840   1.879   5.778   7.709 -0.0384  1.1437  0.8829
 3215TIP3    H233841   1.905   5.861   7.584 -0.0611 -1.2694 -0.7914
 3216TIP3   OH233842   0.195   2.149   8.234  0.0197 -0.3400 -0.3788
 3216TIP3    H133843   0.240   2.084   8.287  1.2943  0.5528 -0.3114
 3216TIP3    H233844   0.117   2.172   8.286  0.1182 -1.0178  0.0840
 3217TIP3   OH233845   2.739   1.935   7.404 -0.2252 -0.2049 -0.3495
 3217TIP3    H133846   2.742   1.936   7.308 -1.7494  0.8923 -0.4057
 3217TIP3    H233847   2.827   1.962   7.430 -0.4288  1.7121 -1.4778
 3218TIP3   OH233848   6.861   0.881   9.690  0.5916 -0.2150 -0.0843
 3218TIP3    H133849   6.840   0.937   9.616  0.1033  0.6800  0.6985
 3218TIP3    H233850   6.789   0.895   9.752  1.4641 -0.2029  0.9571
 3219TIP3   OH233851   6.728   2.779   7.692  0.6287  0.5976  0.0924
 3219TIP3    H133852   6.690   2.838   7.627  2.8801  1.0398 -0.9441
 3219TIP3    H233853   6.680   2.697   7.681 -3.6575  2.4168  2.6149
 3220TIP3   OH233854   0.169   5.408   8.077 -0.0017 -0.1645  0.2086
 3220TIP3    H133855   0.098   5.362   8.032  0.0585 -0.6388  0.5894
 3220TIP3    H233856   0.161   5.381   8.168  0.5532 -0.0754  0.2877
 3221TIP3   OH233857   6.146   0.972   8.381  0.5380 -0.6963 -0.6867
 3221TIP3    H133858   6.135   1.067   8.390 -1.5535 -0.9767  0.3437
 3221TIP3    H233859   6.198   0.947   8.457 -0.4473 -0.5903  0.0311
 3222TIP3   OH233860   5.965   1.607   9.000 -0.4147 -0.2445 -0.2858
 3222TIP3    H133861   5.942   1.525   8.955 -1.6010 -0.3493  0.4780
 3222TIP3    H233862   5.922   1.675   8.949  2.6510  0.2904 -2.4846
 3223TIP3   OH233863   1.752   2.271   8.810  0.3152  0.5113 -0.0026
 3223TIP3    H133864   1.750   2.364   8.832  0.0509  0.6405 -0.5503
 3223TIP3    H233865   1.742   2.269   8.715  0.2878 -0.0779  0.0089
 3224TIP3   OH233866   5.659   0.812   8.668 -0.1967 -0.5545 -0.5831
 3224TIP3    H133867   5.589   0.753   8.695  0.8191 -2.6704 -2.2461
 3224TIP3    H233868   5.630   0.844   8.582  0.4776 -0.8145 -0.9120
 3225TIP3   OH233869   2.233   2.573   8.932 -0.2723 -0.0621 -0.0631
 3225TIP3    H133870   2.309   2.592   8.878 -1.8273  1.1187 -2.0135
 3225TIP3    H233871   2.209   2.658   8.970 -0.2689 -0.5363  1.0320
 3226TIP3   OH233872   1.721   6.099   7.498 -0.4190 -0.0445 -0.1957
 3226TIP3    H133873   1.683   6.037   7.560  0.2795  1.0267  1.3869
 3226TIP3    H233874   1.789   6.144   7.549 -0.4088  1.4898 -1.4972
 3227TIP3   OH233875   4.725   0.583   8.030 -0.5069 -0.0136  0.1068
 3227TIP3    H133876   4.739   0.488   8.026  2.0084  0.2298  1.1196
 3227TIP3    H233877   4.743   0.614   7.941 -1.3966 -0.4394 -0.2441
 3228TIP3   OH233878   7.105   4.928   7.866 -0.1468  0.1015  0.4803
 3228TIP3    H133879   7.184   4.980   7.855  0.4982 -0.9201  0.1961
 3228TIP3    H233880   7.114   4.857   7.802 -0.0980 -1.4553  2.1439
 3229TIP3   OH233881   3.390   6.372   8.991  0.1647  0.4021  0.0057
 3229TIP3    H133882   3.323   6.389   9.057 -1.4114 -3.7401 -0.2285
 3229TIP3    H233883   3.471   6.403   9.032 -1.2341  1.4222  2.2502
 3230TIP3   OH233884   3.321   6.528   8.766  0.4566  0.3945 -0.2228
 3230TIP3    H133885   3.353   6.460   8.825  0.5507  0.4326 -0.2294
 3230TIP3    H233886   3.399   6.580   8.746  0.8948 -0.8629 -2.0645
 3231TIP3   OH233887   7.262   6.063   8.314  0.1598 -0.4706  0.5892
 3231TIP3    H133888   7.255   5.975   8.351 -0.2363  0.2540  2.3303
 3231TIP3    H233889   7.181   6.107   8.341  0.1619  0.3091 -0.6184
 3232TIP3   OH233890   2.944   6.480   7.931  0.2887 -0.9147  0.0467
 3232TIP3    H133891   3.002   6.542   7.889 -1.2212 -0.2519 -1.1761
 3232TIP3    H233892   2.882   6.534   7.980 -1.3267 -1.3408 -1.4028
 3233TIP3   OH233893   3.980   2.834   9.235  0.0136 -0.3285 -0.2343
 3233TIP3    H133894   4.075   2.834   9.224 -0.0931  0.7463 -1.4020
 3233TIP3    H233895   3.960   2.922   9.268 -0.7311  0.0747 -1.7017
 3234TIP3   OH233896   2.484   1.833   8.947 -0.0297 -0.0817  0.4658
 3234TIP3    H133897   2.551   1.765   8.951 -0.3151 -0.3469  0.9378
 3234TIP3    H233898   2.404   1.789   8.979 -0.7112 -0.1199 -1.1958
 3235TIP3   OH233899   2.605   0.305   8.607 -1.0602  0.2177 -0.0100
 3235TIP3    H133900   2.668   0.235   8.624 -1.5210 -0.1097  0.3500
 3235TIP3    H233901   2.570   0.286   8.521 -1.5626 -0.2854  0.3034
 3236TIP3   OH233902   1.429   1.299   7.802 -0.0789  1.2204 -0.0862
 3236TIP3    H133903   1.496   1.239   7.834 -1.0010  0.1144 -0.1741
 3236TIP3    H233904   1.431   1.289   7.707 -1.8858 -0.5965 -0.0191
 3237TIP3   OH233905   3.254   6.606   9.142  0.0601  0.1636  0.4527
 3237TIP3    H133906   3.305   6.651   9.209  1.0390 -1.4184  0.8207
 3237TIP3    H233907   3.181   6.567   9.188 -0.9441  1.5474  0.0901
 3238TIP3   OH233908   1.873   4.034   9.718  0.5832 -0.1520 -0.5359
 3238TIP3    H133909   1.902   4.009   9.806 -1.6836 -0.2153  0.2549
 3238TIP3    H233910   1.915   4.118   9.702  2.4008 -0.9334 -0.1540
 3239TIP3   OH233911   4.455   1.278   6.841  0.5587 -0.0485  0.5721
 3239TIP3    H133912   4.400   1.353   6.818  1.7222  1.4735  2.4444
 3239TIP3    H233913   4.458   1.225   6.761 -1.9799  0.7941 -0.1733
 3240TIP3   OH233914   7.162   4.702   9.053 -0.4592 -0.2858  0.6046
 3240TIP3    H133915   7.127   4.791   9.056 -0.2498 -0.2274  1.9258
 3240TIP3    H233916   7.191   4.685   9.143 -0.1087 -1.5318  0.2694
 3241TIP3   OH233917   6.490   0.665   9.204 -0.0708  0.1838 -0.2186
 3241TIP3    H133918   6.547   0.739   9.186 -0.8266  0.5788 -1.0454
 3241TIP3    H233919   6.488   0.615   9.123 -0.8516  0.1450 -0.1885
 3242TIP3   OH233920   3.196   1.202   8.635  0.6541 -0.2273 -0.0013
 3242TIP3    H133921   3.188   1.254   8.555  0.5492  1.7468  1.2060
 3242TIP3    H233922   3.277   1.152   8.624  0.8767  0.3562 -1.1456
 3243TIP3   OH233923   7.309   1.077   8.241 -0.2876 -0.2126 -0.0209
 3243TIP3    H133924   7.261   1.048   8.318  1.4755 -0.4914  1.0189
 3243TIP3    H233925   7.269   1.161   8.218 -0.7895 -0.0858  1.2389
 3244TIP3   OH233926   6.792   6.072   8.313  0.8810 -0.2980  0.0122
 3244TIP3    H133927   6.769   6.146   8.256  1.7553 -1.1671 -1.5423
 3244TIP3    H233928   6.851   6.019   8.260  0.2154 -2.1651  1.0594
 3245TIP3   OH233929   3.115   1.289   8.904  0.1830 -0.1360  0.2122
 3245TIP3    H133930   3.172   1.220   8.938 -0.0805 -0.0610  0.8361
 3245TIP3    H233931   3.145   1.304   8.815  1.0760 -0.1538  0.5049
 3246TIP3   OH233932   5.732   5.143   6.993  0.1781  0.1305  0.4661
 3246TIP3    H133933   5.735   5.219   7.051 -1.4257  0.3260  0.3429
 3246TIP3    H233934   5.639   5.134   6.970  0.6103 -0.6231 -1.1609
 3247TIP3   OH233935   6.919   0.395   8.511 -0.1735 -0.4673 -0.4395
 3247TIP3    H133936   6.844   0.435   8.467 -1.3416 -0.0492  1.8257
 3247TIP3    H233937   6.985   0.387   8.442 -1.2637  1.8089 -1.8598
 3248TIP3   OH233938   1.901   4.458   9.532  0.0742 -0.3620 -0.4444
 3248TIP3    H133939   1.991   4.490   9.519 -0.5577  1.2903 -1.0353
 3248TIP3    H233940   1.855   4.533   9.571 -1.1858 -0.9839 -0.7038
 3249TIP3   OH233941   4.241   1.926   9.162 -0.0977 -0.2947 -0.5746
 3249TIP3    H133942   4.164   1.965   9.204  0.4385  0.2772 -0.1081
 3249TIP3    H233943   4.287   2.000   9.122  0.4325 -0.5685 -0.4866
 3250TIP3   OH233944   1.765   6.924   9.308 -0.2149 -0.1035 -0.4854
 3250TIP3    H133945   1.711   6.997   9.340  0.4787  0.7488 -1.2064
 3250TIP3    H233946   1.854   6.947   9.336  0.3628  0.4744 -2.6227
 3251TIP3   OH233947   5.641   7.081   9.374 -0.1150  0.1575 -0.5005
 3251TIP3    H133948   5.628   6.990   9.349 -1.5849  0.3007 -0.3455
 3251TIP3    H233949   5.569   7.100   9.434 -1.1309  2.0101 -2.1796
 3252TIP3   OH233950   4.652   3.753   7.131 -0.0327  0.6725 -0.3497
 3252TIP3    H133951   4.691   3.789   7.051 -1.0129  2.1651 -0.2028
 3252TIP3    H233952   4.655   3.825   7.193  0.8656 -0.5204  1.0566
 3253TIP3   OH233953   5.878   7.256   7.736 -0.2689  0.3594 -0.1732
 3253TIP3    H133954   5.917   7.170   7.756 -1.0708  0.0720  0.1932
 3253TIP3    H233955   5.789   7.250   7.769 -0.6737  0.9661 -1.1182
 3254TIP3   OH233956   1.221   6.833   7.911  0.3027  0.3174  0.6803
 3254TIP3    H133957   1.236   6.817   8.004 -0.0048  0.1582  0.7029
 3254TIP3    H233958   1.155   6.769   7.886  0.3073  0.4302  0.3766
 3255TIP3   OH233959   1.494   6.954   8.033 -0.4064 -0.6184 -0.8397
 3255TIP3    H133960   1.580   6.929   8.067 -1.3351  1.0461  3.2761
 3255TIP3    H233961   1.514   7.014   7.961  2.0312  1.1982  1.1649
 3256TIP3   OH233962   6.230   4.501   8.146 -0.5112  0.5695 -0.3468
 3256TIP3    H133963   6.290   4.427   8.133 -1.8443 -0.5111 -0.5674
 3256TIP3    H233964   6.234   4.519   8.239  0.0064  0.3771 -0.3269
 3257TIP3   OH233965   3.520   5.468   8.177 -0.1712  0.8698 -0.3674
 3257TIP3    H133966   3.543   5.559   8.197  0.1852  0.3297  1.9097
 3257TIP3    H233967   3.470   5.438   8.253 -3.3317  0.1351 -2.4867
 3258TIP3   OH233968   1.158   2.502   8.317 -0.6143 -0.1106 -0.4435
 3258TIP3    H133969   1.086   2.557   8.348  0.7226  0.6265  1.6143
 3258TIP3    H233970   1.131   2.412   8.339 -0.5125  0.2444  1.2292
 3259TIP3   OH233971   3.522   4.424   7.673 -0.3189 -0.1088 -0.2286
 3259TIP3    H133972   3.471   4.429   7.755 -1.6081 -1.8432 -0.8512
 3259TIP3    H233973   3.604   4.383   7.699  0.1207  1.1883  0.5114
 3260TIP3   OH233974   3.331   1.681   7.308 -0.6956 -0.7142 -0.3586
 3260TIP3    H133975   3.296   1.606   7.260 -0.3488 -1.7091  0.8889
 3260TIP3    H233976   3.254   1.731   7.336 -1.1049 -2.0306  1.0175
 3261TIP3   OH233977   7.446   6.709   8.819  0.2559 -0.0668  0.2817
 3261TIP3    H133978   7.372   6.749   8.773  0.6504 -0.0589 -0.3550
 3261TIP3    H233979   7.445   6.618   8.792  0.6971  0.0144 -0.0092
 3262TIP3   OH233980   0.490   6.206   7.160  0.2709 -0.4306 -0.0943
 3262TIP3    H133981   0.458   6.294   7.182  0.6655 -0.1801 -0.4929
 3262TIP3    H233982   0.447   6.186   7.076  2.0231  0.4118 -1.2633
 3263TIP3   OH233983   5.428   0.862   8.411 -0.0112  0.0491  0.1171
 3263TIP3    H133984   5.501   0.810   8.374 -0.7892  0.2431 -1.8329
 3263TIP3    H233985   5.353   0.803   8.407 -0.7499  1.0359 -1.4503
 3264TIP3   OH233986   5.851   5.118   7.896 -0.3051 -0.1054  0.4477
 3264TIP3    H133987   5.867   5.109   7.990 -2.5187 -1.9053  0.7305
 3264TIP3    H233988   5.907   5.052   7.856  0.7405  0.7515  0.4332
 3265TIP3   OH233989   2.953   7.309   9.106 -0.1814 -0.2266  0.2397
 3265TIP3    H133990   2.994   7.381   9.154  0.0210 -0.0233 -0.2213
 3265TIP3    H233991   2.860   7.329   9.108 -0.2076 -0.4128  0.8522
 3266TIP3   OH233992   5.665   5.749   7.809  0.0081  0.0711  0.0900
 3266TIP3    H133993   5.581   5.752   7.856  0.4500 -1.3087  1.0156
 3266TIP3    H233994   5.654   5.678   7.746 -0.3842  1.5485 -1.6167
 3267TIP3   OH233995   2.426   5.914   8.821 -0.2369  0.5651 -0.7470
 3267TIP3    H133996   2.491   5.846   8.837  1.6786  1.8580 -2.5307
 3267TIP3    H233997   2.374   5.917   8.901  3.1683  0.7875  1.6508
 3268TIP3   OH233998   5.494   7.412   8.867 -0.3937 -0.0025 -0.3015
 3268TIP3    H133999   5.575   7.431   8.913  0.4994 -1.0643 -1.3468
 3268TIP3    H234000   5.448   7.496   8.861  0.9095  0.7310 -0.1983
 3269TIP3   OH234001   0.369   7.626   7.977 -0.0254  0.4013 -0.0485
 3269TIP3    H134002   0.395   7.635   8.069 -0.3417  0.7122  0.0171
 3269TIP3    H234003   0.376   7.533   7.958  1.6768  0.5386 -0.2091
 3270TIP3   OH234004   4.545   3.085   8.515  0.1729 -0.2105  0.3948
 3270TIP3    H134005   4.604   3.086   8.590 -0.0020  1.7130  0.5691
 3270TIP3    H234006   4.603   3.093   8.439  0.2606 -0.6671  0.4110
 3271TIP3   OH234007   0.961   4.225   7.676 -0.5770 -0.7113  0.1755
 3271TIP3    H134008   0.912   4.292   7.724  0.3280 -0.0195  0.1671
 3271TIP3    H234009   0.893   4.170   7.636 -1.3587 -1.1308  1.9660
 3272TIP3   OH234010   5.707   5.634   9.445 -0.1220 -0.2256 -0.5151
 3272TIP3    H134011   5.683   5.721   9.477  0.5807 -0.2505  0.1180
 3272TIP3    H234012   5.802   5.630   9.456  0.1051 -0.3751 -2.3271
 3273TIP3   OH234013   0.267   4.421   9.483  0.6801 -0.3582  0.4608
 3273TIP3    H134014   0.180   4.406   9.445  0.4533 -0.5354  1.0365
 3273TIP3    H234015   0.288   4.512   9.460 -0.1567  0.0553  1.2843
 3274TIP3   OH234016   0.239   6.901   8.502 -0.3557 -0.0406  0.2948
 3274TIP3    H134017   0.313   6.852   8.465  0.5992 -1.3497  3.5306
 3274TIP3    H234018   0.280   6.964   8.562 -1.7851  1.1379  0.0800
 3275TIP3   OH234019   0.002   1.961   8.134 -0.1653  0.0049 -0.0101
 3275TIP3    H134020  -0.019   1.914   8.214  3.2463 -2.9619 -0.5980
 3275TIP3    H234021   0.068   2.025   8.160 -1.5461  1.4705  0.0254
 3276TIP3   OH234022   0.305   1.168   8.991 -0.0390 -0.1050 -0.1316
 3276TIP3    H134023   0.275   1.243   8.940  0.3738  0.7535  0.8314
 3276TIP3    H234024   0.243   1.098   8.972 -0.8390  0.6978 -0.5156
 3277TIP3   OH234025   5.599   1.214   8.148  0.3351  0.3101  0.1138
 3277TIP3    H134026   5.591   1.119   8.137 -0.1847 -0.0130  2.7517
 3277TIP3    H234027   5.593   1.249   8.059 -0.4851 -2.0573 -0.8261
 3278TIP3   OH234028   3.691   0.191   7.760  0.2837 -0.0574  0.1596
 3278TIP3    H134029   3.716   0.101   7.785 -2.1235 -0.2258  2.4350
 3278TIP3    H234030   3.667   0.232   7.843 -2.6895  1.3279 -1.2452
 3279TIP3   OH234031   0.882   2.462   7.988 -0.1011  0.2793 -0.7098
 3279TIP3    H134032   0.852   2.428   7.903  1.1961 -1.2367 -0.6210
 3279TIP3    H234033   0.811   2.440   8.049 -0.3831 -0.0048 -1.1352
 3280TIP3   OH234034   3.878   0.643   6.660  0.3279 -0.4238  0.4053
 3280TIP3    H134035   3.877   0.547   6.653  0.3723 -0.3362 -1.3479
 3280TIP3    H234036   3.798   0.670   6.615  0.4559  0.3758  0.6563
 3281TIP3   OH234037   7.411   5.915   8.130 -0.6048  0.2870 -0.1027
 3281TIP3    H134038   7.332   5.861   8.128 -2.0966  2.2803  1.0791
 3281TIP3    H234039   7.381   6.000   8.160  1.9853  1.2009  0.1639
 3282TIP3   OH234040   6.304   5.481   7.887  0.0337  0.5057 -0.1443
 3282TIP3    H134041   6.394   5.479   7.919  0.2413  0.5107 -0.6993
 3282TIP3    H234042   6.250   5.460   7.963  0.5010  0.5713  0.2089
 3283TIP3   OH234043   0.561   3.755   9.706  0.3387  0.3053  0.1463
 3283TIP3    H134044   0.514   3.813   9.765  0.8294  2.0901 -1.1517
 3283TIP3    H234045   0.612   3.813   9.650  1.6390 -1.4258 -0.5653
 3284TIP3   OH234046   2.212   5.580   8.935  0.2466 -0.3027  0.4719
 3284TIP3    H134047   2.242   5.566   8.845  0.0265  0.7095  0.2241
 3284TIP3    H234048   2.121   5.550   8.934  0.1685 -0.0647  0.2872
 3285TIP3   OH234049   6.363   4.455   9.224 -0.0340 -0.2026 -0.0521
 3285TIP3    H134050   6.393   4.545   9.238 -0.7506 -0.1520  1.3725
 3285TIP3    H234051   6.360   4.417   9.312  1.8454 -2.1829 -0.7570
 3286TIP3   OH234052   2.980   2.014   8.409 -0.6944 -0.0085  0.3021
 3286TIP3    H134053   3.049   2.077   8.430  0.2362 -0.6098 -0.8279
 3286TIP3    H234054   2.959   1.972   8.492  0.4833  0.0085  0.6315
 3287TIP3   OH234055   2.397   6.058   7.786 -0.1785  0.4538 -0.0627
 3287TIP3    H134056   2.400   5.963   7.799 -0.9313  0.0897 -2.0970
 3287TIP3    H234057   2.397   6.069   7.691  1.0251  2.5651  0.1179
 3288TIP3   OH234058   3.395   7.379   9.122 -0.4218 -0.4145  0.4103
 3288TIP3    H134059   3.328   7.408   9.184 -0.4174  0.6175 -0.0557
 3288TIP3    H234060   3.461   7.336   9.176 -0.3184  0.6581  1.1429
 3289TIP3   OH234061   2.928   7.154   7.465 -0.1089 -0.1740 -0.2881
 3289TIP3    H134062   2.860   7.212   7.500 -1.2223 -1.0253 -0.9633
 3289TIP3    H234063   2.930   7.174   7.371  0.0637 -0.6424 -0.3865
 3290TIP3   OH234064   1.532   5.192   7.292  0.1076 -0.4235  0.0506
 3290TIP3    H134065   1.577   5.273   7.268  0.1537 -0.9784 -1.9069
 3290TIP3    H234066   1.466   5.219   7.355  1.4236  0.8120  0.9770
 3291TIP3   OH234067   3.701   1.316   7.575  0.2826 -0.2481  0.4488
 3291TIP3    H134068   3.633   1.383   7.590  0.4928 -0.2691  1.6486
 3291TIP3    H234069   3.711   1.312   7.480 -0.5606  0.6003  0.3078
 3292TIP3   OH234070   5.539   2.560   7.603 -0.4404  0.0799 -0.1256
 3292TIP3    H134071   5.564   2.627   7.538  0.8816  0.6336  0.9210
 3292TIP3    H234072   5.470   2.602   7.654 -1.1246 -0.1707 -0.8147
 3293TIP3   OH234073   2.679   2.157   7.815  0.1825  0.3213  0.0564
 3293TIP3    H134074   2.744   2.223   7.840 -0.1558  0.1252  1.5149
 3293TIP3    H234075   2.621   2.149   7.891 -1.2437  0.0967 -1.0139
 3294TIP3   OH234076   2.681   0.938   8.944  0.6525 -0.2431 -0.1052
 3294TIP3    H134077   2.761   0.984   8.968  1.4515 -1.1754 -0.9053
 3294TIP3    H234078   2.651   0.980   8.863 -1.2573  1.9549  1.6122
 3295TIP3   OH234079   0.644   7.100   8.827 -0.3204  0.6292 -0.2290
 3295TIP3    H134080   0.719   7.058   8.869  0.8853  4.0477  1.3870
 3295TIP3    H234081   0.571   7.087   8.888  0.0893  1.0085  0.3509
 3296TIP3   OH234082   0.391   7.527   8.978  0.3099  0.1719 -0.0596
 3296TIP3    H134083   0.323   7.513   9.044 -0.0665  0.2946 -0.4149
 3296TIP3    H234084   0.473   7.529   9.027 -0.0004  0.6169  0.4453
 3297TIP3   OH234085   0.401   0.131   7.576 -0.2106  0.4398  0.4208
 3297TIP3    H134086   0.445   0.167   7.499  0.7197  0.8941  1.1397
 3297TIP3    H234087   0.425   0.038   7.576 -2.1983 -0.1406 -1.1516
 3298TIP3   OH234088   4.829   5.695   9.670 -0.3963 -0.6851 -0.4572
 3298TIP3    H134089   4.750   5.689   9.724  0.3164 -3.0021  0.4799
 3298TIP3    H234090   4.870   5.609   9.679  2.0527  0.3224 -1.1926
 3299TIP3   OH234091   5.938   1.386   7.922 -0.4022  0.1113  0.5754
 3299TIP3    H134092   5.862   1.442   7.940  0.2134  1.0141  0.4699
 3299TIP3    H234093   5.924   1.355   7.833 -0.0556  1.2999  0.0788
 3300TIP3   OH234094   0.139   2.825   9.454  0.4901  0.1001 -0.4238
 3300TIP3    H134095   0.087   2.905   9.454  1.9322  1.0772  0.0293
 3300TIP3    H234096   0.226   2.853   9.483  0.8881 -1.7245  0.2880
 3301TIP3   OH234097   5.228   2.172   8.132 -0.1160 -0.2998  0.5186
 3301TIP3    H134098   5.215   2.116   8.208  0.0760 -1.3608 -0.2030
 3301TIP3    H234099   5.321   2.194   8.134  0.3595 -2.0059 -0.4831
 3302TIP3   OH234100   1.691   3.404   7.297 -0.5331 -0.3925  0.5553
 3302TIP3    H134101   1.768   3.355   7.268  0.4891  1.2311  0.4183
 3302TIP3    H234102   1.726   3.489   7.325 -2.2560  0.2996  0.6997
 3303TIP3   OH234103   4.726   0.907   9.107 -0.3689  0.3063  0.2840
 3303TIP3    H134104   4.788   0.980   9.106 -2.5630  2.2830  0.2693
 3303TIP3    H234105   4.737   0.867   9.193  1.8448 -0.3300 -0.2157
 3304TIP3   OH234106   3.038   7.266   8.615  0.3477  0.5840 -0.1622
 3304TIP3    H134107   2.960   7.274   8.670 -0.6964 -1.0571 -1.3308
 3304TIP3    H234108   3.025   7.331   8.546 -0.9561 -0.9233 -1.4062
 3305TIP3   OH234109   3.584   6.987   9.221 -0.0943 -0.2004 -0.8986
 3305TIP3    H134110   3.594   7.017   9.311 -0.5914  0.5737 -1.0907
 3305TIP3    H234111   3.631   7.052   9.168  0.8230 -1.0485 -1.1494
 3306TIP3   OH234112   1.740   0.601   9.454  0.0454  0.5000  0.6105
 3306TIP3    H134113   1.762   0.651   9.532 -0.6190  1.0023  0.4800
 3306TIP3    H234114   1.724   0.667   9.387 -2.5857  0.2402  0.8797
 3307TIP3   OH234115   6.897   3.457   8.268  0.6363 -0.6146 -0.2242
 3307TIP3    H134116   6.884   3.405   8.347  0.2312 -0.0529  0.0893
 3307TIP3    H234117   6.812   3.497   8.251  1.0193  0.2161 -0.2579
 3308TIP3   OH234118   0.318   7.394   9.650 -0.4976 -0.3201 -0.5662
 3308TIP3    H134119   0.228   7.427   9.658 -0.6458 -0.8420 -0.0408
 3308TIP3    H234120   0.335   7.396   9.556  0.0582  2.6931 -0.4919
 3309TIP3   OH234121   1.480   3.956   7.269  0.5162 -0.1645 -0.0028
 3309TIP3    H134122   1.484   4.024   7.202  0.8385 -0.3254 -0.1518
 3309TIP3    H234123   1.501   3.875   7.221  0.4398 -0.3245  0.2320
 3310TIP3   OH234124   2.358   6.825   8.480 -0.1748  0.7625  0.3131
 3310TIP3    H134125   2.382   6.741   8.440 -1.8416 -0.2034  1.2142
 3310TIP3    H234126   2.439   6.856   8.521  0.1688 -1.1722  1.2333
 3311TIP3   OH234127   0.817   6.653   8.881 -0.4871 -0.3464 -0.2010
 3311TIP3    H134128   0.787   6.624   8.967  0.4480 -0.9224 -0.0518
 3311TIP3    H234129   0.900   6.607   8.868 -1.2977 -1.4156 -2.0429
 3312TIP3   OH234130   0.545   0.007   9.565 -0.1809 -0.0880 -0.4302
 3312TIP3    H134131   0.597  -0.073   9.571  0.4615  0.2967 -0.7515
 3312TIP3    H234132   0.545   0.044   9.654 -0.1135 -0.2183 -0.3769
 3313TIP3   OH234133   2.694   5.393   8.394  0.0420  0.3189  0.0994
 3313TIP3    H134134   2.613   5.371   8.349  0.6688  0.8681 -1.3836
 3313TIP3    H234135   2.671   5.465   8.452 -0.6516  0.0684  0.1422
 3314TIP3   OH234136   2.991   1.034   7.910  0.3263  0.2357 -0.1840
 3314TIP3    H134137   3.054   0.983   7.962 -0.5287  0.3115  0.9791
 3314TIP3    H234138   2.947   0.969   7.855 -1.1540 -0.4322  1.6904
 3315TIP3   OH234139   6.887   4.255   8.649 -0.3439 -0.2479 -0.3241
 3315TIP3    H134140   6.887   4.262   8.744 -1.2264  0.0425 -0.3297
 3315TIP3    H234141   6.794   4.265   8.625 -0.2459 -1.1821 -1.1489
 3316TIP3   OH234142   4.604   2.053   8.121 -0.2290  0.4188  0.6730
 3316TIP3    H134143   4.567   2.091   8.041  1.2990 -0.8031 -0.6790
 3316TIP3    H234144   4.569   1.964   8.124  2.1026 -0.6104 -0.3958
 3317TIP3   OH234145   6.320   2.469   9.155  0.1119 -0.3080  0.4074
 3317TIP3    H134146   6.377   2.512   9.219 -0.9399 -0.2327  1.3318
 3317TIP3    H234147   6.289   2.541   9.099  1.5853 -0.4676 -0.6752
 3318TIP3   OH234148   0.407   0.664   9.520  0.1782  0.2514 -0.5201
 3318TIP3    H134149   0.316   0.660   9.490  0.2712 -0.3847 -0.7386
 3318TIP3    H234150   0.410   0.740   9.578 -0.9636 -0.8507  1.0507
 3319TIP3   OH234151   3.966   2.772   7.728 -0.0197 -0.5370  0.6260
 3319TIP3    H134152   4.056   2.806   7.729  0.0163 -0.4846 -1.0485
 3319TIP3    H234153   3.934   2.793   7.640 -0.9379 -2.4378  0.4635
 3320TIP3   OH234154   6.410   1.400   8.934 -0.2086 -0.1438  0.1338
 3320TIP3    H134155   6.485   1.430   8.985 -0.0716 -2.5853  1.5387
 3320TIP3    H234156   6.334   1.419   8.989 -0.2944 -0.6058  0.1808
 3321TIP3   OH234157   4.745   2.609   9.719  0.5773  0.1170  0.3128
 3321TIP3    H134158   4.688   2.611   9.642  1.5091 -1.7775 -0.5099
 3321TIP3    H234159   4.686   2.587   9.792  0.1716 -1.7260 -0.5029
 3322TIP3   OH234160   0.564   4.055   6.754  0.2066  0.3815  0.3334
 3322TIP3    H134161   0.482   4.102   6.742  0.4587  1.0119  0.9808
 3322TIP3    H234162   0.538   3.969   6.787 -0.1706  0.8143  1.1949
 3323TIP3   OH234163   4.796   2.553   8.677  0.2042  0.1717 -0.0980
 3323TIP3    H134164   4.739   2.514   8.743  0.0678  0.9719  0.2744
 3323TIP3    H234165   4.828   2.634   8.717 -0.9168  1.3616 -1.4497
 3324TIP3   OH234166   5.527   0.538   7.201  0.3794  0.0137  0.6084
 3324TIP3    H134167   5.489   0.571   7.283  0.3936  0.4134  0.4599
 3324TIP3    H234168   5.457   0.485   7.162 -0.3652  1.4234 -0.0669
 3325TIP3   OH234169   5.054   7.124   7.388  0.0007  0.2872 -0.2758
 3325TIP3    H134170   5.114   7.051   7.376 -1.2890 -0.7407 -0.6173
 3325TIP3    H234171   5.004   7.129   7.307 -0.8677  0.6727  0.2622
 3326TIP3   OH234172   2.975   3.020   8.413  0.3905 -0.2733 -0.0477
 3326TIP3    H134173   3.035   2.946   8.422 -0.8867 -1.6192 -1.7759
 3326TIP3    H234174   3.021   3.093   8.453  2.7956 -1.4275 -0.5030
 3327TIP3   OH234175   6.770   4.706   8.741 -0.6019 -0.0094  0.0771
 3327TIP3    H134176   6.754   4.690   8.834  1.1605  2.4805  0.8991
 3327TIP3    H234177   6.846   4.651   8.721  0.0676  0.7002  0.5938
 3328TIP3   OH234178   1.014   6.137   8.136  0.0997  0.2449  0.1721
 3328TIP3    H134179   1.077   6.208   8.151 -0.7169  1.0446 -0.1003
 3328TIP3    H234180   0.929   6.181   8.133 -0.3885 -0.7162 -0.3130
 3329TIP3   OH234181   3.399   7.295   7.542  0.3304 -0.3962  0.1562
 3329TIP3    H134182   3.435   7.235   7.476  0.5488 -0.5678  0.4313
 3329TIP3    H234183   3.393   7.379   7.496 -2.6388 -1.1807 -1.1684
 3330TIP3   OH234184   7.579   2.025   8.581 -0.2595  0.7918 -0.0712
 3330TIP3    H134185   7.608   1.985   8.663 -0.5013 -0.1156 -0.4237
 3330TIP3    H234186   7.484   2.025   8.586 -0.2700  1.0186 -0.2271
 3331TIP3   OH234187   5.843   6.979   8.513  0.1568  0.1873  0.1399
 3331TIP3    H134188   5.793   6.944   8.586  0.3581  0.6123  0.4919
 3331TIP3    H234189   5.797   6.950   8.435  0.8760 -1.7189  0.3787
 3332TIP3   OH234190   3.526   2.951   7.255 -0.1296  0.1168  0.1522
 3332TIP3    H134191   3.547   2.873   7.204  1.1966 -0.3313  1.3280
 3332TIP3    H234192   3.501   3.016   7.190 -1.4770 -1.3154 -0.8520
 3333TIP3   OH234193   2.488   7.240   7.111  0.1880  0.4035  0.4969
 3333TIP3    H134194   2.509   7.248   7.017 -1.0168 -0.8788  0.0770
 3333TIP3    H234195   2.510   7.149   7.131 -2.2306 -0.1763  0.7184
 3334TIP3   OH234196   5.440   3.020   9.519  0.6261 -0.3537 -0.2647
 3334TIP3    H134197   5.477   3.106   9.498 -1.1027  0.1857 -1.3267
 3334TIP3    H234198   5.513   2.970   9.556  2.6924  0.2903 -3.1650
 3335TIP3   OH234199   4.598   7.153   7.918 -0.1817  0.2418  0.1124
 3335TIP3    H134200   4.694   7.159   7.920 -0.2493  1.4774  0.5995
 3335TIP3    H234201   4.575   7.177   7.828 -0.0293 -0.4651 -0.1260
 3336TIP3   OH234202   6.313   1.014   8.705 -0.1866 -0.6164  0.7007
 3336TIP3    H134203   6.376   0.993   8.773 -1.4256  0.4714  2.2416
 3336TIP3    H234204   6.364   1.012   8.624  2.1644  1.4949  2.0030
 3337TIP3   OH234205   3.651   2.533   8.819  0.2097  0.1077  0.1753
 3337TIP3    H134206   3.682   2.498   8.735 -1.2390  1.8567 -1.1799
 3337TIP3    H234207   3.600   2.461   8.857  0.4695 -0.5662 -0.6975
 3338TIP3   OH234208   0.113   3.675   7.943 -0.7769 -0.3915  0.6758
 3338TIP3    H134209   0.085   3.735   7.874 -1.5075 -0.6586  0.7330
 3338TIP3    H234210   0.181   3.621   7.902  1.7125  2.0260  1.2792
 3339TIP3   OH234211   0.488   5.401   7.034  0.2414  0.7083  0.0366
 3339TIP3    H134212   0.469   5.432   6.945  1.2733  2.3224  0.3396
 3339TIP3    H234213   0.556   5.336   7.022  0.5326  1.0753 -0.3574
 3340TIP3   OH234214   6.834   0.528   9.238 -0.0592  0.0006  0.2912
 3340TIP3    H134215   6.777   0.552   9.165 -0.6243  0.3338  0.8313
 3340TIP3    H234216   6.806   0.585   9.310  1.0128  0.2265  0.5443
 3341TIP3   OH234217   0.606   5.674   8.877  0.0809 -0.6917 -0.3119
 3341TIP3    H134218   0.580   5.696   8.966  0.0353  2.8529 -1.0634
 3341TIP3    H234219   0.527   5.639   8.837 -1.1129  1.4669 -0.0185
 3342TIP3   OH234220   2.030   3.595   8.154 -0.5830 -0.0761 -0.4186
 3342TIP3    H134221   2.033   3.689   8.136 -0.7128  0.2317  1.0710
 3342TIP3    H234222   2.122   3.567   8.151 -0.5811 -0.0272 -1.3359
 3343TIP3   OH234223   4.994   4.970   8.674  0.5702 -0.3003 -0.2585
 3343TIP3    H134224   5.053   4.976   8.750 -0.1233 -0.3392  0.2956
 3343TIP3    H234225   5.024   4.894   8.625  1.1305 -0.1769 -0.1087
 3344TIP3   OH234226   3.233   7.531   9.308 -0.1689  0.5609  0.1073
 3344TIP3    H134227   3.145   7.535   9.345 -0.6739 -1.9049 -0.6693
 3344TIP3    H234228   3.281   7.473   9.367  0.3306  0.2744 -0.5642
 3345TIP3   OH234229   5.526   5.893   9.449  0.0502  0.1261 -0.4174
 3345TIP3    H134230   5.453   5.846   9.409 -0.7952  0.8803  0.1906
 3345TIP3    H234231   5.487   5.939   9.524  1.1376  0.5917 -0.1138
 3346TIP3   OH234232   6.833   4.926   8.963 -0.8171  0.2433  0.1853
 3346TIP3    H134233   6.755   4.971   8.931 -0.3491  0.1779 -1.1448
 3346TIP3    H234234   6.806   4.834   8.972 -0.7048  0.0685 -1.0648
 3347TIP3   OH234235   0.868   3.334   7.748  0.0170  0.4160 -0.1633
 3347TIP3    H134236   0.888   3.316   7.656 -0.0522  0.2839 -0.1533
 3347TIP3    H234237   0.941   3.294   7.796 -1.4711 -2.3443  0.0368
 3348TIP3   OH234238   6.079   7.412   7.862  0.0464  0.1652 -0.4853
 3348TIP3    H134239   6.063   7.390   7.954 -2.3722 -0.6791 -1.0377
 3348TIP3    H234240   5.996   7.395   7.818  0.4108  2.8448 -2.4488
 3349TIP3   OH234241   7.661   0.421   9.370 -0.0294  0.0704  0.0620
 3349TIP3    H134242   7.652   0.354   9.303  0.3961  0.4614 -0.3977
 3349TIP3    H234243   7.740   0.397   9.418  1.8116  1.7824 -1.9421
 3350TIP3   OH234244   2.435   4.671   9.128 -0.6195 -0.4034 -0.0554
 3350TIP3    H134245   2.429   4.765   9.140 -2.0004 -0.3067 -1.2641
 3350TIP3    H234246   2.524   4.649   9.156 -1.1912  0.7859  3.0398
 3351TIP3   OH234247   1.120   4.511   8.195  0.2114  0.1369 -0.4304
 3351TIP3    H134248   1.126   4.579   8.261  0.7962 -0.7926  0.5210
 3351TIP3    H234249   1.038   4.527   8.149  0.5863  1.7612 -0.5746
 3352TIP3   OH234250   3.931   0.233   9.244 -0.1401  0.1226 -0.2424
 3352TIP3    H134251   4.024   0.221   9.266 -0.7664 -1.4027  1.9810
 3352TIP3    H234252   3.913   0.164   9.180 -0.0552 -0.5647  0.4571
 3353TIP3   OH234253   0.092   0.283   8.002 -0.4305  0.1582 -0.8033
 3353TIP3    H134254   0.132   0.278   8.088 -1.5670  1.3761 -0.1676
 3353TIP3    H234255   0.131   0.211   7.953 -0.1153 -0.8562  0.8665
 3354TIP3   OH234256   2.776   1.969   7.139  0.5447 -0.3853 -0.0062
 3354TIP3    H134257   2.746   1.913   7.067 -1.7684 -0.7199  1.1152
 3354TIP3    H234258   2.865   1.995   7.114  0.5688 -2.1090 -1.9862
 3355TIP3   OH234259   0.889   7.042   7.213  0.1112  0.2043 -0.8250
 3355TIP3    H134260   0.801   7.074   7.193  0.4012  1.4646 -0.1493
 3355TIP3    H234261   0.936   7.050   7.130 -0.6812 -1.5354 -1.4959
 3356TIP3   OH234262   4.088   0.669   8.508 -0.0774  0.4360 -0.3784
 3356TIP3    H134263   4.167   0.693   8.556  0.1668  0.6140 -0.8636
 3356TIP3    H234264   4.017   0.708   8.558  0.2165  1.0993 -0.4625
 3357TIP3   OH234265   6.135   6.253   8.644 -0.3641  0.2611 -0.7356
 3357TIP3    H134266   6.107   6.290   8.560  1.4903 -0.8195 -1.8896
 3357TIP3    H234267   6.210   6.307   8.670 -1.0337  0.7016  0.3551
 3358TIP3   OH234268   5.804   2.968   9.350  0.1579  0.5674  0.4778
 3358TIP3    H134269   5.753   3.044   9.322 -1.5015 -0.8427 -0.5807
 3358TIP3    H234270   5.883   3.005   9.389 -0.6587  2.8183  0.1729
 3359TIP3   OH234271   1.096   6.785   7.303 -0.3008  0.1520  0.2699
 3359TIP3    H134272   1.034   6.760   7.235 -0.3331 -1.6348  0.9067
 3359TIP3    H234273   1.160   6.839   7.258 -0.1877 -1.1808 -1.2595
 3360TIP3   OH234274   0.526   0.378   7.996 -0.4499  0.0433 -0.2791
 3360TIP3    H134275   0.619   0.362   7.984 -0.6515 -0.3552 -1.4328
 3360TIP3    H234276   0.514   0.385   8.090  0.7600  0.1943 -0.1304
 3361TIP3   OH234277   7.202   4.622   8.042  0.3868 -0.1023 -0.1674
 3361TIP3    H134278   7.272   4.640   7.979  0.3692 -0.1170 -0.1908
 3361TIP3    H234279   7.124   4.662   8.003  0.6585  1.1192  0.5006
 3362TIP3   OH234280   5.871   6.269   8.494  0.4348 -0.3713 -0.6822
 3362TIP3    H134281   5.948   6.297   8.444 -0.1127  0.0984 -1.2877
 3362TIP3    H234282   5.854   6.180   8.465  2.5553 -1.6541  1.6977
 3363TIP3   OH234283   1.182   7.118   7.298  0.2527 -0.5079 -0.1114
 3363TIP3    H134284   1.230   7.054   7.244 -0.3367 -1.1306  0.0811
 3363TIP3    H234285   1.203   7.203   7.259  2.3021 -0.6392  0.5625
 3364TIP3   OH234286   2.430   2.248   9.239  0.0182 -0.3913 -0.1017
 3364TIP3    H134287   2.368   2.321   9.245 -0.2505 -0.6753  0.7404
 3364TIP3    H234288   2.378   2.171   9.264  0.7662 -0.6014  0.8561
 3365TIP3   OH234289   2.488   0.276   7.142 -0.9010 -0.2758 -0.1336
 3365TIP3    H134290   2.535   0.273   7.059  1.2921 -0.7954  1.0726
 3365TIP3    H234291   2.464   0.369   7.152  0.5700  0.1600 -0.4288
 3366TIP3   OH234292   7.195   2.193   7.435  0.5150  0.3231 -0.0696
 3366TIP3    H134293   7.218   2.285   7.421 -0.7503  0.5114 -1.0763
 3366TIP3    H234294   7.114   2.181   7.386  1.3729 -1.6910 -1.0901
 3367TIP3   OH234295   0.736   6.944   8.559 -0.4497 -0.4234  0.5082
 3367TIP3    H134296   0.752   6.998   8.636  0.6000 -1.1266  0.8011
 3367TIP3    H234297   0.704   6.861   8.593  1.2863 -1.2143  0.3032
 3368TIP3   OH234298   5.674   0.050   7.806 -0.4437 -0.3841  0.0017
 3368TIP3    H134299   5.743   0.065   7.741 -0.1858  2.2231  0.7501
 3368TIP3    H234300   5.719   0.053   7.890 -1.3164  0.4146  0.4571
 3369TIP3   OH234301   0.120   1.751   8.813  0.9302 -0.3566  0.1844
 3369TIP3    H134302   0.049   1.687   8.817  1.2551 -0.7797 -0.6014
 3369TIP3    H234303   0.085   1.829   8.856 -1.0148  0.3771 -2.4325
 3370TIP3   OH234304   4.541   1.873   9.315  0.8122  0.3718 -0.7932
 3370TIP3    H134305   4.616   1.813   9.313 -0.3926 -1.1603 -1.0012
 3370TIP3    H234306   4.476   1.829   9.369 -0.2576  1.3002 -1.2905
 3371TIP3   OH234307   2.542   5.311   8.972 -0.0054 -0.2881 -0.3307
 3371TIP3    H134308   2.525   5.355   8.889  0.2676  0.0675 -0.1986
 3371TIP3    H234309   2.631   5.278   8.964  0.2070  0.1894  0.0122
 3372TIP3   OH234310   3.354   4.229   8.051  0.4656 -0.3026 -0.3547
 3372TIP3    H134311   3.360   4.291   7.979  0.3359  0.4883  0.2967
 3372TIP3    H234312   3.269   4.186   8.041  0.7868 -0.7766 -1.1147
 3373TIP3   OH234313   6.595   4.043   8.062  0.6926 -0.6286 -0.3155
 3373TIP3    H134314   6.571   4.112   8.001 -1.5795 -0.9496  0.1254
 3373TIP3    H234315   6.545   3.967   8.033  2.3640 -1.8399 -0.1920
 3374TIP3   OH234316   5.858   3.720   7.475 -0.7342 -0.0020  0.2914
 3374TIP3    H134317   5.867   3.691   7.384 -1.0345  0.0619  0.2395
 3374TIP3    H234318   5.944   3.704   7.514  0.0218  1.8000 -0.5317
 3375TIP3   OH234319   3.306   7.097   7.847 -0.0181 -0.1600 -0.2553
 3375TIP3    H134320   3.363   7.171   7.827 -0.4783 -0.4432 -3.0958
 3375TIP3    H234321   3.251   7.088   7.769 -1.3187 -2.2750  0.8138
 3376TIP3   OH234322   3.173   4.008   8.232 -0.0792 -0.0720 -0.1246
 3376TIP3    H134323   3.149   3.921   8.201 -1.0829  0.3979 -0.6975
 3376TIP3    H234324   3.117   4.068   8.183  2.0300  1.0832 -1.2755
 3377TIP3   OH234325   5.495   6.921   9.026 -0.0457 -0.3582  0.0039
 3377TIP3    H134326   5.472   7.007   8.992  2.5114  0.0410 -0.9536
 3377TIP3    H234327   5.411   6.876   9.035 -1.3067  1.5360 -1.3767
 3378TIP3   OH234328   2.722   5.728   9.457  0.5169 -0.1828  0.1749
 3378TIP3    H134329   2.744   5.814   9.495  0.1648  0.2946 -0.6739
 3378TIP3    H234330   2.677   5.749   9.375  0.3777 -1.1869 -0.0159
 3379TIP3   OH234331   1.974   3.328   8.067 -0.1877  0.4043  0.5529
 3379TIP3    H134332   1.972   3.420   8.092 -0.5364  0.3375  0.7844
 3379TIP3    H234333   1.927   3.325   7.984 -0.1847  0.4338  0.5507
 3380TIP3   OH234334   7.088   5.605   9.248  0.0104 -0.0793 -0.7052
 3380TIP3    H134335   7.082   5.522   9.200  0.6206 -1.1261  0.9808
 3380TIP3    H234336   7.006   5.609   9.298 -0.3495  0.7196 -1.3321
 3381TIP3   OH234337   0.238   6.492   8.550  0.1340 -0.6473  0.0610
 3381TIP3    H134338   0.168   6.550   8.520  1.0529 -0.0601 -1.0251
 3381TIP3    H234339   0.274   6.454   8.470  3.1638  1.5324  0.2280
 3382TIP3   OH234340   7.573   4.814   8.928  0.7699 -0.0037  0.1678
 3382TIP3    H134341   7.665   4.792   8.914  0.7382  0.3990 -0.7548
 3382TIP3    H234342   7.524   4.746   8.883  0.5961 -0.4255  0.9691
 3383TIP3   OH234343   1.195   1.092   9.358 -0.0388 -0.2776  0.1499
 3383TIP3    H134344   1.122   1.140   9.396 -1.1473 -1.3402 -0.5760
 3383TIP3    H234345   1.221   1.143   9.281  0.1123  0.1980  0.5156
 3384TIP3   OH234346   4.089   0.247   7.328 -0.3946  0.4605  0.7344
 3384TIP3    H134347   4.082   0.279   7.238 -1.2204 -1.9734 -0.1271
 3384TIP3    H234348   4.000   0.257   7.363  0.5366  4.5416  2.5661
 3385TIP3   OH234349   7.568   2.092   6.928 -0.5648 -0.1947 -0.7897
 3385TIP3    H134350   7.596   2.004   6.903  0.8958 -0.2245  0.7433
 3385TIP3    H234351   7.594   2.148   6.855  1.8210 -0.5350 -0.2916
 3386TIP3   OH234352   0.012   2.447   7.759  0.7594  0.6511  0.3341
 3386TIP3    H134353   0.052   2.402   7.684  1.5153 -0.8796  1.5898
 3386TIP3    H234354   0.081   2.504   7.793  0.4994  1.1515  0.0386
 3387TIP3   OH234355   3.414   2.459   7.560 -0.0827  0.1914 -0.1331
 3387TIP3    H134356   3.350   2.480   7.628  1.3461  0.2315  1.2709
 3387TIP3    H234357   3.427   2.364   7.568 -0.3629  0.1010 -0.7696
 3388TIP3   OH234358   3.855   6.610   8.725 -0.3188 -0.2597 -0.5094
 3388TIP3    H134359   3.872   6.550   8.653  0.1465 -0.6959 -0.0389
 3388TIP3    H234360   3.871   6.697   8.688  1.3102 -0.5513 -0.5629
 3389TIP3   OH234361   6.418   5.686   7.625 -0.1208  0.6801  0.3127
 3389TIP3    H134362   6.461   5.611   7.666 -0.9341  0.3313  0.5419
 3389TIP3    H234363   6.461   5.694   7.539  0.7981  0.7089  0.7590
 3390TIP3   OH234364   0.619   7.084   6.353 -0.1108 -0.2013  0.2756
 3390TIP3    H134365   0.553   7.102   6.286  0.4316  1.6998  0.1857
 3390TIP3    H234366   0.575   7.105   6.436  0.7019  2.5298  0.1367
 3391TIP3   OH234367   2.595   1.360   8.483 -0.2494  0.8852 -0.0018
 3391TIP3    H134368   2.532   1.289   8.469 -2.0725  1.9937  1.9460
 3391TIP3    H234369   2.680   1.321   8.463 -1.2899 -1.4888 -0.1489
 3392TIP3   OH234370   6.716   5.643   8.043  0.2836  0.5806  0.5882
 3392TIP3    H134371   6.656   5.706   8.084 -1.3890 -0.7852  0.3442
 3392TIP3    H234372   6.775   5.618   8.114 -0.2501  0.9953  1.1974
 3393TIP3   OH234373   7.272   1.251   9.128  0.6193  0.4667  0.4564
 3393TIP3    H134374   7.268   1.331   9.076  2.0182  0.2140 -0.0882
 3393TIP3    H234375   7.361   1.218   9.115  0.3469 -0.7152  1.3660
 3394TIP3   OH234376   2.888   4.900   7.677 -0.5710 -0.6916 -0.4944
 3394TIP3    H134377   2.891   4.868   7.767 -0.6507 -1.5957 -0.8007
 3394TIP3    H234378   2.823   4.845   7.634  0.9025 -1.6529 -1.6174
 3395TIP3   OH234379   7.617   4.274   9.122 -0.0027  0.2718  0.4079
 3395TIP3    H134380   7.683   4.208   9.100 -0.0943  0.2647  0.1539
 3395TIP3    H234381   7.593   4.313   9.038 -0.2243  0.3670  0.5147
 3396TIP3   OH234382   7.179   0.994   7.532 -0.3324  0.6794 -0.2181
 3396TIP3    H134383   7.209   1.085   7.539 -0.9250  0.7980  1.0321
 3396TIP3    H234384   7.092   1.001   7.492  0.7107  0.4241 -2.7030
 3397TIP3   OH234385   2.469   5.626   7.513  0.1510 -0.5145  0.0802
 3397TIP3    H134386   2.419   5.546   7.527 -1.5306  0.6147  0.9058
 3397TIP3    H234387   2.507   5.647   7.598  0.0008 -0.0898  0.0498
 3398TIP3   OH234388   1.338   1.244   6.893 -0.3086  0.2312 -0.6637
 3398TIP3    H134389   1.252   1.245   6.935  0.2575  0.0418  0.5553
 3398TIP3    H234390   1.395   1.202   6.957  0.3419 -1.3151 -2.1954
 3399TIP3   OH234391   3.010   4.290   9.095 -0.7115  0.6814  0.1018
 3399TIP3    H134392   2.917   4.316   9.090 -0.9630  0.0669  1.2092
 3399TIP3    H234393   3.047   4.347   9.162 -0.4972  0.3500  0.2683
 3400TIP3   OH234394   5.965   1.238   7.679  0.0357 -0.3954 -0.7187
 3400TIP3    H134395   5.894   1.243   7.616  1.0205 -0.7859 -1.9036
 3400TIP3    H234396   5.989   1.145   7.681 -0.3007 -0.4737  0.6247
 3401TIP3   OH234397   3.383   7.512   7.342  0.8043 -0.1032  0.5072
 3401TIP3    H134398   3.394   7.564   7.263 -0.5511  0.6447  0.7843
 3401TIP3    H234399   3.318   7.446   7.318 -0.8584  1.1380  1.4240
 3402TIP3   OH234400   3.786   3.993   8.805 -0.4563 -0.1667 -0.0028
 3402TIP3    H134401   3.740   3.974   8.723 -0.2148 -0.3608 -0.0932
 3402TIP3    H234402   3.722   4.040   8.858 -1.2412 -1.6427  0.4243
 3403TIP3   OH234403   6.572   0.320   7.464  0.1132  0.2497 -0.0545
 3403TIP3    H134404   6.655   0.355   7.432  0.5767 -0.8625 -0.1091
 3403TIP3    H234405   6.596   0.240   7.511 -0.9573 -0.2921 -0.4008
 3404TIP3   OH234406   0.726   3.287   8.848 -0.0221  0.2605 -0.2454
 3404TIP3    H134407   0.802   3.247   8.804  1.3778  1.5805  0.8483
 3404TIP3    H234408   0.706   3.227   8.920  0.2847  0.1266 -0.2699
 3405TIP3   OH234409   3.041   3.207   7.910 -0.1116 -0.2232 -0.1156
 3405TIP3    H134410   3.051   3.234   8.001 -2.6058 -1.3115  0.5736
 3405TIP3    H234411   2.967   3.146   7.911  1.9620 -3.0856 -2.3261
 3406TIP3   OH234412   1.637   4.256   9.142  0.0934  0.0279  0.4905
 3406TIP3    H134413   1.647   4.161   9.145 -0.0189  0.0351  1.0989
 3406TIP3    H234414   1.669   4.287   9.226  1.0344  0.6202 -0.0640
 3407TIP3   OH234415   0.719   4.626   7.320 -0.3166  0.6064  0.5350
 3407TIP3    H134416   0.753   4.606   7.233  0.3875 -0.3344  1.0066
 3407TIP3    H234417   0.706   4.721   7.319 -1.4860  0.4728 -0.9890
 3408TIP3   OH234418   6.613   1.519   8.205  0.0291  0.8628 -0.1736
 3408TIP3    H134419   6.613   1.424   8.195  0.1344  0.7182  0.9953
 3408TIP3    H234420   6.700   1.539   8.239  0.0687  1.3979 -0.5901
 3409TIP3   OH234421   0.236   6.782   7.346 -0.1966  0.1142 -0.4651
 3409TIP3    H134422   0.173   6.846   7.314  0.6938  1.1440 -0.2410
 3409TIP3    H234423   0.296   6.833   7.400 -0.1160 -1.1238  0.6539
 3410TIP3   OH234424   7.482   1.859   7.961 -0.0125 -0.2560 -0.4999
 3410TIP3    H134425   7.552   1.896   8.015 -1.2514 -0.8904  1.6356
 3410TIP3    H234426   7.473   1.921   7.889 -0.1362  2.1459  1.4613
 3411TIP3   OH234427   6.536   5.839   8.870 -0.0119 -0.1480  0.5272
 3411TIP3    H134428   6.498   5.925   8.889 -1.0816 -0.3582 -0.5324
 3411TIP3    H234429   6.557   5.802   8.956 -0.5755  0.7188  1.0546
 3412TIP3   OH234430   5.128   4.917   8.254  0.8747 -0.3238 -0.4736
 3412TIP3    H134431   5.037   4.896   8.274  0.5207  0.3692 -1.2423
 3412TIP3    H234432   5.155   4.849   8.193  0.4181  0.1996 -1.2947
 3413TIP3   OH234433   5.006   5.871   9.522  0.2897 -0.1570  0.1979
 3413TIP3    H134434   5.095   5.865   9.556  0.1279 -1.1989  0.4515
 3413TIP3    H234435   4.957   5.805   9.571 -0.4091 -0.2363 -0.5939
 3414TIP3   OH234436   0.898   4.882   8.653 -0.2147  0.4720 -0.0854
 3414TIP3    H134437   0.985   4.917   8.634 -0.0068 -0.2552 -0.5024
 3414TIP3    H234438   0.896   4.797   8.610 -0.6844 -0.0790  0.9871
 3415TIP3   OH234439   6.185   6.487   7.621  0.9698  0.0484 -0.0515
 3415TIP3    H134440   6.177   6.575   7.659  0.9337 -0.6004  1.4913
 3415TIP3    H234441   6.270   6.489   7.576  0.0222  1.5388 -1.9253
 3416TIP3   OH234442   6.491   1.063   9.528 -0.0433 -0.2737  0.1976
 3416TIP3    H134443   6.532   1.125   9.469 -0.7565  0.5823  0.5854
 3416TIP3    H234444   6.561   1.002   9.552  0.9941  1.1163  0.8090
 3417TIP3   OH234445   0.231   5.333   6.615 -0.5868 -0.3486  0.0231
 3417TIP3    H134446   0.162   5.394   6.641 -0.8276 -1.1505  1.3327
 3417TIP3    H234447   0.186   5.249   6.606 -0.0199 -0.6080 -0.5082
 3418TIP3   OH234448   1.685   1.439   6.811  0.2488  0.1958 -0.3603
 3418TIP3    H134449   1.753   1.485   6.860 -0.3383  1.5867 -0.8022
 3418TIP3    H234450   1.728   1.410   6.731  0.5354  0.3434 -0.2614
 3419TIP3   OH234451   0.006   0.243   9.105 -0.0366  0.2823 -0.1713
 3419TIP3    H134452  -0.063   0.248   9.038  0.5586  1.8749 -0.7297
 3419TIP3    H234453   0.073   0.303   9.073  0.8514  0.0624  1.2233
 3420TIP3   OH234454   4.837   3.608   7.804 -0.3688 -0.0251 -0.0225
 3420TIP3    H134455   4.762   3.570   7.758 -3.0661  2.0249  2.3406
 3420TIP3    H234456   4.798   3.666   7.869  3.2531 -0.2551  2.6336
 3421TIP3   OH234457   4.925   3.857   9.279 -0.3411  0.2162 -0.3087
 3421TIP3    H134458   4.938   3.938   9.232 -0.3308 -0.5984 -1.7629
 3421TIP3    H234459   5.004   3.846   9.332 -0.4201  1.2142  0.0246
 3422TIP3   OH234460   4.115   6.247   7.562  0.1514 -0.1921 -0.5217
 3422TIP3    H134461   4.118   6.324   7.619  0.1261  0.3746 -1.2744
 3422TIP3    H234462   4.074   6.278   7.482 -1.6851 -1.4724 -0.1310
 3423TIP3   OH234463   4.831   6.157   6.826  0.2670  0.4054  0.2020
 3423TIP3    H134464   4.807   6.245   6.854 -0.5070 -0.2325  1.6628
 3423TIP3    H234465   4.751   6.121   6.790  0.2718 -0.0699  0.6495
 3424TIP3   OH234466   1.446   7.255   9.096  0.1968  0.3436  0.2896
 3424TIP3    H134467   1.435   7.349   9.113 -1.4958  0.3995 -0.9345
 3424TIP3    H234468   1.471   7.250   9.004  0.4546 -0.3973  0.3965
 3425TIP3   OH234469   6.408   0.953   8.206 -0.1906  0.2766  0.1494
 3425TIP3    H134470   6.352   0.890   8.161  1.0818 -0.4555 -0.4341
 3425TIP3    H234471   6.375   1.038   8.178 -1.4708 -0.1144  0.3935
 3426TIP3   OH234472   5.840   5.109   8.635  0.6487 -0.0028  0.2275
 3426TIP3    H134473   5.813   5.018   8.649 -0.8900 -0.0155 -2.1552
 3426TIP3    H234474   5.881   5.109   8.548 -0.6769  1.7832 -0.4608
 3427TIP3   OH234475   5.445   4.561   9.537 -0.2364 -0.6237 -0.2901
 3427TIP3    H134476   5.528   4.552   9.583 -0.7725  0.3085  0.9033
 3427TIP3    H234477   5.421   4.472   9.511  1.1285 -0.8976 -0.6806
 3428TIP3   OH234478   7.288   0.717   7.887  0.3867  0.1240 -0.2763
 3428TIP3    H134479   7.295   0.630   7.927  0.1398  0.2230 -0.0219
 3428TIP3    H234480   7.325   0.776   7.952  0.7825  0.1821 -0.5513
 3429TIP3   OH234481   5.309   2.442   8.632  0.4770 -0.5223  0.6173
 3429TIP3    H134482   5.251   2.453   8.556  0.8351  0.4312  0.4547
 3429TIP3    H234483   5.319   2.531   8.666  1.1710 -0.7961  1.1415
 3430TIP3   OH234484   1.626   2.862   8.993 -0.1261 -0.1074 -0.7609
 3430TIP3    H134485   1.533   2.848   8.974 -0.9715  0.8486  2.2368
 3430TIP3    H234486   1.646   2.947   8.955 -0.9708  0.4614  0.0311
 3431TIP3   OH234487   6.537   5.472   9.441 -0.1278 -0.9837  0.2327
 3431TIP3    H134488   6.544   5.533   9.368  2.4999 -1.0607  0.3487
 3431TIP3    H234489   6.566   5.388   9.406  1.1794 -1.0209  1.3194
 3432TIP3   OH234490   3.201   0.596   8.568  0.5841 -0.5834 -0.3405
 3432TIP3    H134491   3.153   0.556   8.640  1.6148 -3.6814 -1.2135
 3432TIP3    H234492   3.293   0.587   8.592  0.9382  2.3794 -0.1430
 3433TIP3   OH234493   4.031   1.671   7.740  0.3645 -0.1549 -0.1545
 3433TIP3    H134494   4.103   1.663   7.802 -0.4435 -1.3055  0.6901
 3433TIP3    H234495   4.065   1.636   7.658  1.8108  2.4036 -0.7724
 3434TIP3   OH234496   4.567   4.751   9.218 -0.4340  0.3453  0.3528
 3434TIP3    H134497   4.656   4.719   9.235 -0.7050 -0.1266  0.9374
 3434TIP3    H234498   4.510   4.684   9.255 -1.0511  0.3226 -0.6097
 3435TIP3   OH234499   1.631   0.370   8.495 -0.4091 -0.4067 -0.3495
 3435TIP3    H134500   1.710   0.425   8.489 -0.4285  0.1137  2.4613
 3435TIP3    H234501   1.627   0.346   8.588 -1.8557 -3.0481 -1.0139
 3436TIP3   OH234502   6.602   3.664   7.142  0.5596 -0.4467  0.2863
 3436TIP3    H134503   6.681   3.614   7.161 -0.5092 -1.6643  1.8612
 3436TIP3    H234504   6.590   3.720   7.219  1.2596  1.6943 -1.0693
 3437TIP3   OH234505   5.156   6.867   7.299  0.2073 -0.0808  0.0255
 3437TIP3    H134506   5.149   6.776   7.271  1.6522 -0.5598  1.0719
 3437TIP3    H234507   5.122   6.867   7.389  0.0500  0.4550 -0.0292
 3438TIP3   OH234508   0.321   3.271   7.998 -0.5133 -0.7290 -0.0220
 3438TIP3    H134509   0.368   3.340   8.045 -0.2758 -1.2076  0.4479
 3438TIP3    H234510   0.274   3.318   7.928  3.0224 -0.4933 -2.4944
 3439TIP3   OH234511   5.913   2.412   8.534 -0.1691 -0.0766  0.4682
 3439TIP3    H134512   5.920   2.420   8.629  2.8790  2.0671  0.1786
 3439TIP3    H234513   5.831   2.456   8.512 -1.4522 -1.4928  2.0917
 3440TIP3   OH234514   7.253   5.133   8.499  0.1149  0.1553  0.5267
 3440TIP3    H134515   7.215   5.197   8.558 -1.0502  1.2843 -1.3372
 3440TIP3    H234516   7.184   5.114   8.436  1.7557  0.2148 -1.4107
 3441TIP3   OH234517   1.199   7.300   7.944  0.5799  0.4082 -0.1090
 3441TIP3    H134518   1.130   7.237   7.924 -0.4913  0.9962  1.5898
 3441TIP3    H234519   1.198   7.360   7.869  0.2400 -0.3889 -0.7725
 3442TIP3   OH234520   0.410   5.445   6.784 -0.0336  0.5747  0.0561
 3442TIP3    H134521   0.356   5.390   6.726  1.7507 -0.0758 -1.0601
 3442TIP3    H234522   0.418   5.528   6.736  1.6379 -0.0422 -0.8211
 3443TIP3   OH234523   6.583   3.822   6.917 -0.0729  0.1346 -0.5071
 3443TIP3    H134524   6.636   3.900   6.902  2.7199 -1.6958 -0.9040
 3443TIP3    H234525   6.623   3.781   6.994 -1.0266 -1.2849 -0.7371
 3444TIP3   OH234526   0.337   1.225   9.252 -0.3513 -0.1662 -0.0025
 3444TIP3    H134527   0.360   1.188   9.167 -0.6382 -0.8809  0.2257
 3444TIP3    H234528   0.304   1.313   9.232 -1.6019 -0.7796 -0.7606
 3445TIP3   OH234529   4.754   3.625   8.860  0.0313 -0.1423 -0.4187
 3445TIP3    H134530   4.842   3.593   8.842  0.2218  0.0393  0.1750
 3445TIP3    H234531   4.697   3.552   8.834  0.2821  0.1089 -1.7362
 3446TIP3   OH234532   7.619   3.814   9.641 -0.3366 -0.0426 -0.1386
 3446TIP3    H134533   7.542   3.771   9.676 -1.6939  1.1287 -1.5108
 3446TIP3    H234534   7.608   3.809   9.546  1.5955 -0.3462 -0.3985
 3447TIP3   OH234535   4.166   1.742   8.491 -0.0789  0.2153  0.3347
 3447TIP3    H134536   4.111   1.701   8.558  2.5825 -0.8954  2.0454
 3447TIP3    H234537   4.196   1.823   8.531  2.1377 -0.8139  0.9558
 3448TIP3   OH234538   4.535   2.631   7.864 -0.0586  0.0949  0.1308
 3448TIP3    H134539   4.572   2.691   7.928 -2.1963  1.0808  0.5289
 3448TIP3    H234540   4.593   2.636   7.788  2.7051 -1.3241  2.0086
 3449TIP3   OH234541   0.929   5.209   7.935  0.3906  0.4803 -0.5533
 3449TIP3    H134542   0.992   5.161   7.989  0.7642 -0.3337 -1.6706
 3449TIP3    H234543   0.929   5.298   7.970 -2.1398 -0.7687  3.2018
 3450TIP3   OH234544   4.002   7.058   9.186  0.4672 -0.0668 -0.3599
 3450TIP3    H134545   4.070   7.086   9.124 -0.2319 -0.7397 -1.4637
 3450TIP3    H234546   4.020   6.965   9.200 -0.1756 -0.2388 -0.6216
 3451TIP3   OH234547   7.617   3.875   8.224 -0.2407  0.2134 -0.7216
 3451TIP3    H134548   7.713   3.877   8.227 -0.2382 -0.4212  0.2175
 3451TIP3    H234549   7.589   3.944   8.283 -0.3462 -0.3369 -0.1157
 3452TIP3   OH234550   7.601   6.046   8.957 -0.0022  0.5625  0.3467
 3452TIP3    H134551   7.679   6.036   9.012 -0.6606  0.5383  1.3113
 3452TIP3    H234552   7.593   5.962   8.912  0.3171  0.4264  0.5370
 3453TIP3   OH234553   6.314   5.886   7.934  0.1673 -0.2230  0.2582
 3453TIP3    H134554   6.270   5.947   7.875  0.0316 -1.1971 -0.6856
 3453TIP3    H234555   6.406   5.888   7.906  0.1848 -0.3591  0.3056
 3454TIP3   OH234556   4.465   6.632   8.269 -0.1756 -0.3054 -0.4636
 3454TIP3    H134557   4.530   6.702   8.281 -1.3191  0.9993 -1.6229
 3454TIP3    H234558   4.491   6.565   8.333  1.0632  1.0831  0.5634
 3455TIP3   OH234559   5.085   3.074   7.839 -0.1613 -0.3850 -0.0948
 3455TIP3    H134560   5.071   3.157   7.885 -2.7179 -0.7238 -0.1496
 3455TIP3    H234561   5.058   3.091   7.749  1.0255 -0.8292 -0.5619
 3456TIP3   OH234562   6.115   2.191   7.218 -0.0151 -0.4100 -0.5682
 3456TIP3    H134563   6.072   2.261   7.168 -1.6294  0.3216  1.7125
 3456TIP3    H234564   6.099   2.112   7.166 -1.2060  0.3893 -1.4704
 3457TIP3   OH234565   0.453   5.225   8.393 -0.0154  0.0135 -0.0617
 3457TIP3    H134566   0.419   5.150   8.442 -0.7557 -0.1351 -0.7842
 3457TIP3    H234567   0.399   5.298   8.421 -0.0323  0.0499 -0.1874
 3458TIP3   OH234568   1.372   1.926   7.261  0.4401 -0.5844 -0.4556
 3458TIP3    H134569   1.444   1.898   7.206  1.3036 -1.6025  1.1252
 3458TIP3    H234570   1.396   1.898   7.349  0.3653  3.2274  0.9706
 3459TIP3   OH234571   0.823   1.458   8.711  0.1757 -0.0276 -0.3634
 3459TIP3    H134572   0.838   1.502   8.795 -0.8174  0.5365 -0.4580
 3459TIP3    H234573   0.910   1.446   8.674  0.6288 -0.2547  0.7282
 3460TIP3   OH234574   2.167   1.757   7.410 -0.1140  0.0902  0.2354
 3460TIP3    H134575   2.176   1.725   7.320 -0.5333  0.5805  0.0095
 3460TIP3    H234576   2.095   1.820   7.405 -0.1278  0.1317  0.9143
 3461TIP3   OH234577   4.532   4.494   8.533  0.2354  0.2380  0.4465
 3461TIP3    H134578   4.526   4.576   8.483  0.0179  1.2839  2.1180
 3461TIP3    H234579   4.442   4.460   8.533  0.6384 -1.0851 -1.8669
 3462TIP3   OH234580   0.120   3.602   9.590 -0.3169 -0.3654  0.0867
 3462TIP3    H134581   0.067   3.664   9.640  1.3902  0.7424  0.6150
 3462TIP3    H234582   0.089   3.612   9.500 -1.9931 -0.8424  0.5796
 3463TIP3   OH234583   2.228   1.125   8.698  0.4101  0.3861 -0.5479
 3463TIP3    H134584   2.226   1.043   8.649  3.2766  0.5136 -1.0653
 3463TIP3    H234585   2.245   1.098   8.788 -0.5577  0.3580 -0.3622
 3464TIP3   OH234586   4.745   1.574   8.292 -0.4216  0.6987 -0.4849
 3464TIP3    H134587   4.708   1.491   8.322 -1.3254  1.3438  0.2572
 3464TIP3    H234588   4.830   1.551   8.255  0.2257 -0.3307  1.4646
 3465TIP3   OH234589   1.169   5.902   6.686  0.3182  0.0010  0.8658
 3465TIP3    H134590   1.209   5.875   6.603  0.1195 -1.3868  1.2043
 3465TIP3    H234591   1.179   5.997   6.687  1.9502 -0.1298  0.0982
 3466TIP3   OH234592   4.899   5.055   9.001  0.3441 -0.1632  0.0359
 3466TIP3    H134593   4.831   5.011   8.950 -0.5374  0.7282  0.4089
 3466TIP3    H234594   4.889   5.022   9.090  0.8292 -0.5113 -0.0337
 3467TIP3   OH234595   1.030   2.574   7.749 -0.2215  0.6707  0.0255
 3467TIP3    H134596   0.945   2.586   7.706  0.3362  1.4865 -0.8745
 3467TIP3    H234597   1.035   2.479   7.764  0.3464  0.0164 -3.4221
 3468TIP3   OH234598   6.765   0.740   9.428  0.5323  0.2472 -0.0428
 3468TIP3    H134599   6.752   0.834   9.416  0.9063  0.1998 -0.8613
 3468TIP3    H234600   6.841   0.734   9.487  0.8940  0.4565 -0.4817
 3469TIP3   OH234601   4.424   3.058   7.377 -0.2137 -0.1916  0.6063
 3469TIP3    H134602   4.458   3.007   7.303  0.2053 -1.7722  1.8287
 3469TIP3    H234603   4.501   3.099   7.416  0.2144 -2.5326  2.4521
 3470TIP3   OH234604   1.315   1.850   8.982 -0.3095 -0.4259 -0.3913
 3470TIP3    H134605   1.226   1.875   8.957 -0.2080 -0.3290 -0.6618
 3470TIP3    H234606   1.304   1.779   9.046 -0.5808 -0.3568 -0.3639
 3471TIP3   OH234607   4.615   1.340   8.295 -0.0943 -0.5164  0.0001
 3471TIP3    H134608   4.535   1.289   8.307 -0.4792 -0.1280 -0.8270
 3471TIP3    H234609   4.662   1.295   8.224 -1.2559  1.1841 -1.9704
 3472TIP3   OH234610   6.785   3.005   8.198  0.5113 -0.0564  0.0697
 3472TIP3    H134611   6.739   3.075   8.151  1.7756  0.7791  0.0517
 3472TIP3    H234612   6.717   2.938   8.212  0.2536 -0.7564 -3.6557
 3473TIP3   OH234613   1.468   1.796   7.492  0.0118  0.2800 -0.7953
 3473TIP3    H134614   1.558   1.798   7.460 -0.0646 -0.8256 -1.1469
 3473TIP3    H234615   1.432   1.715   7.455 -0.5427 -0.2727  0.8506
 3474TIP3   OH234616   0.945   2.337   8.989  0.0067  0.2904 -0.0067
 3474TIP3    H134617   1.030   2.328   8.945 -0.5451  0.8883 -1.2700
 3474TIP3    H234618   0.967   2.363   9.078  1.2086 -1.7351  0.3612
 3475TIP3   OH234619   0.631   2.957   8.458 -0.6707 -0.1784  0.0944
 3475TIP3    H134620   0.591   2.975   8.543  2.9385 -0.3580  1.9944
 3475TIP3    H234621   0.657   2.865   8.463 -0.2489 -0.1421 -1.1723
 3476TIP3   OH234622   4.919   0.046   9.265 -0.0183  0.1569 -0.0345
 3476TIP3    H134623   4.888  -0.037   9.302  3.4328 -0.8086  1.0422
 3476TIP3    H234624   4.940   0.025   9.174 -1.1223  0.4355 -0.3606
 3477TIP3   OH234625   5.336   2.673   6.810  0.2604  0.7122 -0.8878
 3477TIP3    H134626   5.283   2.611   6.759  0.7716  0.2103 -0.8164
 3477TIP3    H234627   5.277   2.704   6.878  0.3305 -0.6471 -0.1567
 3478TIP3   OH234628   3.688   0.451   8.882  0.8843 -0.3211  0.7043
 3478TIP3    H134629   3.672   0.426   8.791  0.3461  2.1722  0.0457
 3478TIP3    H234630   3.783   0.453   8.890  0.9332 -0.7033  0.2512
 3479TIP3   OH234631   4.148   3.603   8.049  0.3204  0.0014 -0.0008
 3479TIP3    H134632   4.229   3.638   8.087 -0.5646  2.0845  0.1368
 3479TIP3    H234633   4.079   3.636   8.107 -0.6387 -1.9260  0.0131
 3480TIP3   OH234634   1.080   0.469   9.047 -0.4428 -0.2371 -0.3889
 3480TIP3    H134635   1.018   0.542   9.051 -0.8009 -0.5415 -0.4035
 3480TIP3    H234636   1.143   0.488   9.116  0.4820  1.0082 -1.5143
 3481TIP3   OH234637   3.079   2.380   8.115  0.1618  0.2915 -0.5431
 3481TIP3    H134638   3.173   2.364   8.103  0.4017  0.1017  1.2142
 3481TIP3    H234639   3.074   2.471   8.147 -0.0212 -0.2997  1.2490
 3482TIP3   OH234640   0.672   6.643   9.516  0.4092  0.1723  0.0843
 3482TIP3    H134641   0.708   6.556   9.504  0.5268  0.5001 -2.4899
 3482TIP3    H234642   0.746   6.696   9.548  0.2257 -0.6889  2.0892
 3483TIP3   OH234643   6.014   0.988   7.679 -0.2738 -0.0571  0.2737
 3483TIP3    H134644   6.029   0.917   7.616  1.2891  0.5175 -0.0384
 3483TIP3    H234645   6.064   0.963   7.756 -1.6523 -0.4333  1.0824
 3484TIP3   OH234646   0.701   5.014   9.044  0.4876  0.1644 -0.0940
 3484TIP3    H134647   0.751   5.072   9.101  0.0044  0.3491  0.1480
 3484TIP3    H234648   0.760   4.941   9.026  1.2671  0.9236 -0.7508
 3485TIP3   OH234649   3.785   1.418   8.775  0.4342  0.2092 -0.1846
 3485TIP3    H134650   3.765   1.463   8.857 -0.2139 -1.3412  0.5480
 3485TIP3    H234651   3.874   1.445   8.755  0.0927  1.7651  0.2292
 3486TIP3   OH234652   0.687   1.774   9.361  0.2450  0.5750  0.1094
 3486TIP3    H134653   0.595   1.795   9.343 -0.3447 -1.1065  0.9869
 3486TIP3    H234654   0.718   1.849   9.413 -0.9560  0.6482  0.7517
 3487TIP3   OH234655   0.250   2.455   9.215  0.1370 -0.2339  0.0666
 3487TIP3    H134656   0.345   2.469   9.209  0.2298 -0.8329  0.0104
 3487TIP3    H234657   0.217   2.480   9.129  0.0757  1.1387  0.4710
 3488TIP3   OH234658   4.604   0.969   9.620  0.7368 -0.3994 -0.0457
 3488TIP3    H134659   4.522   0.929   9.590  0.2059  0.5173  0.1260
 3488TIP3    H234660   4.626   0.921   9.700  2.8921 -3.7783 -2.4302
 3489TIP3   OH234661   4.922   1.297   7.552 -0.1215 -0.2972 -0.3848
 3489TIP3    H134662   4.952   1.211   7.580 -0.2617 -0.8745 -1.8933
 3489TIP3    H234663   4.962   1.358   7.614 -0.3794 -1.4641  0.9654
 3490TIP3   OH234664   0.046   4.141   7.735 -0.0045  0.0145 -0.7579
 3490TIP3    H134665   0.042   4.190   7.817  0.8361  1.9829 -1.8251
 3490TIP3    H234666  -0.043   4.146   7.700 -0.0883  0.1899 -0.5229
 3491TIP3   OH234667   4.567   4.431   7.574  0.1512  0.1108 -0.5738
 3491TIP3    H134668   4.623   4.448   7.498  0.4744 -2.8450 -1.1395
 3491TIP3    H234669   4.628   4.400   7.642 -0.4245  0.1688 -0.0230
 3492TIP3   OH234670   3.382   5.148   6.672 -0.1553  0.9307  0.1378
 3492TIP3    H134671   3.394   5.242   6.656  0.3284  1.0429  1.1106
 3492TIP3    H234672   3.288   5.140   6.692 -0.0980  1.2789  0.5514
 3493TIP3   OH234673   1.049   1.942   8.941 -0.2523  0.6070 -0.1480
 3493TIP3    H134674   0.970   1.974   8.897 -0.3689  1.8319  0.8826
 3493TIP3    H234675   1.054   1.994   9.021  2.3861  1.6129 -0.8514
 3494TIP3   OH234676   4.507   2.572   7.305 -0.2117  0.1300 -0.1081
 3494TIP3    H134677   4.488   2.612   7.390  1.9589 -2.1094  1.5952
 3494TIP3    H234678   4.578   2.624   7.268  0.1224  0.0273  0.3780
 3495TIP3   OH234679   4.194   4.619   8.663 -0.3468 -0.1290 -0.5210
 3495TIP3    H134680   4.193   4.597   8.570 -0.7113  2.4817 -1.2188
 3495TIP3    H234681   4.118   4.574   8.700 -1.1395  0.0781 -1.8364
 3496TIP3   OH234682   0.593   3.483   9.321 -0.1569 -0.2418 -0.6409
 3496TIP3    H134683   0.619   3.571   9.292 -1.7472  0.9166  1.2232
 3496TIP3    H234684   0.629   3.476   9.409  1.5702 -2.2834 -1.4228
 3497TIP3   OH234685   5.121   1.411   8.480  0.2155 -0.6123  0.0667
 3497TIP3    H134686   5.065   1.480   8.514 -0.0977 -0.2142 -1.2169
 3497TIP3    H234687   5.205   1.425   8.523  0.4891  1.2778 -1.0012
 3498TIP3   OH234688   6.676   0.040   8.376 -0.0259  0.2279  0.4640
 3498TIP3    H134689   6.762   0.072   8.402  0.9390 -0.3840 -1.6848
 3498TIP3    H234690   6.693  -0.008   8.294 -2.1564 -1.3298  0.8592
 3499TIP3   OH234691   2.547   3.091   7.390 -0.2547 -0.2209  0.0053
 3499TIP3    H134692   2.569   3.157   7.324  1.7402  0.1790  0.9747
 3499TIP3    H234693   2.510   3.141   7.463 -1.0026 -0.4686 -0.2038
 3500TIP3   OH234694   4.754   3.010   7.777  0.3535 -0.1438 -0.6019
 3500TIP3    H134695   4.809   3.077   7.738 -0.6408  1.2931  0.3807
 3500TIP3    H234696   4.789   2.997   7.865 -1.5176  1.6760  0.4886
 3501TIP3   OH234697   4.731   1.500   7.713  0.1783 -0.4219  0.1286
 3501TIP3    H134698   4.699   1.527   7.799 -0.3056 -0.5390 -0.0110
 3501TIP3    H234699   4.701   1.409   7.705  0.1117 -0.3705 -0.2131
 3502TIP3   OH234700   1.003   0.083   7.850  0.0198 -0.3659 -0.3820
 3502TIP3    H134701   1.058   0.075   7.772 -0.3864 -2.4606 -0.5259
 3502TIP3    H234702   0.916   0.106   7.816  0.1453  0.0606 -0.4169
 3503TIP3   OH234703   3.007   4.046   7.353  0.0678  0.5947  0.4086
 3503TIP3    H134704   3.016   4.129   7.306 -1.9569  1.7682  1.9342
 3503TIP3    H234705   2.932   4.003   7.313 -0.4350  0.6744  1.2564
 3504TIP3   OH234706   3.153   0.914   8.193  0.0077 -0.0602  0.1200
 3504TIP3    H134707   3.093   0.840   8.190 -0.4726  0.3647 -1.1203
 3504TIP3    H234708   3.152   0.941   8.285 -3.0378  0.9911 -0.0994
 3505TIP3   OH234709   1.998   0.277   9.215 -0.1647 -0.2045  0.0805
 3505TIP3    H134710   2.085   0.270   9.175 -0.4646  1.8438 -1.1065
 3505TIP3    H234711   1.940   0.232   9.155 -0.1269 -0.2532  0.0801
 3506TIP3   OH234712   3.590   0.468   7.390  0.1432  0.2780  0.0636
 3506TIP3    H134713   3.627   0.404   7.329  0.4724  0.3168  0.2266
 3506TIP3    H234714   3.506   0.492   7.350  0.8747  1.1895 -0.9926
 3507TIP3   OH234715   3.549   7.051   8.659  0.1868 -0.5772 -0.2829
 3507TIP3    H134716   3.613   6.996   8.614 -0.2795 -0.7775 -0.7009
 3507TIP3    H234717   3.464   7.012   8.639 -0.2204  0.7340 -1.2323
 3508TIP3   OH234718   0.237   5.197   7.490  0.3470  0.4698  0.6589
 3508TIP3    H134719   0.253   5.289   7.510 -0.2961  0.5722  0.7145
 3508TIP3    H234720   0.192   5.163   7.568 -3.2157  1.1439 -0.8951
 3509TIP3   OH234721   5.285   4.326   9.478 -0.0728 -0.5670  0.2263
 3509TIP3    H134722   5.226   4.298   9.548 -1.9288 -0.3942 -1.1886
 3509TIP3    H234723   5.231   4.383   9.423 -0.0948 -4.0131 -3.7464
 3510TIP3   OH234724   2.739   7.445   6.691  0.7438 -0.4458 -1.0636
 3510TIP3    H134725   2.724   7.355   6.717 -0.4991 -0.7642 -2.7647
 3510TIP3    H234726   2.679   7.460   6.618 -0.2474  2.2517  0.1642
 3511TIP3   OH234727   3.061   5.570   6.564  0.0577  0.0258 -0.0437
 3511TIP3    H134728   3.003   5.599   6.494  0.5173 -1.2685 -0.9939
 3511TIP3    H234729   3.046   5.476   6.571 -0.2240  0.1711  1.8471
 3512TIP3   OH234730   2.785   4.659   6.679 -0.2627  0.1399  1.0760
 3512TIP3    H134731   2.774   4.754   6.680  0.3185  0.2033  2.3725
 3512TIP3    H234732   2.869   4.643   6.721  0.6082 -0.8527 -0.9142
 3513TIP3   OH234733   6.302   4.747   8.896  0.3652  0.9107  0.3623
 3513TIP3    H134734   6.244   4.802   8.844 -0.5574  1.0814  1.5495
 3513TIP3    H234735   6.302   4.787   8.983  0.7889 -0.1592  0.8690
 3514TIP3   OH234736   4.392   4.936   9.128 -1.0282  0.0072 -0.0496
 3514TIP3    H134737   4.330   4.900   9.064 -1.6427  0.2057  0.4275
 3514TIP3    H234738   4.442   4.860   9.158 -0.3851 -0.0224 -1.1202
 3515TIP3   OH234739   2.189   6.688   7.240  0.0800  0.2064 -0.5269
 3515TIP3    H134740   2.207   6.736   7.159 -0.3737  0.1265 -0.6771
 3515TIP3    H234741   2.105   6.723   7.270 -0.1019 -0.2731 -0.4725
 3516TIP3   OH234742   5.058   0.283   8.573  0.3387 -0.3015 -0.1767
 3516TIP3    H134743   5.134   0.228   8.556  0.5736  0.1116 -0.4803
 3516TIP3    H234744   5.094   0.365   8.607  0.0525 -0.0194 -0.5368
 3517TIP3   OH234745   5.914   3.191   7.103 -0.1171 -0.4474 -0.5141
 3517TIP3    H134746   5.876   3.261   7.050  0.4847 -0.6408 -1.2249
 3517TIP3    H234747   6.002   3.222   7.124 -0.2514 -0.4979  0.1381
 3518TIP3   OH234748   4.404   7.381   6.791 -0.2178 -0.4257  0.0276
 3518TIP3    H134749   4.461   7.451   6.761  0.7590 -1.1436  0.1528
 3518TIP3    H234750   4.322   7.424   6.814  0.3219  0.6461 -0.0142
 3519TIP3   OH234751   6.052   5.134   7.460 -0.2030 -0.2117 -0.6052
 3519TIP3    H134752   5.984   5.197   7.484  0.5546  0.3816  0.0196
 3519TIP3    H234753   6.031   5.056   7.512  0.0988  0.2768  0.2698
 3520TIP3   OH234754   5.827   5.555   8.115 -0.2221 -0.1556  0.2046
 3520TIP3    H134755   5.810   5.648   8.125 -0.8977 -0.4039  1.6716
 3520TIP3    H234756   5.851   5.544   8.023 -3.7761  0.9386 -1.0317
 3521TIP3   OH234757   6.586   2.536   7.599 -0.1022  0.1734 -0.7876
 3521TIP3    H134758   6.676   2.512   7.619  0.7695  3.1073 -0.7640
 3521TIP3    H234759   6.579   2.527   7.504 -0.0760 -0.8647 -0.7028
 3522TIP3   OH234760   4.794   5.912   7.630 -0.0046 -0.6108 -0.7920
 3522TIP3    H134761   4.876   5.941   7.591  1.5112 -1.6402  1.4433
 3522TIP3    H234762   4.770   5.833   7.582 -0.0085 -0.0070 -1.8066
 3523TIP3   OH234763   5.409   7.652   8.963 -0.0209 -0.4346  0.3550
 3523TIP3    H134764   5.343   7.719   8.985 -0.1099 -0.4684  0.1938
 3523TIP3    H234765   5.413   7.596   9.040  0.7149  0.2845  0.8599
 3524TIP3   OH234766   7.095   5.518   8.504 -0.3958 -0.0275 -0.5240
 3524TIP3    H134767   7.101   5.430   8.542  0.1022 -0.2687 -1.1258
 3524TIP3    H234768   7.039   5.506   8.427 -2.3044  0.6677  0.7088
 3525TIP3   OH234769   0.132   5.530   9.043  0.2653  0.1676 -0.4509
 3525TIP3    H134770   0.060   5.539   9.106  0.3064  1.1076 -0.5250
 3525TIP3    H234771   0.088   5.517   8.958  0.2090 -1.6009 -0.2004
 3526TIP3   OH234772   4.067   6.865   8.858  0.5709 -0.1345 -0.4128
 3526TIP3    H134773   4.052   6.955   8.887  1.2318 -0.1633  0.0454
 3526TIP3    H234774   3.987   6.841   8.811  0.4243  0.7215 -0.6164
 3527TIP3   OH234775   1.285   1.838   9.508 -0.5717 -0.2528  0.2476
 3527TIP3    H134776   1.319   1.924   9.530 -0.5802  0.1083 -1.0764
 3527TIP3    H234777   1.191   1.852   9.495 -0.5168 -0.3707 -0.3257
 3528TIP3   OH234778   3.164   1.228   7.788 -0.1849 -0.0963  0.0370
 3528TIP3    H134779   3.110   1.153   7.813  2.2550 -1.3392  2.0754
 3528TIP3    H234780   3.164   1.284   7.866  0.3889  0.5505 -0.4167
 3529TIP3   OH234781   5.665   0.548   9.383  0.5657 -0.0773  0.5897
 3529TIP3    H134782   5.587   0.501   9.355 -0.2253  1.5347 -0.0577
 3529TIP3    H234783   5.646   0.573   9.474  0.0809  0.7297  0.2826
 3530TIP3   OH234784   3.619   7.466   7.640 -0.8588 -0.3157 -0.0193
 3530TIP3    H134785   3.608   7.481   7.733 -1.9105  3.6870 -0.6268
 3530TIP3    H234786   3.547   7.408   7.616 -1.6317  0.0396  1.3524
 3531TIP3   OH234787   5.395   4.159   9.704 -0.2846 -0.3567  0.0700
 3531TIP3    H134788   5.402   4.236   9.648 -0.4667 -0.0135  0.5109
 3531TIP3    H234789   5.451   4.180   9.779 -0.7269 -0.4394  0.4268
 3532TIP3   OH234790   5.794   7.452   7.077  0.2570  0.4939 -0.1736
 3532TIP3    H134791   5.880   7.490   7.057  0.6112 -0.3857 -0.3528
 3532TIP3    H234792   5.807   7.406   7.160  0.2286 -0.4944 -0.7085
 3533TIP3   OH234793   5.210   7.006   7.701 -0.0872  0.0423  0.5647
 3533TIP3    H134794   5.277   7.014   7.633  1.2698 -0.3364  1.8065
 3533TIP3    H234795   5.136   6.963   7.657 -0.8093  3.2221 -1.6385
 3534TIP3   OH234796   3.425   2.427   8.234  0.1226 -0.0194 -0.3881
 3534TIP3    H134797   3.476   2.355   8.272  0.0479  0.2000  0.1303
 3534TIP3    H234798   3.377   2.386   8.162 -0.4105 -0.6296  0.2991
 3535TIP3   OH234799   5.826   1.803   9.160 -0.0121  0.0459 -0.0100
 3535TIP3    H134800   5.910   1.765   9.133  0.0604 -0.0164  0.2970
 3535TIP3    H234801   5.810   1.766   9.247 -0.8093 -0.6563 -0.4450
 3536TIP3   OH234802   2.029   0.840   7.944 -0.3782 -0.0027  0.3342
 3536TIP3    H134803   2.082   0.791   8.008 -0.2196 -0.6162 -0.2577
 3536TIP3    H234804   1.939   0.811   7.960 -0.3785  0.0673  0.4686
 3537TIP3   OH234805   7.389   5.266   8.033  0.2235 -0.1659 -0.0367
 3537TIP3    H134806   7.317   5.278   8.095 -0.1727 -0.8314 -0.3610
 3537TIP3    H234807   7.374   5.332   7.965 -0.7851 -1.1007 -0.7451
 3538TIP3   OH234808   2.013   4.167   9.220 -0.0688 -0.0490  0.2065
 3538TIP3    H134809   1.963   4.248   9.221 -0.8508 -0.5204  1.7470
 3538TIP3    H234810   2.101   4.192   9.248 -0.4728  0.1898  1.3027
 3539TIP3   OH234811   6.335   4.369   7.544 -0.4883 -0.0356 -0.4846
 3539TIP3    H134812   6.327   4.437   7.477  0.9580  2.4947  1.7515
 3539TIP3    H234813   6.396   4.305   7.506  0.9223  1.7263 -1.2983
 3540TIP3   OH234814   0.513   2.350   6.860  0.0812  0.3809  0.0319
 3540TIP3    H134815   0.533   2.256   6.862 -1.0334  0.1147 -0.0994
 3540TIP3    H234816   0.530   2.376   6.770 -0.0194  0.1937 -0.0437
 3541TIP3   OH234817   5.491   1.948   9.406 -0.3531  0.0257  0.3313
 3541TIP3    H134818   5.457   1.927   9.319 -2.1462 -0.5946  1.1354
 3541TIP3    H234819   5.484   1.866   9.455 -0.1216  0.5686  1.3030
 3542TIP3   OH234820   5.375   4.432   7.697  0.5159  0.0408 -0.3305
 3542TIP3    H134821   5.395   4.447   7.605 -0.7879  1.8221 -0.3799
 3542TIP3    H234822   5.328   4.511   7.724  2.9271  0.6413  2.5156
 3543TIP3   OH234823   3.165   0.739   7.021  0.4212 -0.3509 -0.5239
 3543TIP3    H134824   3.223   0.787   6.962  0.8086 -0.2465 -0.0700
 3543TIP3    H234825   3.181   0.779   7.107 -0.6009 -0.0762 -0.4544
 3544TIP3   OH234826   3.527   6.742   8.423  0.2267 -0.4027 -0.0841
 3544TIP3    H134827   3.545   6.697   8.505  0.1410  2.1177  1.4152
 3544TIP3    H234828   3.497   6.829   8.449  1.3881  0.9401 -2.7801
 3545TIP3   OH234829   1.512   6.953   8.898 -0.0567  0.2259 -0.2772
 3545TIP3    H134830   1.442   6.991   8.846 -0.0235  0.3413 -0.2389
 3545TIP3    H234831   1.558   6.894   8.838  0.1595  0.5761 -0.4637
 3546TIP3   OH234832   2.393   1.078   8.249 -0.6412  0.2770 -0.3676
 3546TIP3    H134833   2.298   1.064   8.245 -0.3507 -1.7281 -2.1713
 3546TIP3    H234834   2.420   1.086   8.158  0.8265  2.1383  0.1460
 3547TIP3   OH234835   4.412   1.358   7.970  0.3092 -0.1070  0.4993
 3547TIP3    H134836   4.501   1.391   7.983  0.2621 -0.1933  1.0239
 3547TIP3    H234837   4.384   1.399   7.888  0.8624 -0.1497  0.2827
 3548TIP3   OH234838   6.109   0.021   7.932  0.2268 -0.1857  0.5715
 3548TIP3    H134839   6.203   0.037   7.923  0.1403  1.3471  1.9755
 3548TIP3    H234840   6.101  -0.075   7.935  1.3952 -0.4995 -2.4713
 3549TIP3   OH234841   7.528   2.624   8.369 -0.2409 -0.4512  0.2489
 3549TIP3    H134842   7.529   2.626   8.273  2.0407 -1.2007  0.1933
 3549TIP3    H234843   7.618   2.645   8.394 -1.0441  0.8174  2.2885
 3550TIP3   OH234844   1.509   4.630   7.473 -0.4852 -0.4537 -0.0333
 3550TIP3    H134845   1.479   4.720   7.478 -0.0513 -0.2968 -0.1771
 3550TIP3    H234846   1.479   4.590   7.555 -1.8223 -0.5452 -0.5474
 3551TIP3   OH234847   4.231   4.814   8.871  0.1969 -0.0816 -0.1558
 3551TIP3    H134848   4.209   4.898   8.830 -0.2143 -0.2422 -0.2722
 3551TIP3    H234849   4.160   4.756   8.845  0.6301 -0.5452 -0.3127
 3552TIP3   OH234850   2.373   0.375   7.876  0.2955  0.0922 -0.3022
 3552TIP3    H134851   2.362   0.319   7.952 -1.4918  0.9037  0.0955
 3552TIP3    H234852   2.435   0.328   7.820  1.2332 -0.7715  1.3777
 3553TIP3   OH234853   2.518   6.391   8.997  0.4459  0.6207  0.0640
 3553TIP3    H134854   2.604   6.393   9.039 -0.6437 -0.2927  2.5687
 3553TIP3    H234855   2.512   6.303   8.959  0.2792  0.3277  0.7462
 3554TIP3   OH234856   5.398   7.468   6.706  0.1981 -0.0539 -0.3126
 3554TIP3    H134857   5.386   7.563   6.700 -1.2042 -0.1116  0.8489
 3554TIP3    H234858   5.488   7.457   6.736 -0.1595  1.0407  1.3404
 3555TIP3   OH234859   4.775   1.664   9.315  0.1782 -0.6648 -0.2278
 3555TIP3    H134860   4.789   1.604   9.389 -0.2330  1.7212  1.9352
 3555TIP3    H234861   4.863   1.681   9.281  0.4466 -1.2125  0.1692
 3556TIP3   OH234862   6.024   5.371   9.315 -0.3493 -0.0037  0.1182
 3556TIP3    H134863   5.980   5.406   9.392 -0.8573 -1.0374  0.3028
 3556TIP3    H234864   5.959   5.378   9.245 -0.7034 -1.2061  0.3125
 3557TIP3   OH234865   2.062   4.867   7.965  0.4259 -0.0508  0.1061
 3557TIP3    H134866   2.109   4.816   7.900  0.0793 -0.3370  0.0779
 3557TIP3    H234867   2.021   4.802   8.022 -0.2531  0.1877 -0.0969
 3558TIP3   OH234868   0.555   1.021   9.315 -0.2970  0.0458  0.2500
 3558TIP3    H134869   0.487   1.087   9.304 -0.1005  0.5302  1.7828
 3558TIP3    H234870   0.517   0.941   9.279 -1.2949  0.5344  0.1878
 3559TIP3   OH234871   0.555   1.927   8.601  0.1425  0.5420  0.3334
 3559TIP3    H134872   0.626   1.975   8.558 -0.6798 -0.4204 -2.3011
 3559TIP3    H234873   0.566   1.837   8.571 -1.6223  0.1902  0.6251
 3560TIP3   OH234874   6.953   2.862   7.832  0.3548  0.4149 -0.5522
 3560TIP3    H134875   6.872   2.831   7.791  0.4219  1.8408 -1.8800
 3560TIP3    H234876   6.938   2.955   7.847  0.2531 -0.0509  3.0229
 3561TIP3   OH234877   1.898   6.868   7.854 -0.8787  0.7642 -0.1004
 3561TIP3    H134878   1.927   6.903   7.770  1.6682  0.6743  0.6486
 3561TIP3    H234879   1.872   6.778   7.835  0.6663  0.4103 -0.6385
 3562TIP3   OH234880   6.950   1.146   7.371 -0.4056  0.1590 -0.4783
 3562TIP3    H134881   6.931   1.182   7.457  1.5467  1.2203 -0.4391
 3562TIP3    H234882   6.872   1.095   7.349 -2.2999  2.3982  0.5423
 3563TIP3   OH234883   2.324   1.601   7.856  0.3485  0.2824  0.7170
 3563TIP3    H134884   2.266   1.526   7.861  0.3568  0.3507  1.9131
 3563TIP3    H234885   2.365   1.593   7.769  1.4798 -1.9285  1.3685
 3564TIP3   OH234886   3.122   6.925   7.956 -0.4377  0.3735  0.6986
 3564TIP3    H134887   3.054   6.972   8.005 -0.4296  0.1000  0.9784
 3564TIP3    H234888   3.194   6.988   7.949  0.3455 -0.1919  2.7546
 3565TIP3   OH234889   5.441   1.569   6.655 -0.4045 -0.1975  0.0357
 3565TIP3    H134890   5.493   1.557   6.735  0.5325  0.7149 -0.4126
 3565TIP3    H234891   5.456   1.660   6.630 -1.0434 -0.3450 -0.9300
 3566TIP3   OH234892   3.080   7.210   9.547  0.7143 -0.2655 -0.5110
 3566TIP3    H134893   3.154   7.225   9.606  0.6695 -3.5647  0.5827
 3566TIP3    H234894   3.004   7.240   9.597  0.9987  0.0878 -0.2837
 3567TIP3   OH234895   6.937   4.684   7.986 -0.1086  0.0120  0.2381
 3567TIP3    H134896   6.881   4.711   8.059  2.1632  5.0388  0.5503
 3567TIP3    H234897   6.914   4.744   7.916  0.7414 -1.8925 -1.7664
 3568TIP3   OH234898   3.159   6.200   8.547 -0.2987 -0.0079 -0.1792
 3568TIP3    H134899   3.173   6.108   8.566 -1.8954 -0.7506 -2.2026
 3568TIP3    H234900   3.087   6.201   8.484  0.6014  2.5149 -1.3228
 3569TIP3   OH234901   7.056   3.848   7.274 -0.4963  0.3524 -0.0759
 3569TIP3    H134902   7.051   3.752   7.270 -0.4527  0.3088  0.8158
 3569TIP3    H234903   6.966   3.877   7.261 -0.6977  0.1398  0.7548
 3570TIP3   OH234904   0.789   2.565   9.758 -0.2597  0.0688 -0.5403
 3570TIP3    H134905   0.732   2.642   9.761 -0.0097  0.3161 -1.5658
 3570TIP3    H234906   0.847   2.575   9.833 -0.0901  0.9919 -0.7814
 3571TIP3   OH234907   1.241   6.838   9.311 -0.0648  0.0354  0.3149
 3571TIP3    H134908   1.284   6.778   9.250  1.7197  1.8719 -0.3754
 3571TIP3    H234909   1.250   6.924   9.269 -1.5730  0.9320  1.7435
 3572TIP3   OH234910   3.959   6.462   8.497 -0.2636 -0.1804 -0.0796
 3572TIP3    H134911   3.950   6.371   8.466  1.0667 -0.0772 -0.8317
 3572TIP3    H234912   3.949   6.515   8.418  0.9266  0.2102  0.0195
 3573TIP3   OH234913   4.420   2.862   9.530  0.7204  0.1326 -0.6346
 3573TIP3    H134914   4.369   2.853   9.449  0.4651  1.0872 -0.5899
 3573TIP3    H234915   4.366   2.917   9.587  0.8463 -0.6330  0.2445
 3574TIP3   OH234916   4.796   0.839   9.362 -0.2537  0.6441  0.6284
 3574TIP3    H134917   4.886   0.867   9.381 -0.3937  1.8402 -0.3110
 3574TIP3    H234918   4.743   0.881   9.429 -0.0567 -0.7383  1.6954
 3575TIP3   OH234919   1.702   5.649   7.433  0.2020 -0.2486  0.0212
 3575TIP3    H134920   1.659   5.626   7.516 -1.1547 -3.7769 -1.4400
 3575TIP3    H234921   1.791   5.671   7.458 -0.4167 -0.2317  2.5050
 3576TIP3   OH234922   3.566   2.042   7.155 -0.4151  0.4823  0.0266
 3576TIP3    H134923   3.499   1.999   7.103  0.2001  0.4830 -0.7780
 3576TIP3    H234924   3.641   2.051   7.096  0.3746  0.2808  0.9680
 3577TIP3   OH234925   6.595   2.087   7.983 -0.1389  0.0115  0.2141
 3577TIP3    H134926   6.648   2.010   8.004 -1.2621 -1.0684 -0.7631
 3577TIP3    H234927   6.658   2.157   7.968  1.0236 -1.2333 -0.9275
 3578TIP3   OH234928   2.196   5.058   9.311 -0.0463  0.3486 -0.1784
 3578TIP3    H134929   2.178   5.089   9.223  0.5962 -0.2065 -0.5135
 3578TIP3    H234930   2.283   5.019   9.306  0.8235  1.9957  1.1436
 3579TIP3   OH234931   2.160   6.818   7.616  0.5543  0.2829 -0.2149
 3579TIP3    H134932   2.248   6.784   7.603 -0.4770 -2.1103 -1.6794
 3579TIP3    H234933   2.118   6.755   7.674 -0.5294  0.7673 -0.4484
 3580TIP3   OH234934   5.593   2.920   8.509  0.8980  0.1433  0.2282
 3580TIP3    H134935   5.603   2.837   8.462 -1.0832 -0.8677  1.4670
 3580TIP3    H234936   5.645   2.910   8.588 -2.1207 -1.4955  2.1923
 3581TIP3   OH234937   6.580   7.492   8.986 -0.2513  0.2652  0.4669
 3581TIP3    H134938   6.611   7.576   9.019 -0.6416  1.0437 -1.0535
 3581TIP3    H234939   6.660   7.443   8.966  0.0330  1.1845 -0.7989
 3582TIP3   OH234940   3.204   1.042   7.060 -0.7028  0.2271 -0.8312
 3582TIP3    H134941   3.274   1.106   7.073 -1.5028  1.3450 -1.7801
 3582TIP3    H234942   3.235   0.986   6.990 -0.3312  0.0843 -0.5522
 3583TIP3   OH234943   6.567   4.761   9.236  0.2915 -0.5286 -0.1147
 3583TIP3    H134944   6.633   4.771   9.167 -0.0446  0.3368 -0.3245
 3583TIP3    H234945   6.490   4.807   9.202  0.2967  0.3846  1.0583
 3584TIP3   OH234946   0.195   2.273   9.446 -0.0721  0.1802  0.0876
 3584TIP3    H134947   0.099   2.282   9.449 -0.0048  1.1828 -0.2757
 3584TIP3    H234948   0.219   2.303   9.359  0.6896  1.3892  0.6851
 3585TIP3   OH234949   6.214   6.586   8.991  0.9904 -0.4147  0.1118
 3585TIP3    H134950   6.179   6.530   9.061 -1.3636  1.6282  0.6840
 3585TIP3    H234951   6.182   6.546   8.910  1.5055 -1.2963  0.3257
 3586TIP3   OH234952   5.430   1.769   7.618 -0.2392  0.0504 -1.1237
 3586TIP3    H134953   5.400   1.780   7.527  0.5810  0.3309 -1.3702
 3586TIP3    H234954   5.358   1.801   7.671 -1.3558 -1.4850 -1.6154
 3587TIP3   OH234955   5.361   3.596   7.701 -0.0436  0.2385 -0.0845
 3587TIP3    H134956   5.278   3.586   7.749 -0.0357  1.1128  0.1393
 3587TIP3    H234957   5.335   3.601   7.609 -0.2019  0.0833 -0.0490
 3588TIP3   OH234958   7.220   4.652   7.316 -0.1062 -0.4168  0.1541
 3588TIP3    H134959   7.159   4.649   7.243 -0.7030 -2.0339  0.6657
 3588TIP3    H234960   7.248   4.561   7.328  0.1488 -0.1659  1.7742
 3589TIP3   OH234961   2.540   1.601   7.146 -0.3870  0.3576 -0.7799
 3589TIP3    H134962   2.622   1.577   7.101 -1.3997  0.7344 -2.9746
 3589TIP3    H234963   2.474   1.545   7.105 -1.4694  1.0914 -0.0712
 3590TIP3   OH234964   3.468   4.095   9.459  0.4370  0.3812  0.0698
 3590TIP3    H134965   3.444   4.002   9.464  0.5574  0.3442 -0.0462
 3590TIP3    H234966   3.511   4.104   9.374  0.7979  0.4589  0.2612
 3591TIP3   OH234967   0.511   5.445   7.327 -0.6775 -0.4678  0.2743
 3591TIP3    H134968   0.532   5.361   7.369 -2.6583 -1.2518 -0.1755
 3591TIP3    H234969   0.531   5.432   7.235 -1.8668 -0.8284  0.0392
 3592TIP3   OH234970   5.421   7.041   7.527 -0.1651  0.0704  0.3502
 3592TIP3    H134971   5.492   7.105   7.540  2.1136 -2.2303  0.1385
 3592TIP3    H234972   5.393   7.056   7.437  0.3502  0.7470  0.2867
 3593TIP3   OH234973   0.265   6.414   9.447  0.2787 -0.2244  0.2237
 3593TIP3    H134974   0.236   6.325   9.426 -1.8646  0.4455  0.1068
 3593TIP3    H234975   0.348   6.402   9.493 -0.6924 -2.3929  1.5665
 3594TIP3   OH234976   4.230   1.659   9.027  0.0229 -0.0977 -0.1792
 3594TIP3    H134977   4.136   1.648   9.042  0.5528 -2.4450  2.3970
 3594TIP3    H234978   4.255   1.734   9.082  0.0551 -1.3180  1.5396
 3595TIP3   OH234979   7.043   4.384   8.153  0.3891 -0.5085  0.2872
 3595TIP3    H134980   7.067   4.444   8.083 -0.2845 -0.0376  0.4499
 3595TIP3    H234981   7.078   4.299   8.125  1.4108 -0.0320  0.0908
 3596TIP3   OH234982   5.783   3.573   8.350 -0.0716  0.3739  0.2432
 3596TIP3    H134983   5.836   3.553   8.427 -2.2383  0.2479  1.8108
 3596TIP3    H234984   5.729   3.647   8.377 -0.0334  1.1379 -1.6307
 3597TIP3   OH234985   5.743   0.500   8.478 -0.2615 -0.0254 -0.1111
 3597TIP3    H134986   5.657   0.519   8.515 -0.6944 -1.5910 -0.2787
 3597TIP3    H234987   5.774   0.423   8.525  0.9157  0.3055 -0.2972
 3598TIP3   OH234988   2.792   4.756   9.438  0.1115 -0.2079 -0.5608
 3598TIP3    H134989   2.831   4.822   9.381  0.3989  0.0994 -0.0129
 3598TIP3    H234990   2.699   4.777   9.440  0.1157 -0.1650 -0.8434
 3599TIP3   OH234991   1.779   5.434   9.294  0.0050 -0.1223 -0.1063
 3599TIP3    H134992   1.760   5.509   9.237 -1.3990 -0.3949 -0.0139
 3599TIP3    H234993   1.865   5.455   9.332 -0.3694  1.4598 -0.0652
 3600TIP3   OH234994   5.267   1.788   8.800 -0.1770 -0.0670  0.5233
 3600TIP3    H134995   5.332   1.737   8.751  1.0840  2.2347 -0.3340
 3600TIP3    H234996   5.184   1.744   8.783  0.4189 -0.1583 -2.6061
 3601TIP3   OH234997   7.103   4.124   8.022 -0.0195 -0.3289  0.2528
 3601TIP3    H134998   7.174   4.111   7.959  0.5786 -0.5658  0.9652
 3601TIP3    H234999   7.121   4.061   8.091  0.4344  1.2205  1.6199
 3602TIP3   OH235000   6.771   5.388   7.602  0.7251 -0.4967  0.3300
 3602TIP3    H135001   6.790   5.301   7.566  0.4172 -1.4621  2.3934
 3602TIP3    H235002   6.828   5.447   7.552  0.9857 -1.8609 -1.0746
 3603TIP3   OH235003   7.038   0.382   7.967 -0.4128 -0.2371 -1.2237
 3603TIP3    H135004   7.022   0.356   7.876  0.8786  0.0732 -1.5534
 3603TIP3    H235005   6.950   0.386   8.006 -0.9102 -1.3702 -2.1674
 3604TIP3   OH235006   2.858   0.071   8.763  0.0630 -0.1606  0.0414
 3604TIP3    H135007   2.933   0.080   8.706  0.0968  0.6615  0.1998
 3604TIP3    H235008   2.837  -0.022   8.762 -0.1078 -0.1249 -1.5169
 3605TIP3   OH235009   5.019   1.532   7.772  0.1525  0.1243  0.0941
 3605TIP3    H135010   4.966   1.606   7.802 -1.0138 -0.7077  0.1861
 3605TIP3    H235011   5.057   1.561   7.690  1.2153  1.4772  1.0285
 3606TIP3   OH235012   2.378   4.958   6.882 -0.5181  0.0707  0.5294
 3606TIP3    H135013   2.383   5.048   6.849 -0.7125  0.3832  1.3419
 3606TIP3    H235014   2.344   4.966   6.971 -0.8746 -0.8398  0.4882
 3607TIP3   OH235015   1.482   3.365   7.076 -0.8442  0.4130 -0.4495
 3607TIP3    H135016   1.534   3.310   7.017 -1.9921 -1.0951 -0.0984
 3607TIP3    H235017   1.542   3.387   7.147 -0.2862 -0.1505 -0.7363
 3608TIP3   OH235018   2.065   5.596   8.220 -0.2341  0.0472  0.3725
 3608TIP3    H135019   2.023   5.533   8.161  1.0086  0.5429 -1.0924
 3608TIP3    H235020   2.006   5.672   8.220 -0.2839  0.0110 -0.1682
 3609TIP3   OH235021   6.203   2.341   7.577 -0.1985  0.1877  0.2561
 3609TIP3    H135022   6.235   2.361   7.489  0.8866 -0.4779  0.4939
 3609TIP3    H235023   6.280   2.345   7.633 -0.6923 -0.4750  1.0043
 3610TIP3   OH235024   1.553   1.047   9.396 -0.0577 -0.3756  0.5231
 3610TIP3    H135025   1.617   1.101   9.350 -0.8870 -0.2067 -0.4818
 3610TIP3    H235026   1.481   1.108   9.416 -0.3096 -0.7631  0.8181
 3611TIP3   OH235027   6.323   3.247   7.999  0.3362 -0.4343  0.1773
 3611TIP3    H135028   6.274   3.303   8.059 -0.1826 -0.1376 -0.5096
 3611TIP3    H235029   6.296   3.275   7.911  1.6532 -0.3472 -0.2255
 3612TIP3   OH235030   7.486   0.176   8.920  0.7822 -0.0849  0.0910
 3612TIP3    H135031   7.485   0.081   8.928  1.1024 -0.0742  0.2956
 3612TIP3    H235032   7.510   0.193   8.829  0.8779 -0.1974  0.0958
 3613TIP3   OH235033   3.340   4.475   7.870  0.6536  0.8396  0.2873
 3613TIP3    H135034   3.285   4.432   7.804  1.0074  2.0600 -0.8679
 3613TIP3    H235035   3.283   4.542   7.908  0.3190 -0.1418  1.5713
 3614TIP3   OH235036   1.714   1.481   9.257  0.1935 -0.0456  0.4792
 3614TIP3    H135037   1.766   1.425   9.315  0.9506  0.5381  0.3916
 3614TIP3    H235038   1.657   1.421   9.209 -0.6093 -0.5147  1.9862
 3615TIP3   OH235039   4.388   1.794   7.497 -0.2437 -0.1579  0.0621
 3615TIP3    H135040   4.344   1.852   7.435  0.0477  0.3592  0.3299
 3615TIP3    H235041   4.459   1.755   7.446  0.5213  0.9030  0.2557
 3616TIP3   OH235042   1.619   3.185   7.829  0.0367  0.2395  0.3555
 3616TIP3    H135043   1.689   3.234   7.787  1.1522 -1.9141 -0.4847
 3616TIP3    H235044   1.539   3.219   7.789  0.9820 -1.2563 -3.3060
 3617TIP3   OH235045   2.621   0.776   7.956 -0.1000 -0.7412  0.0603
 3617TIP3    H135046   2.703   0.745   7.917 -0.9305  0.1051 -2.6528
 3617TIP3    H235047   2.647   0.849   8.011  0.9788 -0.1003 -1.2283
 3618TIP3   OH235048   7.158   4.671   7.698  0.5557  0.8855  0.6077
 3618TIP3    H135049   7.082   4.691   7.643  1.0132  2.0975  0.3675
 3618TIP3    H235050   7.150   4.578   7.718  0.4326  0.3629 -1.6242
 3619TIP3   OH235051   1.561   6.759   7.173 -0.8621 -0.6523  0.2226
 3619TIP3    H135052   1.525   6.685   7.124 -2.6626  0.7979 -0.7865
 3619TIP3    H235053   1.603   6.813   7.106 -2.7525  1.0164  0.3052
 3620TIP3   OH235054   1.207   1.510   7.165 -0.2174  0.0613 -0.0494
 3620TIP3    H135055   1.120   1.505   7.126  0.3084 -0.6075 -1.1955
 3620TIP3    H235056   1.246   1.589   7.127 -0.0867 -0.0028 -0.0488
 3621TIP3   OH235057   2.403   3.304   8.060 -0.1928  1.1339 -0.5355
 3621TIP3    H135058   2.466   3.303   8.132 -0.2018 -0.5553 -0.5029
 3621TIP3    H235059   2.317   3.305   8.103 -0.2428 -1.7608 -0.3961
 3622TIP3   OH235060   2.598   5.970   6.697 -0.0680  0.1386 -0.1584
 3622TIP3    H135061   2.597   5.951   6.603  0.7525 -1.5273  0.1182
 3622TIP3    H235062   2.506   5.970   6.722 -0.3764  1.8882 -1.1649
 3623TIP3   OH235063   6.256   3.209   8.578 -0.4242  0.0461  0.8575
 3623TIP3    H135064   6.162   3.227   8.573 -0.1112  2.2643  1.8794
 3623TIP3    H235065   6.290   3.276   8.637  1.9749 -0.0893 -0.2591
 3624TIP3   OH235066   5.187   5.011   7.939  0.1506  0.1482 -0.1336
 3624TIP3    H135067   5.211   4.939   7.998 -0.2500  0.2093  0.1062
 3624TIP3    H235068   5.196   4.974   7.851 -0.7949 -0.4405  0.0028
 3625TIP3   OH235069   5.333   3.064   8.178  0.2241 -0.4229  0.4683
 3625TIP3    H135070   5.320   3.159   8.181  0.0961 -0.4140 -0.2361
 3625TIP3    H235071   5.348   3.039   8.269 -1.4983  0.0261  0.9189
 3626TIP3   OH235072   3.175   1.916   8.003  0.2438 -0.1997  0.3085
 3626TIP3    H135073   3.187   1.920   8.098 -1.2664 -1.4533  0.5936
 3626TIP3    H235074   3.113   1.986   7.985  0.6620  0.1498  0.2093
 3627TIP3   OH235075   7.261   2.796   9.437  0.4937 -0.4329 -0.2669
 3627TIP3    H135076   7.243   2.885   9.466  2.1138  0.3373 -1.4695
 3627TIP3    H235077   7.337   2.769   9.488 -0.6030 -1.5522  0.8316
 3628TIP3   OH235078   0.561   0.524   9.343 -0.5239 -0.1840 -0.3015
 3628TIP3    H135079   0.513   0.568   9.413  3.0556  0.7126  1.8372
 3628TIP3    H235080   0.579   0.437   9.379  0.9728  0.1392 -0.2213
 3629TIP3   OH235081   5.137   4.183   7.218  0.4613 -0.7433 -0.0455
 3629TIP3    H135082   5.068   4.247   7.237  1.1523  0.0301 -0.0846
 3629TIP3    H235083   5.157   4.197   7.125 -1.3246 -2.9461 -0.8418
 3630TIP3   OH235084   1.775   0.508   8.878  0.2422  0.1520  0.2573
 3630TIP3    H135085   1.820   0.510   8.794  2.8306  0.5496  1.5581
 3630TIP3    H235086   1.811   0.583   8.926 -1.9961  0.6058  1.3597
 3631TIP3   OH235087   6.626   5.213   9.351  0.3412 -0.1594  0.8256
 3631TIP3    H135088   6.700   5.155   9.369 -1.0095 -1.3875  2.8593
 3631TIP3    H235089   6.554   5.154   9.331 -0.5398  0.9304  0.7389
 3632TIP3   OH235090   6.500   0.862   8.866 -0.4010  0.6144  0.0785
 3632TIP3    H135091   6.509   0.911   8.948 -3.1806  2.9672 -0.8281
 3632TIP3    H235092   6.420   0.812   8.876  0.7678 -1.4314 -0.2132
 3633TIP3   OH235093   6.221   7.249   8.281 -0.4306 -0.0047 -0.5271
 3633TIP3    H135094   6.210   7.194   8.358 -1.0414 -2.4392 -2.2336
 3633TIP3    H235095   6.315   7.256   8.269 -0.2881 -2.3871 -1.3249
 3634TIP3   OH235096   6.355   0.362   7.611 -0.1150 -0.1141 -0.1502
 3634TIP3    H135097   6.328   0.271   7.626 -2.2147  0.7271  1.6848
 3634TIP3    H235098   6.430   0.355   7.552 -0.3048 -3.0179 -0.1933
 3635TIP3   OH235099   1.962   5.350   8.638 -0.5589  0.0258 -0.2151
 3635TIP3    H135100   2.010   5.292   8.578 -0.5156  0.7655 -0.9215
 3635TIP3    H235101   1.899   5.293   8.681 -0.8730 -0.4551 -1.2833
 3636TIP3   OH235102   5.276   3.759   8.389  0.5102 -0.8311 -0.3869
 3636TIP3    H135103   5.220   3.819   8.340 -1.6293 -0.7596  1.9267
 3636TIP3    H235104   5.228   3.676   8.389  1.3517 -1.3293  0.0262
 3637TIP3   OH235105   7.596   7.046   8.508 -0.5978  0.2428  0.2873
 3637TIP3    H135106   7.674   7.098   8.489 -0.7650  0.7331  0.8946
 3637TIP3    H235107   7.544   7.051   8.428  0.1502 -0.3861 -0.2498
 3638TIP3   OH235108   5.352   3.543   8.724 -0.0122 -0.2634 -0.7268
 3638TIP3    H135109   5.308   3.614   8.771  1.0577 -0.8914  1.3439
 3638TIP3    H235110   5.341   3.466   8.781 -0.6989 -1.6869 -2.6662
 3639TIP3   OH235111   5.342   1.956   8.461 -0.1127  0.5117 -0.4158
 3639TIP3    H135112   5.296   1.872   8.469  0.6391 -0.1530 -2.4813
 3639TIP3    H235113   5.273   2.021   8.454 -0.8559 -0.4347 -3.1676
 3640TIP3   OH235114   3.318   3.372   9.023  1.2645  0.1420  0.2085
 3640TIP3    H135115   3.276   3.294   9.060 -0.7019  0.7164 -0.6830
 3640TIP3    H235116   3.325   3.432   9.096  0.5652  0.0133  0.3838
 3641TIP3   OH235117   5.307   1.109   7.794 -0.1306  0.1302  0.5383
 3641TIP3    H135118   5.299   1.204   7.805  1.1131  0.4064 -0.6784
 3641TIP3    H235119   5.292   1.095   7.701  2.8748 -0.4373  0.0503
 3642TIP3   OH235120   2.062   7.175   7.937  0.0069  0.6197  0.5357
 3642TIP3    H135121   1.997   7.166   7.867 -1.1273 -2.1573  1.7730
 3642TIP3    H235122   2.126   7.106   7.919 -0.4017 -0.2707  2.2396
 3643TIP3   OH235123   1.725   4.113   8.544  0.2895 -0.4348 -0.6166
 3643TIP3    H135124   1.761   4.047   8.603  1.3709  0.4164 -0.2804
 3643TIP3    H235125   1.641   4.137   8.583  1.5857  1.1174  1.4427
 3644TIP3   OH235126   4.695   4.264   8.558 -0.1820 -0.5516 -0.2857
 3644TIP3    H135127   4.645   4.344   8.542 -0.0069  0.0626  1.9689
 3644TIP3    H235128   4.629   4.196   8.571 -0.3549 -0.4127 -0.4323
 3645TIP3   OH235129   0.575   1.269   7.920 -0.1442 -0.0743  0.7307
 3645TIP3    H135130   0.669   1.281   7.934 -0.2268  0.6906  0.6639
 3645TIP3    H235131   0.563   1.174   7.920  0.4289 -0.1696  2.0688
 3646TIP3   OH235132   1.260   2.282   8.906 -0.0916 -0.2958 -0.3625
 3646TIP3    H135133   1.292   2.196   8.880  2.2717  0.5525 -0.4826
 3646TIP3    H235134   1.314   2.306   8.981 -0.9404  0.9645 -0.1170
 3647TIP3   OH235135   5.915   2.461   8.802  0.4418  0.3489  0.2920
 3647TIP3    H135136   5.844   2.409   8.840 -1.1591  1.2923 -1.2867
 3647TIP3    H235137   5.938   2.523   8.871 -2.1438  1.7780 -0.0216
 3648TIP3   OH235138   1.947   0.685   9.006 -0.7675  0.3667 -0.3793
 3648TIP3    H135139   2.029   0.650   9.043  1.0857  3.4014 -1.3298
 3648TIP3    H235140   1.915   0.746   9.072 -2.4394 -0.8525  0.0277
 3649TIP3   OH235141   5.158   6.802   8.508 -0.1377 -0.2196  0.0150
 3649TIP3    H135142   5.071   6.823   8.543  0.0167  0.9258 -0.2305
 3649TIP3    H235143   5.213   6.876   8.534  0.2548  0.1112 -1.6320
 3650TIP3   OH235144   5.803   2.668   7.091 -0.0962 -0.3207  0.0809
 3650TIP3    H135145   5.727   2.620   7.060 -0.4694 -1.0413  1.9755
 3650TIP3    H235146   5.835   2.714   7.014 -0.8005 -2.1641 -1.3842
 3651TIP3   OH235147   0.431   2.425   8.327  0.2746  0.1906  0.1872
 3651TIP3    H135148   0.424   2.492   8.395  2.2804 -0.7485  1.4102
 3651TIP3    H235149   0.410   2.343   8.373  0.6921 -0.3379 -0.5521
 3652TIP3   OH235150   4.331   2.176   7.652 -0.2286  0.3445 -0.3816
 3652TIP3    H135151   4.323   2.255   7.598  1.8762  0.7367 -0.1960
 3652TIP3    H235152   4.252   2.124   7.630 -1.0125  1.9031 -1.4380
 3653TIP3   OH235153   4.797   0.145   8.184 -0.3301  0.1019  0.3349
 3653TIP3    H135154   4.749   0.069   8.152  0.9590 -0.0354 -1.4002
 3653TIP3    H235155   4.794   0.208   8.112 -0.1604  1.1380  1.2048
 3654TIP3   OH235156   0.102   6.327   6.645 -0.7258 -0.1668 -0.5360
 3654TIP3    H135157   0.016   6.319   6.686 -0.5910  0.4250 -0.1213
 3654TIP3    H235158   0.087   6.308   6.552 -1.1550 -0.8522 -0.3270
 3655TIP3   OH235159   5.662   2.907   8.767  0.1577 -0.3477  0.1395
 3655TIP3    H135160   5.670   2.870   8.855  1.0527  1.8137  1.0271
 3655TIP3    H235161   5.596   2.975   8.775 -1.1142 -1.3464 -1.3451
 3656TIP3   OH235162   2.380   7.417   7.295  0.2040  0.3143 -0.4184
 3656TIP3    H135163   2.440   7.360   7.246  0.0034 -0.6365  0.3982
 3656TIP3    H235164   2.350   7.481   7.231  1.8042  0.5908 -0.9298
 3657TIP3   OH235165   3.996   0.969   7.875  0.5864  0.0642  0.1303
 3657TIP3    H135166   4.010   0.978   7.969 -0.0613  1.2699  0.1256
 3657TIP3    H235167   3.901   0.969   7.864  0.6531  0.4977 -0.5559
 3658TIP3   OH235168   4.106   1.964   7.912  0.1614 -0.5738  0.5557
 3658TIP3    H135169   4.155   2.045   7.922 -0.5629 -0.0532 -0.0191
 3658TIP3    H235170   4.172   1.895   7.918  0.9102  0.0955  0.1560
 3659TIP3   OH235171   0.066   7.411   6.661  0.0001  0.3251 -0.0705
 3659TIP3    H135172   0.127   7.337   6.664  0.0907  0.4151  1.6577
 3659TIP3    H235173  -0.020   7.370   6.647  0.1794 -0.0132 -0.1978
 3660TIP3   OH235174   2.277   1.836   7.972 -0.0458 -0.3167  0.2506
 3660TIP3    H135175   2.269   1.747   7.939 -0.6427 -0.2209  0.1232
 3660TIP3    H235176   2.190   1.874   7.960 -0.0185  0.0240  1.0528
 3661TIP3   OH235177   0.165   5.122   7.731  0.3662 -0.6622 -0.0433
 3661TIP3    H135178   0.078   5.112   7.771  0.5734 -0.9079  0.3584
 3661TIP3    H235179   0.222   5.143   7.804  0.6155 -0.3181 -0.3375
 3662TIP3   OH235180   2.290   5.143   7.785 -0.0572  0.1085  0.1338
 3662TIP3    H135181   2.370   5.095   7.808  1.1852  1.9441 -0.2224
 3662TIP3    H235182   2.243   5.084   7.726  1.7097 -0.4611 -0.7746
 3663TIP3   OH235183   2.310   3.774   8.913  0.0799 -0.2431  0.1732
 3663TIP3    H135184   2.274   3.713   8.848 -0.7538  0.3449  0.0660
 3663TIP3    H235185   2.324   3.721   8.991 -1.5541 -0.4046  0.3981
 3664TIP3   OH235186   5.464   5.031   7.012  0.0247  0.6082  0.3073
 3664TIP3    H135187   5.466   4.942   7.047  0.7613  1.2304  1.9630
 3664TIP3    H235188   5.384   5.069   7.048 -0.8005  0.3531 -1.1801
 3665TIP3   OH235189   6.511   2.084   9.425 -0.0632  0.2962 -0.1674
 3665TIP3    H135190   6.440   2.118   9.370 -0.2934  1.1544  0.6325
 3665TIP3    H235191   6.566   2.160   9.444  1.9888 -0.6059 -2.0162
 3666TIP3   OH235192   5.208   1.864   7.743 -0.9762  0.1990  0.3627
 3666TIP3    H135193   5.217   1.807   7.819 -1.5273 -0.2640  0.0872
 3666TIP3    H235194   5.208   1.953   7.780 -0.3747  0.0224  0.8148
 3667TIP3   OH235195   4.032   6.434   8.221 -0.3192  0.2957 -0.1583
 3667TIP3    H135196   3.961   6.438   8.156  0.5696 -1.4637 -1.3163
 3667TIP3    H235197   4.094   6.501   8.192 -0.3533  0.1355 -0.6161
 3668TIP3   OH235198   4.418   5.570   9.333  0.1437  0.1051 -0.2063
 3668TIP3    H135199   4.445   5.534   9.249  0.8156 -0.8946  0.4142
 3668TIP3    H235200   4.495   5.620   9.363  0.4881 -0.8263  0.5088
 3669TIP3   OH235201   7.058   7.402   8.827  0.0579  0.3257  0.2874
 3669TIP3    H135202   7.006   7.412   8.748  1.0966  2.3029 -0.2018
 3669TIP3    H235203   7.039   7.313   8.858 -0.9152 -0.2198 -1.7603
 3670TIP3   OH235204   3.572   0.788   9.168 -0.3605 -0.0312  0.2216
 3670TIP3    H135205   3.549   0.733   9.093 -1.5903 -1.5294  1.5782
 3670TIP3    H235206   3.557   0.731   9.244  0.0701  1.6514  1.6465
 3671TIP3   OH235207   5.129   3.817   9.470 -0.0258 -0.2395 -0.1101
 3671TIP3    H135208   5.199   3.838   9.407 -2.2420  2.7979 -1.8700
 3671TIP3    H235209   5.092   3.903   9.493 -1.4389 -1.5215  2.8929
 3672TIP3   OH235210   0.574   3.510   8.797  0.2270  0.4016  0.1922
 3672TIP3    H135211   0.557   3.492   8.705  0.8912  1.5994 -0.1885
 3672TIP3    H235212   0.625   3.435   8.827  0.0455  0.0209 -0.4296
 3673TIP3   OH235213   3.512   2.624   9.316 -0.2202 -0.4175  0.4985
 3673TIP3    H135214   3.437   2.682   9.328 -0.4142 -0.5403 -0.0632
 3673TIP3    H235215   3.587   2.676   9.344 -0.4582 -0.1111  0.5814
 3674TIP3   OH235216   1.908   4.368   7.921 -0.1100 -0.9663 -0.1778
 3674TIP3    H135217   1.960   4.432   7.874 -0.4931 -0.2338  0.3672
 3674TIP3    H235218   1.961   4.288   7.922  0.6244 -0.4789 -0.3477
 3675TIP3   OH235219   1.995   3.525   7.358 -0.2663  0.1059 -0.1063
 3675TIP3    H135220   2.089   3.537   7.349  0.0197 -1.4730  0.4885
 3675TIP3    H235221   1.965   3.498   7.272 -0.2637  0.9848 -0.3971
 3676TIP3   OH235222   1.402   5.178   8.871  0.3497 -0.3419 -0.4663
 3676TIP3    H135223   1.473   5.187   8.934  1.6297  0.8206 -1.9954
 3676TIP3    H235224   1.419   5.094   8.827 -0.4943 -1.1101  0.6260
 3677TIP3   OH235225   0.038   2.180   8.977 -0.0086  0.2542  0.0620
 3677TIP3    H135226   0.112   2.238   8.994  1.4086 -1.1538 -1.0596
 3677TIP3    H235227  -0.007   2.174   9.061  1.3211  0.8857  0.8572
 3678TIP3   OH235228   1.895   5.675   8.593 -0.2490 -0.1681 -0.4178
 3678TIP3    H135229   1.897   5.753   8.649  1.1846 -1.3915  1.3400
 3678TIP3    H235230   1.802   5.657   8.580 -0.6075  0.9102  0.4765
 3679TIP3   OH235231   7.646   2.966   8.645  0.9636 -0.6368 -0.3532
 3679TIP3    H135232   7.593   3.037   8.681  2.6541  0.7342 -0.4342
 3679TIP3    H235233   7.586   2.919   8.587 -0.9881 -1.0855  1.8832
 3680TIP3   OH235234   6.384   7.513   8.803  0.6114 -0.7868 -0.0298
 3680TIP3    H135235   6.413   7.594   8.762 -0.9725  0.0608  0.4534
 3680TIP3    H235236   6.427   7.513   8.889 -1.4599  0.9987  1.1235
 3681TIP3   OH235237   4.543   6.562   9.511 -0.5705  0.6400 -0.2300
 3681TIP3    H135238   4.495   6.575   9.592 -1.4471  0.4586 -0.7027
 3681TIP3    H235239   4.621   6.616   9.519 -0.3814  0.2054  0.9497
 3682TIP3   OH235240   3.788   3.047   8.344  0.1825 -0.4655  0.0784
 3682TIP3    H135241   3.793   3.119   8.281 -2.6752  0.4724  0.8182
 3682TIP3    H235242   3.721   2.989   8.310 -3.0402  1.1224  3.0849
 3683TIP3   OH235243   5.653   5.081   7.425  0.2126 -0.1890  0.1313
 3683TIP3    H135244   5.686   5.167   7.452 -1.9879 -0.3441  4.1746
 3683TIP3    H235245   5.567   5.099   7.386  1.0641 -0.4434 -2.0182
 3684TIP3   OH235246   4.097   4.815   9.246  0.7643 -0.1784  0.3341
 3684TIP3    H135247   4.174   4.761   9.264  0.2582 -0.2900  2.3504
 3684TIP3    H235248   4.024   4.768   9.284 -0.3892 -0.1308 -1.6661
 3685TIP3   OH235249   7.509   7.343   8.584  1.0003  0.5181 -0.2650
 3685TIP3    H135250   7.599   7.309   8.580  1.6912  2.0183  1.0663
 3685TIP3    H235251   7.495   7.360   8.677 -1.7939 -2.3636 -0.0068
 3686TIP3   OH235252   5.724   5.956   7.617 -0.2330 -0.7632  0.4570
 3686TIP3    H135253   5.723   5.894   7.689  3.8412  0.3074  1.6826
 3686TIP3    H235254   5.745   5.904   7.540 -0.5576 -1.3670  0.7721
 3687TIP3   OH235255   2.806   3.718   8.344  0.3951 -0.4090  0.1357
 3687TIP3    H135256   2.871   3.783   8.372  1.2833  0.2521 -3.0024
 3687TIP3    H235257   2.723   3.752   8.376  1.2516  0.1994  1.8659
 3688TIP3   OH235258   6.892   6.825   6.967  0.3793  0.2281 -0.2653
 3688TIP3    H135259   6.801   6.818   6.940  0.2051  2.0305 -0.2604
 3688TIP3    H235260   6.889   6.856   7.057  1.0067 -0.7627  0.1169
 3689TIP3   OH235261   0.750   3.352   9.762 -0.0982 -0.6057 -0.0628
 3689TIP3    H135262   0.762   3.428   9.706  1.5263 -0.4226  0.4725
 3689TIP3    H235263   0.829   3.300   9.748  1.4619  0.4884  3.5841
 3690TIP3   OH235264   5.377   5.005   8.399  0.0586  0.0240 -0.2387
 3690TIP3    H135265   5.382   5.035   8.490  1.2263 -0.8434  0.0205
 3690TIP3    H235266   5.290   4.967   8.390 -0.3282  0.7548  0.2941
 3691TIP3   OH235267   6.686   0.960   8.678 -0.2266  0.4666  0.3155
 3691TIP3    H135268   6.626   0.996   8.612 -1.0082 -0.5287  0.4494
 3691TIP3    H235269   6.628   0.924   8.745  0.5487  1.9454  1.8525
 3692TIP3   OH235270   3.946   7.636   8.070 -0.4746  0.6407  0.2997
 3692TIP3    H135271   3.980   7.558   8.116 -1.9244 -0.3847 -0.2989
 3692TIP3    H235272   3.980   7.710   8.121  2.2601 -0.2770 -0.0057
 3693TIP3   OH235273   4.964   5.188   9.609  0.3353  0.1948  0.4693
 3693TIP3    H135274   4.901   5.229   9.550  0.8563  0.7092  0.2562
 3693TIP3    H235275   4.971   5.098   9.579  0.3983  0.3844 -0.0920
 3694TIP3   OH235276   4.092   4.311   7.791  0.1222 -0.1735 -0.0676
 3694TIP3    H135277   4.172   4.340   7.748 -0.3643  0.5289 -0.5200
 3694TIP3    H235278   4.092   4.358   7.875  1.4134 -2.0592  1.0540
 3695TIP3   OH235279   6.120   2.259   9.110 -0.1869 -0.3623  0.0039
 3695TIP3    H135280   6.029   2.239   9.130 -0.3905 -1.3043 -1.6759
 3695TIP3    H235281   6.139   2.340   9.159 -2.2387  0.4262 -0.4211
 3696TIP3   OH235282   5.420   7.071   7.269 -0.4973 -0.3530  0.8268
 3696TIP3    H135283   5.482   7.083   7.197 -0.3318 -0.3410  0.9691
 3696TIP3    H235284   5.384   6.983   7.255 -1.2292  0.0399  0.1521
 3697TIP3   OH235285   7.569   7.123   7.878 -0.4448  0.2872 -0.3282
 3697TIP3    H135286   7.663   7.142   7.883 -0.6071  0.9452  0.3434
 3697TIP3    H235287   7.565   7.034   7.845  0.4326  0.0829  0.0765
 3698TIP3   OH235288   1.307   5.827   8.582 -0.6644 -0.3834  0.2286
 3698TIP3    H135289   1.317   5.735   8.557  0.7684  0.0733 -1.0475
 3698TIP3    H235290   1.259   5.866   8.510 -0.0548  0.1300  0.0904
 3699TIP3   OH235291   0.346   7.128   8.633 -0.7464  0.2595  0.0781
 3699TIP3    H135292   0.329   7.135   8.727  0.4584  0.9058  0.2753
 3699TIP3    H235293   0.439   7.151   8.624 -1.1315  1.3945 -1.4024
 3700TIP3   OH235294   1.210   7.276   8.365  0.0072  0.6363  0.7442
 3700TIP3    H135295   1.289   7.326   8.386 -0.3948  1.9393 -0.5951
 3700TIP3    H235296   1.231   7.233   8.282 -0.0895 -0.4634  1.2774
 3701TIP3   OH235297   7.653   2.223   8.391 -0.2129 -0.0263  0.1044
 3701TIP3    H135298   7.569   2.211   8.347 -0.3170 -0.4541  0.4231
 3701TIP3    H235299   7.640   2.189   8.479  0.4725 -0.6667 -0.0356
 3702TIP3   OH235300   1.746   5.189   8.716 -0.3957 -0.6033 -0.4318
 3702TIP3    H135301   1.725   5.102   8.681 -1.2010  0.0806 -1.6902
 3702TIP3    H235302   1.697   5.194   8.798 -1.1218 -0.9732 -0.8368
 3703TIP3   OH235303   0.259   1.179   7.617 -0.3252 -0.0636  0.0010
 3703TIP3    H135304   0.266   1.092   7.657 -0.2709 -0.0683 -0.0184
 3703TIP3    H235305   0.333   1.228   7.653 -0.1214 -0.1507 -0.3028
 3704TIP3   OH235306   7.642   6.406   7.705 -0.7852  0.6669 -0.2336
 3704TIP3    H135307   7.731   6.438   7.718 -0.1229 -0.7220 -1.0224
 3704TIP3    H235308   7.601   6.412   7.791  0.8633 -0.8598  0.7381
 3705TIP3   OH235309   2.744   3.699   9.450 -0.2268 -0.1051 -0.5970
 3705TIP3    H135310   2.754   3.610   9.485  1.1744  0.3596  0.3036
 3705TIP3    H235311   2.834   3.730   9.439 -0.6931  1.3012 -0.6387
 3706TIP3   OH235312   5.407   5.640   9.161  0.4785 -0.9348 -0.1199
 3706TIP3    H135313   5.363   5.638   9.076 -1.4807 -1.4285  0.8648
 3706TIP3    H235314   5.340   5.667   9.223  1.9420 -0.3091  1.2684
 3707TIP3   OH235315   0.637   5.192   6.867  0.1295  0.5190 -0.4459
 3707TIP3    H135316   0.543   5.176   6.860  0.1828  0.7804 -2.1345
 3707TIP3    H235317   0.663   5.223   6.781  1.6977  0.8922  0.1203
 3708TIP3   OH235318   0.273   5.458   7.657 -0.1689  0.2101  0.5291
 3708TIP3    H135319   0.274   5.552   7.671 -0.0919  0.1079  1.2610
 3708TIP3    H235320   0.203   5.426   7.714  0.5761 -0.2983  1.1861
 3709TIP3   OH235321   4.748   0.564   8.645 -0.5144  0.0032 -0.2414
 3709TIP3    H135322   4.807   0.545   8.717  0.6566  1.9151 -0.6326
 3709TIP3    H235323   4.682   0.494   8.648 -1.1641  0.6111  3.3592
 3710TIP3   OH235324   6.342   7.483   7.346  0.6223 -0.0751 -0.2408
 3710TIP3    H135325   6.395   7.538   7.289  1.4420 -0.1568  0.4076
 3710TIP3    H235326   6.377   7.395   7.334  1.4485  0.0395  1.0449
 3711TIP3   OH235327   1.494   0.488   7.780 -0.1987  0.0112 -0.5455
 3711TIP3    H135328   1.528   0.403   7.753  1.3281  0.4121  0.0127
 3711TIP3    H235329   1.562   0.524   7.837 -0.9388  1.4895 -0.5536
 3712TIP3   OH235330   5.616   6.481   9.044 -0.3214  0.6741  0.1165
 3712TIP3    H135331   5.574   6.397   9.065 -0.1648 -0.2767 -2.7865
 3712TIP3    H235332   5.543   6.542   9.032 -0.4415  1.0015  2.1634
 3713TIP3   OH235333   7.662   0.559   7.875 -0.0100 -0.3346  0.1450
 3713TIP3    H135334   7.670   0.539   7.968  0.7316 -0.1658  0.1197
 3713TIP3    H235335   7.689   0.650   7.867 -2.1696  0.3667  0.0689
 3714TIP3   OH235336   3.700   1.353   7.308  0.1375 -0.0600 -0.2890
 3714TIP3    H135337   3.626   1.385   7.257 -0.5408 -0.6262  0.3102
 3714TIP3    H235338   3.770   1.342   7.244 -0.3832  0.2119 -0.9187
 3715TIP3   OH235339   5.926   6.158   7.642  0.3420 -0.3121 -0.5105
 3715TIP3    H135340   5.879   6.190   7.718  2.6595 -0.3034  1.0246
 3715TIP3    H235341   5.881   6.077   7.618 -1.3482  0.4702 -0.1132
 3716TIP3   OH235342   4.122   6.502   9.111  0.6611 -0.4650  0.0250
 3716TIP3    H135343   4.123   6.426   9.170  1.6973 -0.2610  0.3064
 3716TIP3    H235344   4.081   6.470   9.031 -0.5121 -0.8297  0.7440
 3717TIP3   OH235345   5.597   4.176   6.999 -0.1563  0.0785  0.0256
 3717TIP3    H135346   5.554   4.090   7.005 -0.8212  0.4153  0.1981
 3717TIP3    H235347   5.658   4.177   7.072 -0.1277 -0.2588  0.0091
 3718TIP3   OH235348   2.286   0.747   7.308 -0.0067  0.3044  0.1162
 3718TIP3    H135349   2.341   0.820   7.281 -0.4743  0.9292  0.8030
 3718TIP3    H235350   2.218   0.742   7.240 -0.0663  0.6056  0.1559
 3719TIP3   OH235351   7.623   1.717   8.573  0.2575 -0.0653 -0.2179
 3719TIP3    H135352   7.645   1.762   8.655  0.3335 -1.7243  0.7169
 3719TIP3    H235353   7.665   1.770   8.505  1.8652  0.3018  0.9761
 3720TIP3   OH235354   6.003   6.235   9.703  0.3408 -0.3195 -0.0435
 3720TIP3    H135355   6.001   6.326   9.730  0.4085 -0.8149  1.7325
 3720TIP3    H235356   5.943   6.231   9.628 -1.6521  0.7139  1.4232
 3721TIP3   OH235357   2.984   0.027   8.534  0.4228  0.2737  0.4797
 3721TIP3    H135358   2.928   0.011   8.459  1.1719  0.5462 -0.1520
 3721TIP3    H235359   3.066  -0.018   8.514 -0.6134 -3.0697  2.8863
 3722TIP3   OH235360   4.366   0.848   9.556  0.3226  0.0960 -0.2159
 3722TIP3    H135361   4.321   0.927   9.585  1.8014  1.0657 -0.4549
 3722TIP3    H235362   4.301   0.778   9.563 -0.4606  0.9856  1.7928
 3723TIP3   OH235363   1.828   4.642   8.750  0.9847 -0.4840  0.1772
 3723TIP3    H135364   1.797   4.730   8.770  0.0004 -0.4614 -1.2856
 3723TIP3    H235365   1.829   4.596   8.834 -1.9000 -0.1102  0.5089
 3724TIP3   OH235366   6.091   1.933   7.056  0.1208 -0.5792  0.0515
 3724TIP3    H135367   6.090   1.853   7.004 -0.7958 -1.8786  1.9408
 3724TIP3    H235368   6.106   1.903   7.146 -1.3972  1.2422  0.9893
 3725TIP3   OH235369   2.862   4.088   8.311 -0.4403  0.5082 -0.1102
 3725TIP3    H135370   2.878   4.030   8.385 -0.5341  0.6525  0.0234
 3725TIP3    H235371   2.772   4.069   8.284 -0.0993 -0.2161 -0.7841
 3726TIP3   OH235372   0.574   4.657   9.246 -0.0590  0.0155 -0.0563
 3726TIP3    H135373   0.668   4.651   9.233 -0.0774 -3.1848  0.3688
 3726TIP3    H235374   0.563   4.658   9.341 -0.3898 -2.4007  0.0166
 3727TIP3   OH235375   0.563   2.571   7.856  0.1764 -0.5063 -0.2729
 3727TIP3    H135376   0.598   2.520   7.783  0.1370  1.7580 -2.0039
 3727TIP3    H235377   0.621   2.648   7.861 -0.7309  0.1374  1.1140
 3728TIP3   OH235378   4.427   0.207   8.866  0.2213 -0.2156 -0.2287
 3728TIP3    H135379   4.469   0.273   8.810 -0.3828  0.8342  0.5335
 3728TIP3    H235380   4.497   0.177   8.924  0.2297  0.6033  0.1917
 3729TIP3   OH235381   4.670   6.946   9.356  0.2185 -0.0146 -0.0286
 3729TIP3    H135382   4.637   6.877   9.298 -0.4099  0.5021 -0.3001
 3729TIP3    H235383   4.680   7.022   9.299 -1.7661  0.9231  0.7760
 3730TIP3   OH235384   1.116   7.259   6.273  0.6114 -0.0908 -0.3221
 3730TIP3    H135385   1.087   7.189   6.331 -0.2665  0.7598  0.2984
 3730TIP3    H235386   1.067   7.245   6.192  0.6017 -0.3171 -0.2780
 3731TIP3   OH235387   2.065   0.918   9.186  0.0172 -0.1537  0.4655
 3731TIP3    H135388   2.049   0.876   9.270 -0.1922  1.4513  1.2611
 3731TIP3    H235389   1.992   0.980   9.175 -0.1887 -0.6178 -1.1030
 3732TIP3   OH235390   3.229   5.325   8.836  0.2581  0.4141  0.4073
 3732TIP3    H135391   3.297   5.266   8.868 -0.8452 -1.0411  0.1298
 3732TIP3    H235392   3.173   5.341   8.913  0.6033  1.1977  0.5066
 3733TIP3   OH235393   4.159   4.808   8.277  0.5049  0.1110 -0.1566
 3733TIP3    H135394   4.166   4.849   8.363  0.0551 -0.3253  0.0905
 3733TIP3    H235395   4.073   4.766   8.277  0.0314  0.9979 -1.2104
 3734TIP3   OH235396   6.235   2.409   8.844 -0.1518  0.3624 -0.0835
 3734TIP3    H135397   6.240   2.480   8.909  1.9971  0.8743 -0.7331
 3734TIP3    H235398   6.177   2.344   8.884  0.0992  1.2158  1.7829
 3735TIP3   OH235399   1.889   4.213   8.220 -0.1144  0.2217 -0.0968
 3735TIP3    H135400   1.818   4.149   8.218  1.3356 -1.4439 -1.0004
 3735TIP3    H235401   1.919   4.213   8.311 -0.7233  0.3001  0.1033
 3736TIP3   OH235402   2.476   5.168   7.045 -0.0425 -0.0229 -0.3773
 3736TIP3    H135403   2.542   5.134   6.983 -1.5520 -0.9089 -1.5871
 3736TIP3    H235404   2.440   5.245   7.001 -1.6619 -1.0981 -1.0232
 3737TIP3   OH235405   0.592   1.019   7.567 -0.1880 -0.4734  0.0480
 3737TIP3    H135406   0.543   0.945   7.602 -0.4453 -1.0555 -1.4586
 3737TIP3    H235407   0.539   1.095   7.589 -1.1740 -0.9801 -0.4827
 3738TIP3   OH235408   0.392   3.519   9.630 -0.0629  0.3579  0.3570
 3738TIP3    H135409   0.450   3.589   9.660 -1.6769  1.5432  0.8744
 3738TIP3    H235410   0.305   3.559   9.630 -1.0731 -1.7090  0.8581
 3739TIP3   OH235411   3.962   5.901   8.272  0.5835 -0.1201 -0.3226
 3739TIP3    H135412   4.003   5.815   8.279 -1.0862 -0.9766 -0.5535
 3739TIP3    H235413   3.931   5.920   8.361 -1.3128 -0.9774 -0.7510
 3740TIP3   OH235414   6.638   0.889   9.190 -0.2484 -0.5358  0.7348
 3740TIP3    H135415   6.586   0.964   9.165 -0.5837 -0.9966  0.0208
 3740TIP3    H235416   6.699   0.923   9.256  0.4314  0.6441 -0.4453
 3741TIP3   OH235417   4.413   5.841   8.485  0.3703 -0.1416  0.4918
 3741TIP3    H135418   4.359   5.849   8.564 -0.4211 -0.4760 -0.0107
 3741TIP3    H235419   4.378   5.906   8.425  2.0837  1.3368  1.0096
 3742TIP3   OH235420   1.599   5.016   7.083  0.1714 -0.1789 -0.1755
 3742TIP3    H135421   1.566   5.058   7.162  1.3214 -0.0757  0.2746
 3742TIP3    H235422   1.605   4.923   7.105  3.3770  0.1680  1.0168
 3743TIP3   OH235423   4.744   0.007   8.459 -0.0308 -0.0235  0.2341
 3743TIP3    H135424   4.804   0.014   8.385 -0.1921  0.4373  0.1445
 3743TIP3    H235425   4.668  -0.040   8.424 -1.1827  2.3238 -0.5919
 3744TIP3   OH235426   0.510   4.551   8.166 -0.2131 -0.0194  0.2032
 3744TIP3    H135427   0.494   4.569   8.258 -0.7518  1.1269 -0.0909
 3744TIP3    H235428   0.510   4.638   8.124 -0.3158 -0.5379 -0.9144
 3745TIP3   OH235429   5.739   5.062   9.075  0.0919  0.3152  0.3740
 3745TIP3    H135430   5.816   5.080   9.021  1.3271 -1.7503  1.3252
 3745TIP3    H235431   5.768   4.996   9.137 -1.3040  2.4271  3.5441
 3746TIP3   OH235432   1.674   1.622   8.686 -0.1948 -0.5842  0.4340
 3746TIP3    H135433   1.683   1.705   8.733  0.3260 -0.1971 -0.3478
 3746TIP3    H235434   1.744   1.622   8.622  0.4498 -2.0808  1.0788
 3747TIP3   OH235435   3.581   4.904   8.843  0.1564  0.3508  0.1511
 3747TIP3    H135436   3.677   4.903   8.850  0.3516  2.9207 -0.7544
 3747TIP3    H235437   3.563   4.979   8.785 -2.4355  0.4595  0.9796
 3748TIP3   OH235438   6.470   2.091   8.618  0.1738  0.1875  0.0491
 3748TIP3    H135439   6.433   2.002   8.612  0.9949 -0.1601  0.0414
 3748TIP3    H235440   6.409   2.145   8.568  0.2009 -0.5456 -0.8077
 3749TIP3   OH235441   1.408   2.257   9.135  1.1076  0.0503  0.7834
 3749TIP3    H135442   1.499   2.233   9.119  1.7379  1.3494  2.1021
 3749TIP3    H235443   1.369   2.179   9.173  1.1462 -1.1146 -1.4417
 3750TIP3   OH235444   2.404   1.071   6.511  0.2688  0.6334 -0.1638
 3750TIP3    H135445   2.457   1.009   6.561  0.6243 -0.7336 -2.1199
 3750TIP3    H235446   2.467   1.130   6.469  0.2117 -0.1717 -1.4364
 3751TIP3   OH235447   7.636   6.795   7.596  0.2355 -0.3043  0.3772
 3751TIP3    H135448   7.704   6.863   7.594  0.4002 -0.4566  0.7432
 3751TIP3    H235449   7.590   6.805   7.513 -1.0653  1.5906  1.2773
 3752TIP3   OH235450   3.060   5.443   9.010  0.5043 -0.2832  0.1456
 3752TIP3    H135451   2.997   5.485   9.069  0.9101 -0.6754  0.8711
 3752TIP3    H235452   3.145   5.469   9.044  0.7562  0.7291 -1.1865
 3753TIP3   OH235453   2.961   7.528   9.308 -0.3676 -0.6968  0.0143
 3753TIP3    H135454   2.895   7.485   9.363 -1.4453  1.0925  0.1930
 3753TIP3    H235455   2.911   7.593   9.258  1.3617  1.3733  0.8337
 3754TIP3   OH235456   3.072   5.238   9.299 -0.6543 -0.2057 -0.1371
 3754TIP3    H135457   3.135   5.309   9.285 -1.0221 -0.3785 -3.3632
 3754TIP3    H235458   3.061   5.234   9.394  0.1499  3.3574  0.2434
 3755TIP3   OH235459   6.924   2.654   6.961 -0.0566 -0.1272 -0.0570
 3755TIP3    H135460   6.938   2.671   7.054  0.4124  0.1129 -0.1688
 3755TIP3    H235461   6.874   2.730   6.931 -0.4113 -0.3183  0.0489
 3756TIP3   OH235462   5.556   6.297   6.956  0.3518 -0.1926 -0.0194
 3756TIP3    H135463   5.549   6.369   6.893  0.7052 -0.1620 -0.0232
 3756TIP3    H235464   5.493   6.232   6.924 -1.1418  0.7435  0.8540
 3757TIP3   OH235465   6.648   6.631   7.892  0.3156 -0.1379  0.0922
 3757TIP3    H135466   6.722   6.587   7.933  0.2795 -0.8312 -0.5665
 3757TIP3    H235467   6.685   6.709   7.851  0.9498 -1.1759 -1.4016
 3758TIP3   OH235468   0.045   1.103   9.330 -0.2541 -0.0916  0.7778
 3758TIP3    H135469   0.102   1.177   9.309 -1.3248  0.5884  0.1807
 3758TIP3    H235470   0.089   1.027   9.293 -0.4752  0.6375 -1.0877
 3759TIP3   OH235471   3.991   5.808   6.737 -0.6398  0.0468 -0.3516
 3759TIP3    H135472   4.006   5.821   6.830  0.5476 -1.5119 -0.2804
 3759TIP3    H235473   3.896   5.799   6.729 -0.6628 -1.1115  0.9198
 3760TIP3   OH235474   2.552   0.902   6.685 -0.2632 -0.0781  0.0567
 3760TIP3    H135475   2.515   0.974   6.737 -0.8024  1.0293 -1.7524
 3760TIP3    H235476   2.481   0.838   6.680 -1.0213  0.8059 -1.1019
 3761TIP3   OH235477   3.823   5.941   8.983  0.3618 -0.5029 -0.2496
 3761TIP3    H135478   3.824   5.951   8.888  1.1338  0.4708 -0.1539
 3761TIP3    H235479   3.732   5.921   9.005  0.1054 -0.3470 -1.1516
 3762TIP3   OH235480   0.560   6.794   9.322  0.4537 -0.3085  0.1279
 3762TIP3    H135481   0.570   6.871   9.377  1.0405 -0.5512  0.3682
 3762TIP3    H235482   0.599   6.723   9.373 -0.2536 -0.8005 -0.0053
 3763TIP3   OH235483   0.515   4.169   8.078 -0.0724  0.3421 -0.0228
 3763TIP3    H135484   0.567   4.166   7.997 -0.5144 -1.1432 -0.2841
 3763TIP3    H235485   0.446   4.105   8.064 -0.5849  0.5896  1.2616
 3764TIP3   OH235486   6.436   6.885   7.884  0.1805  0.0192 -0.1217
 3764TIP3    H135487   6.418   6.973   7.853 -0.8357  0.3281  1.2734
 3764TIP3    H235488   6.463   6.896   7.975 -1.1060 -1.1751  0.4447
 3765TIP3   OH235489   2.854   3.026   9.133  0.1646  0.1164  0.6962
 3765TIP3    H135490   2.902   3.108   9.119  0.8068  0.2946  3.3190
 3765TIP3    H235491   2.774   3.035   9.081  1.5160  1.1384 -1.3319
 3766TIP3   OH235492   2.447   6.100   9.616 -0.2051 -0.4734  0.1670
 3766TIP3    H135493   2.392   6.043   9.669 -0.8847  1.0515  1.1813
 3766TIP3    H235494   2.386   6.163   9.578  0.4723 -0.6226 -1.2329
 3767TIP3   OH235495   3.898   5.271   8.106  0.8437 -0.3985 -0.1581
 3767TIP3    H135496   3.919   5.180   8.088  0.4817 -1.1084  2.6226
 3767TIP3    H235497   3.946   5.320   8.039  0.9980 -2.5873 -1.7587
 3768TIP3   OH235498   7.529   4.422   8.525 -0.2988  0.5348  0.1459
 3768TIP3    H135499   7.451   4.475   8.507  0.1546  0.6267 -1.8364
 3768TIP3    H235500   7.596   4.458   8.466 -0.2070 -2.7277 -2.0238
 3769TIP3   OH235501   6.746   2.909   9.201 -0.1160 -0.1850  0.5987
 3769TIP3    H135502   6.832   2.943   9.223  0.9355 -1.0453 -1.8568
 3769TIP3    H235503   6.763   2.833   9.145 -2.4592 -0.4458  0.1085
 3770TIP3   OH235504   7.459   6.211   7.558  0.0576 -0.1565  0.0131
 3770TIP3    H135505   7.418   6.290   7.522 -0.1525 -0.2398  0.0675
 3770TIP3    H235506   7.528   6.244   7.615 -0.2494  0.0025  0.3018
 3771TIP3   OH235507   6.434   2.733   8.900 -0.5784  0.6818 -0.3431
 3771TIP3    H135508   6.353   2.740   8.851 -1.5475  0.2414  1.1248
 3771TIP3    H235509   6.432   2.806   8.962 -0.3222  0.1343  0.3316
 3772TIP3   OH235510   6.897   2.229   9.106  0.7356  0.2985 -0.1420
 3772TIP3    H135511   6.838   2.288   9.153  0.3708 -0.0779 -0.1108
 3772TIP3    H235512   6.838   2.169   9.059  1.0957  0.0828 -0.3264
 3773TIP3   OH235513   3.659   4.515   9.223 -0.2320  0.2693 -0.7028
 3773TIP3    H135514   3.596   4.536   9.292 -1.0377  0.5616 -1.5077
 3773TIP3    H235515   3.658   4.419   9.219 -1.5410  0.2889 -1.5080
 3774TIP3   OH235516   2.771   2.641   7.487  0.0373  0.1513 -0.1756
 3774TIP3    H135517   2.843   2.628   7.425  0.4398  1.3284  0.0074
 3774TIP3    H235518   2.742   2.731   7.470 -0.8564 -0.0384  0.3113
 3775TIP3   OH235519   6.948   1.897   8.075  0.2334 -0.4008 -0.0658
 3775TIP3    H135520   7.037   1.863   8.077  0.8730  1.1244 -0.9610
 3775TIP3    H235521   6.926   1.903   7.982 -0.4272  0.1621  0.1160
 3776TIP3   OH235522   5.140   0.659   6.959 -0.6894  0.1679  0.6977
 3776TIP3    H135523   5.200   0.680   6.888 -0.1662 -2.0358  0.4351
 3776TIP3    H235524   5.188   0.685   7.038  0.2837 -0.7768  0.4419
 3777TIP3   OH235525   5.524   3.984   8.682 -0.6869  0.3845 -0.1268
 3777TIP3    H135526   5.499   4.074   8.705  0.4993  0.5148  0.7562
 3777TIP3    H235527   5.561   3.948   8.763  1.4333  0.0466 -1.1567
 3778TIP3   OH235528   6.317   5.501   8.872 -0.1092  0.2379 -0.7830
 3778TIP3    H135529   6.402   5.542   8.854  0.1678 -0.2897 -0.6883
 3778TIP3    H235530   6.329   5.453   8.954 -0.3565 -0.2335 -1.0143
 3779TIP3   OH235531   6.988   0.004   8.452 -0.3465  0.8982  0.2307
 3779TIP3    H135532   7.044   0.065   8.499  0.1445  0.4131  0.2904
 3779TIP3    H235533   7.049  -0.052   8.404 -0.7966  0.6201 -0.0241
 3780TIP3   OH235534   5.394   2.688   8.301  0.2456 -0.3382  0.3437
 3780TIP3    H135535   5.451   2.627   8.349  0.4210 -0.3359  0.1354
 3780TIP3    H235536   5.433   2.694   8.214  1.1632  1.3215  0.8334
 3781TIP3   OH235537   5.142   0.716   6.569 -0.5655  0.3884 -0.0884
 3781TIP3    H135538   5.198   0.786   6.533 -2.0470  0.9680 -1.3996
 3781TIP3    H235539   5.066   0.714   6.510 -0.6095 -2.3066 -0.0381
 3782TIP3   OH235540   7.429   5.644   8.737  0.4375 -0.1280 -0.0282
 3782TIP3    H135541   7.372   5.584   8.784  0.3724 -0.1964 -0.1903
 3782TIP3    H235542   7.374   5.721   8.718 -0.0395 -0.7652 -1.4101
 3783TIP3   OH235543   7.479   3.067   7.066 -0.1592  0.0308  0.2059
 3783TIP3    H135544   7.472   3.145   7.120  1.2077  0.8362 -0.7365
 3783TIP3    H235545   7.388   3.046   7.042 -0.5169  1.5120  0.1988
 3784TIP3   OH235546   2.156   5.761   7.387 -0.0052 -0.4301  0.0219
 3784TIP3    H135547   2.234   5.794   7.343 -0.0833  2.8808  2.0244
 3784TIP3    H235548   2.086   5.770   7.322  0.2549  2.4451 -0.0066
 3785TIP3   OH235549   2.710   1.692   8.572 -0.1054  1.0252  0.4629
 3785TIP3    H135550   2.770   1.666   8.642 -1.1500 -0.5878  0.8113
 3785TIP3    H235551   2.681   1.780   8.596 -0.2332  0.5985  1.9158
 3786TIP3   OH235552   1.858   5.380   7.685 -0.5481 -0.4312  0.1552
 3786TIP3    H135553   1.950   5.402   7.701 -1.1549  3.0892 -0.3899
 3786TIP3    H235554   1.858   5.338   7.599  0.4760  0.0434 -0.0911
 3787TIP3   OH235555   1.407   2.634   7.116 -0.4845  0.6879  0.1786
 3787TIP3    H135556   1.483   2.586   7.150  0.9245  3.9322  2.0617
 3787TIP3    H235557   1.332   2.588   7.153  0.4768 -2.1046 -1.0258
 3788TIP3   OH235558   3.845   5.575   8.176  0.0939 -0.4355 -0.2617
 3788TIP3    H135559   3.792   5.637   8.226  0.4962  0.6445 -1.1290
 3788TIP3    H235560   3.785   5.504   8.154 -0.3147 -0.4948  0.9604
 3789TIP3   OH235561   6.602   2.570   8.084  0.0823 -0.1876 -0.0429
 3789TIP3    H135562   6.545   2.580   8.008 -0.7312  0.0487  0.5743
 3789TIP3    H235563   6.603   2.657   8.125  0.9917 -0.1597 -0.1114
 3790TIP3   OH235564   2.940   0.723   8.152  0.0853  0.2849 -0.2674
 3790TIP3    H135565   2.879   0.794   8.175  0.3192 -0.3500  2.6696
 3790TIP3    H235566   2.906   0.646   8.198  1.6546 -0.7441 -0.7393
 3791TIP3   OH235567   0.645   2.843   7.025  0.0734 -0.1398  0.0372
 3791TIP3    H135568   0.724   2.870   6.979 -1.3130  3.1171 -0.6913
 3791TIP3    H235569   0.670   2.843   7.118  0.8980  1.2164 -0.1527
 3792TIP3   OH235570   5.938   4.149   7.914 -0.1922  0.0495 -0.0887
 3792TIP3    H135571   5.956   4.173   7.823 -0.3746  1.6666  0.2612
 3792TIP3    H235572   5.986   4.215   7.966 -0.2778 -0.7059  0.9788
 3793TIP3   OH235573   5.104   5.236   9.133 -0.1224  0.0339  0.4939
 3793TIP3    H135574   5.036   5.192   9.082 -0.6415 -0.4651  1.5830
 3793TIP3    H235575   5.177   5.175   9.134  0.1865  0.3794 -0.2984
 3794TIP3   OH235576   3.867   4.585   7.567  0.1732 -0.5813 -0.1838
 3794TIP3    H135577   3.882   4.599   7.474 -0.9650  0.4383 -0.2462
 3794TIP3    H235578   3.887   4.670   7.607 -0.6426 -0.6139  0.3131
 3795TIP3   OH235579   4.508   2.149   7.874 -0.6709 -0.1809  0.1624
 3795TIP3    H135580   4.528   2.226   7.927  2.4589  0.8561 -2.2259
 3795TIP3    H235581   4.447   2.179   7.807 -0.0799  0.0324 -0.2848
 3796TIP3   OH235582   1.461   6.285   7.998  0.1512 -0.0968  0.4528
 3796TIP3    H135583   1.397   6.228   8.041 -0.2407  1.2842  1.7515
 3796TIP3    H235584   1.544   6.267   8.043  0.7134 -1.7661 -1.1218
 3797TIP3   OH235585   3.595   1.564   9.057  0.6984  0.0010 -0.2770
 3797TIP3    H135586   3.522   1.515   9.020  0.9023 -1.0515  0.6612
 3797TIP3    H235587   3.575   1.655   9.038 -0.1326 -0.3708 -1.2914
 3798TIP3   OH235588   0.211   6.295   8.763  0.0249  0.0726  0.0801
 3798TIP3    H135589   0.245   6.345   8.688  2.9551 -3.0580 -0.9248
 3798TIP3    H235590   0.269   6.319   8.835  0.6274 -0.7841 -0.0920
 3799TIP3   OH235591   1.784   0.331   9.381  0.5010 -0.6031  0.0821
 3799TIP3    H135592   1.792   0.420   9.415  1.5154 -0.6695  0.0438
 3799TIP3    H235593   1.860   0.320   9.323 -0.0363 -1.2300 -0.5197
 3800TIP3   OH235594   6.453   4.227   9.082 -0.0451  0.1958  0.1971
 3800TIP3    H135595   6.440   4.301   9.141 -1.7826 -0.3379  0.5156
 3800TIP3    H235596   6.395   4.159   9.115  0.5446 -0.8594 -0.8775
 3801TIP3   OH235597   0.598   2.413   8.745 -0.3535  0.3037  0.6742
 3801TIP3    H135598   0.623   2.379   8.831 -0.7326 -2.4991 -0.2195
 3801TIP3    H235599   0.658   2.370   8.684 -2.4093 -0.7338 -0.7687
 3802TIP3   OH235600   6.914   0.022   9.092 -0.2814 -0.8314  0.0181
 3802TIP3    H135601   6.884   0.111   9.114  0.1173 -0.2433 -1.6523
 3802TIP3    H235602   6.989   0.007   9.149  0.2102  0.2893 -0.3003
 3803TIP3   OH235603   7.432   4.675   7.774  0.2511  0.3905  0.4687
 3803TIP3    H135604   7.476   4.639   7.697  0.1887 -1.9127  1.4274
 3803TIP3    H235605   7.356   4.720   7.739  2.7220  3.6938 -1.1640
 3804TIP3   OH235606   3.210   4.336   7.615  0.0351 -0.6126 -0.3704
 3804TIP3    H135607   3.117   4.319   7.629 -0.3634  1.9582  0.6895
 3804TIP3    H235608   3.220   4.336   7.520 -1.7089  1.6956 -0.6455
 3805TIP3   OH235609   0.838   4.216   8.620 -0.1180  0.1500  0.4004
 3805TIP3    H135610   0.920   4.245   8.581  0.6209 -1.6288  0.5398
 3805TIP3    H235611   0.791   4.297   8.641  1.4239  1.1907 -0.0261
 3806TIP3   OH235612   1.792   0.787   8.056 -0.5392 -0.5610  0.6135
 3806TIP3    H135613   1.822   0.870   8.092 -0.2136 -1.1859  1.8737
 3806TIP3    H235614   1.774   0.733   8.134 -2.5715 -1.0336 -0.1424
 3807TIP3   OH235615   6.277   0.245   8.295  0.0858 -0.0630  0.8018
 3807TIP3    H135616   6.363   0.268   8.328 -0.1184  3.3044 -0.5807
 3807TIP3    H235617   6.216   0.282   8.359 -0.3211 -0.2695  0.5423
 3808TIP3   OH235618   4.711   5.715   8.568  0.1045  0.5670 -0.1437
 3808TIP3    H135619   4.735   5.623   8.558  2.6062  0.9330  1.7786
 3808TIP3    H235620   4.709   5.748   8.478 -1.2560 -1.3910 -0.9136
 3809TIP3   OH235621   6.497   3.553   7.673 -0.0250  0.1101 -0.1130
 3809TIP3    H135622   6.485   3.639   7.634  0.2021 -0.4349 -1.4226
 3809TIP3    H235623   6.536   3.500   7.604  2.1997 -0.4019  1.4091
 3810TIP3   OH235624   1.831   4.897   8.812  0.3981  0.5807 -0.4871
 3810TIP3    H135625   1.869   4.940   8.735  0.4481  0.0999 -0.7317
 3810TIP3    H235626   1.869   4.945   8.887  0.8159  0.6631 -0.7446
 3811TIP3   OH235627   6.966   6.406   8.190  0.4929 -0.2261 -0.4552
 3811TIP3    H135628   6.993   6.492   8.160  2.8188 -0.6818  0.1321
 3811TIP3    H235629   6.877   6.395   8.155 -1.1022  3.5074  1.7974
 3812TIP3   OH235630   0.367   5.998   8.161 -0.2089  0.2706 -0.0995
 3812TIP3    H135631   0.299   5.991   8.228  0.7194  1.6169  1.0709
 3812TIP3    H235632   0.358   5.918   8.109 -2.1930  0.0812  0.4500
 3813TIP3   OH235633   0.972   4.062   7.300 -0.1108  0.3238 -0.4335
 3813TIP3    H135634   0.941   4.013   7.376  0.7240 -0.6686 -0.7103
 3813TIP3    H235635   0.936   4.150   7.311 -2.7333 -0.6552 -0.5709
 3814TIP3   OH235636   3.712   2.764   8.957  0.0591 -0.1940 -0.7030
 3814TIP3    H135637   3.807   2.750   8.957  0.2054  0.7518  0.1475
 3814TIP3    H235638   3.677   2.682   8.922  1.1046 -1.0957  0.2799
 3815TIP3   OH235639   3.095   7.458   7.483 -0.4061  0.4679 -0.4598
 3815TIP3    H135640   3.113   7.433   7.573 -0.0138 -0.9422 -0.9032
 3815TIP3    H235641   3.062   7.548   7.489  1.2755  1.0534  0.9202
 3816TIP3   OH235642   0.560   1.561   7.127  0.0711  0.2714  0.0896
 3816TIP3    H135643   0.614   1.619   7.074  1.2057 -0.0591  0.8217
 3816TIP3    H235644   0.511   1.509   7.064  0.8889  0.3383 -0.6279
 3817TIP3   OH235645   2.637   5.978   7.410  0.7901 -0.2540 -0.4266
 3817TIP3    H135646   2.696   5.995   7.483 -0.5972  0.7065  0.5256
 3817TIP3    H235647   2.665   5.893   7.375  1.7729 -0.5083  0.9165
 3818TIP3   OH235648   3.176   5.295   7.118  0.1034 -0.1329  0.3772
 3818TIP3    H135649   3.154   5.316   7.028 -0.0925  0.1985  0.4994
 3818TIP3    H235650   3.266   5.323   7.129 -0.2581  0.9806  0.6367
 3819TIP3   OH235651   3.646   7.225   8.245 -0.5503  0.3491  0.3341
 3819TIP3    H135652   3.627   7.236   8.338 -0.3815 -1.5940  0.6400
 3819TIP3    H235653   3.600   7.145   8.220 -0.8674  1.0145 -1.3582
 3820TIP3   OH235654   4.342   0.898   8.261  0.0112 -0.5516 -0.1409
 3820TIP3    H135655   4.292   0.826   8.223  0.7326 -1.6219  0.8526
 3820TIP3    H235656   4.412   0.915   8.197 -0.1798 -0.7235 -0.3951
 3821TIP3   OH235657   6.409   3.937   6.713 -0.2934 -0.2386  0.6405
 3821TIP3    H135658   6.457   3.879   6.773 -0.2629 -0.1057  0.7458
 3821TIP3    H235659   6.463   4.016   6.708  0.6076 -0.9201 -0.9480
 3822TIP3   OH235660   7.034   6.934   8.142 -0.2184 -0.6473 -0.0508
 3822TIP3    H135661   7.041   6.840   8.128 -1.7149 -0.9318  0.8594
 3822TIP3    H235662   6.987   6.943   8.225  0.5510  0.9140  0.2634
 3823TIP3   OH235663   3.121   5.344   8.550 -1.1250  0.1035 -0.6374
 3823TIP3    H135664   3.154   5.304   8.630  1.1907  1.3406 -0.8948
 3823TIP3    H235665   3.043   5.392   8.578 -1.9209 -1.6367  0.3080
 3824TIP3   OH235666   3.160   5.740   7.711 -0.3435 -0.3725 -0.1278
 3824TIP3    H135667   3.200   5.818   7.673 -2.3296  0.8001  0.0477
 3824TIP3    H235668   3.225   5.671   7.697  1.1162  1.1032 -1.0660
 3825TIP3   OH235669   3.614   1.249   8.006 -0.2616  1.3328 -0.0757
 3825TIP3    H135670   3.570   1.164   8.020  0.1750  1.1684  0.2978
 3825TIP3    H235671   3.556   1.295   7.946 -0.1756  0.5080 -0.8169
 3826TIP3   OH235672   5.332   1.623   9.069 -0.3842 -0.2591 -0.4603
 3826TIP3    H135673   5.380   1.544   9.096  0.2857  0.7029  1.3888
 3826TIP3    H235674   5.287   1.598   8.988  3.0345 -1.3168 -2.2178
 3827TIP3   OH235675   1.515   2.864   7.024 -0.0129 -0.3564  0.1383
 3827TIP3    H135676   1.446   2.805   7.054  0.7666 -0.0438  2.8453
 3827TIP3    H235677   1.588   2.807   7.002  0.2422 -0.5434  1.3602
 3828TIP3   OH235678   3.922   0.787   8.756 -0.0170 -0.4978  1.0967
 3828TIP3    H135679   3.826   0.782   8.758 -0.2088  2.0362  2.5024
 3828TIP3    H235680   3.947   0.796   8.848  1.3465  1.3252  0.5888
 3829TIP3   OH235681   0.543   3.902   7.466  0.5926 -0.0930  0.5689
 3829TIP3    H135682   0.535   3.859   7.381  0.6266  1.1383 -0.0788
 3829TIP3    H235683   0.598   3.844   7.517 -0.7472 -1.6626  0.3095
 3830TIP3   OH235684   2.933   6.741   6.753 -0.1579  0.0927 -0.5959
 3830TIP3    H135685   2.918   6.651   6.723  1.0245 -0.6754  0.9763
 3830TIP3    H235686   2.847   6.782   6.752 -0.7923 -1.2002 -0.8827
 3831TIP3   OH235687   4.211   2.212   7.923 -0.0977  0.6372 -0.4492
 3831TIP3    H135688   4.234   2.222   7.830  0.5575  0.1771 -0.3462
 3831TIP3    H235689   4.165   2.293   7.945 -0.1338  0.8138 -1.1386
 3832TIP3   OH235690   0.633   4.001   8.805  0.1261 -0.1071  0.1550
 3832TIP3    H135691   0.598   3.965   8.886  2.3312 -0.7958  0.8865
 3832TIP3    H235692   0.675   4.082   8.831 -1.2181  0.9303 -0.7692
 3833TIP3   OH235693   3.550   6.662   8.722 -0.2448  0.2312 -0.0099
 3833TIP3    H135694   3.630   6.614   8.744  1.1767  1.8133 -1.3615
 3833TIP3    H235695   3.528   6.710   8.801  2.6172  2.9726 -0.6769
 3834TIP3   OH235696   7.004   6.300   7.788 -0.5955  0.7905  0.4056
 3834TIP3    H135697   6.960   6.217   7.768 -0.7596  0.6423  1.3443
 3834TIP3    H235698   7.066   6.278   7.858  0.1629  1.2361 -0.1167
 3835TIP3   OH235699   6.814   1.563   9.536 -0.1966 -0.1606  0.1355
 3835TIP3    H135700   6.903   1.538   9.511 -0.7562 -1.3063 -0.8192
 3835TIP3    H235701   6.825   1.620   9.612  1.3449 -0.3043  0.0443
 3836TIP3   OH235702   2.675   2.115   8.498 -0.2650  0.7997 -0.2917
 3836TIP3    H135703   2.676   2.066   8.580 -2.7292  0.7455 -0.2068
 3836TIP3    H235704   2.748   2.176   8.505  0.1020  0.2051  1.5615
 3837TIP3   OH235705   1.026   3.291   8.761 -0.0207  0.3718  0.0163
 3837TIP3    H135706   1.054   3.221   8.820 -3.1064  0.0624  1.3311
 3837TIP3    H235707   1.020   3.249   8.675  1.5907  0.0130  0.0533
 3838TIP3   OH235708   6.152   0.030   8.712 -0.1413  0.4242  0.0112
 3838TIP3    H135709   6.215  -0.037   8.685  0.2070  0.1393  1.4745
 3838TIP3    H235710   6.160   0.098   8.645  0.3422 -0.4526 -0.8570
 3839TIP3   OH235711   5.193   4.219   7.722  0.2148 -0.2133  0.0500
 3839TIP3    H135712   5.252   4.287   7.691 -2.0446  1.7492 -0.2443
 3839TIP3    H235713   5.232   4.137   7.691  2.3806  1.0104 -0.6674
 3840TIP3   OH235714   6.364   7.621   8.248  0.6986  0.6161 -0.2809
 3840TIP3    H135715   6.286   7.677   8.251 -0.9733 -1.4249 -2.0230
 3840TIP3    H235716   6.426   7.669   8.194  0.2114  1.7486  0.1284
 3841TIP3   OH235717   5.852   5.934   9.590  0.3352 -0.6101 -0.7922
 3841TIP3    H135718   5.869   6.017   9.546 -0.7799  0.8107  1.2783
 3841TIP3    H235719   5.757   5.929   9.598  0.4058 -1.8622 -0.4413
 3842TIP3   OH235720   6.586   0.497   8.682  0.2318  0.2422  0.1038
 3842TIP3    H135721   6.644   0.573   8.680  0.1851  0.2585 -1.0648
 3842TIP3    H235722   6.642   0.424   8.708  0.4345  0.5295  0.4922
 3843TIP3   OH235723   7.439   3.658   7.663  0.3718 -0.0376 -0.2053
 3843TIP3    H135724   7.476   3.681   7.578  0.6326  0.9956  0.1698
 3843TIP3    H235725   7.402   3.571   7.650  0.8576 -0.1123 -1.2324
 3844TIP3   OH235726   4.783   7.500   9.304 -0.7276  0.0607 -0.3420
 3844TIP3    H135727   4.801   7.412   9.336  0.2258  0.5687  0.5862
 3844TIP3    H235728   4.701   7.525   9.348 -1.4398 -0.6429 -1.2335
 3845TIP3   OH235729   0.215   4.787   8.294 -0.1062  0.1362  0.1465
 3845TIP3    H135730   0.161   4.793   8.373  0.1085 -0.0448  0.3071
 3845TIP3    H235731   0.301   4.818   8.322 -0.2071  0.7411 -0.1907
 3846TIP3   OH235732   1.842   2.352   9.546 -0.2835 -0.3425  0.7227
 3846TIP3    H135733   1.777   2.282   9.544  0.3547 -0.9395 -0.6885
 3846TIP3    H235734   1.899   2.330   9.620 -0.0936 -1.3324  0.3030
 3847TIP3   OH235735   6.049   2.504   8.297  0.0898 -0.3498 -0.6115
 3847TIP3    H135736   6.028   2.481   8.387  0.7819  0.7120 -0.1621
 3847TIP3    H235737   6.059   2.420   8.253 -0.1392 -0.8822  0.3221
 3848TIP3   OH235738   6.821   5.297   7.341 -0.1552 -0.2733  0.5917
 3848TIP3    H135739   6.852   5.334   7.258  0.7075 -0.7762  0.6885
 3848TIP3    H235740   6.726   5.293   7.330 -0.0558 -0.3455 -0.3794
 3849TIP3   OH235741   4.230   3.616   8.537  0.4898 -0.0083  0.2499
 3849TIP3    H135742   4.259   3.547   8.477 -1.8111 -2.7947  2.0816
 3849TIP3    H235743   4.154   3.655   8.494  1.4368  1.0663 -0.5150
 3850TIP3   OH235744   2.605   5.498   9.168  0.1060  0.9941  0.3291
 3850TIP3    H135745   2.581   5.428   9.108 -0.0514  0.7983  0.6156
 3850TIP3    H235746   2.579   5.578   9.123 -1.5224  0.7641  0.8203
 3851TIP3   OH235747   1.228   2.526   7.542  0.3906 -0.2665  0.4311
 3851TIP3    H135748   1.168   2.538   7.616 -0.5188 -0.2429 -0.2878
 3851TIP3    H235749   1.287   2.456   7.570  0.2668 -0.0442  1.2957
 3852TIP3   OH235750   1.784   4.622   9.310  0.1116 -0.4309 -0.0961
 3852TIP3    H135751   1.780   4.657   9.399  2.3453 -1.3006  0.4167
 3852TIP3    H235752   1.701   4.576   9.299  0.4656 -1.8357  2.2549
 3853TIP3   OH235753   1.327   3.063   8.775  0.0341  0.3814  0.0784
 3853TIP3    H135754   1.263   3.107   8.830 -0.3193 -0.2720  0.1976
 3853TIP3    H235755   1.275   3.017   8.709  0.2629 -1.4261  1.0908
 3854TIP3   OH235756   6.374   3.616   6.888 -0.7502  0.2716 -0.0760
 3854TIP3    H135757   6.447   3.677   6.891  0.5918 -1.3086  1.0598
 3854TIP3    H235758   6.309   3.659   6.832  0.6056  2.1714 -0.2840
 3855TIP3   OH235759   2.157   7.525   7.849  0.1717  0.2401 -0.2490
 3855TIP3    H135760   2.137   7.606   7.804 -1.8497 -0.6741 -1.1187
 3855TIP3    H235761   2.086   7.515   7.913 -0.4162 -1.4836 -1.1029
 3856TIP3   OH235762   1.002   0.856   8.011  0.1402  0.1588  0.4830
 3856TIP3    H135763   0.988   0.778   8.065 -1.9606  0.2631  0.1659
 3856TIP3    H235764   1.078   0.899   8.050 -0.1621 -0.7677  2.1804
 3857TIP3   OH235765   5.053   5.585   8.084 -0.5889 -0.4186 -0.6931
 3857TIP3    H135766   5.017   5.522   8.147 -0.3012  0.2183  0.1297
 3857TIP3    H235767   5.010   5.668   8.105 -1.3898 -0.4393 -2.1421
 3858TIP3   OH235768   6.049   5.457   7.125 -1.0878  0.0051  0.2121
 3858TIP3    H135769   5.994   5.535   7.138  1.5791  2.0487  0.2034
 3858TIP3    H235770   6.082   5.466   7.035  1.7921  0.7519  1.2287
 3859TIP3   OH235771   4.714   6.850   7.768 -0.4635 -0.1193  0.3519
 3859TIP3    H135772   4.791   6.834   7.713  0.5404  0.7758  1.4451
 3859TIP3    H235773   4.670   6.924   7.725 -0.6030 -0.4780 -0.1403
 3860TIP3   OH235774   6.106   1.243   9.406  0.5775  0.1050  0.0074
 3860TIP3    H135775   6.192   1.268   9.371  0.4468  0.0384 -0.3621
 3860TIP3    H235776   6.124   1.171   9.466  1.1075  1.7199  1.8944
 3861TIP3   OH235777   7.197   0.653   6.883  0.0477  0.3253 -0.2467
 3861TIP3    H135778   7.197   0.557   6.879 -1.5310  0.3233 -2.0815
 3861TIP3    H235779   7.284   0.678   6.852  0.1675 -0.5273 -0.6479
 3862TIP3   OH235780   6.763   5.028   7.434  0.5293 -0.1588  0.7658
 3862TIP3    H135781   6.805   4.981   7.362 -2.1211 -0.2400 -0.8391
 3862TIP3    H235782   6.790   5.119   7.421 -1.0871  0.0922 -1.3250
 3863TIP3   OH235783   1.496   7.548   8.724  0.4788 -0.5722  0.3378
 3863TIP3    H135784   1.409   7.523   8.756  1.0217 -3.0124  0.1128
 3863TIP3    H235785   1.557   7.515   8.790  1.2815  0.6556  0.2421
 3864TIP3   OH235786   5.834   4.754   8.223  0.2219 -0.3488 -0.3667
 3864TIP3    H135787   5.805   4.810   8.295  0.8555  0.3391 -0.6369
 3864TIP3    H235788   5.899   4.696   8.262  0.4690 -0.0648 -0.3558
 3865TIP3   OH235789   2.408   1.692   8.606 -0.1849 -0.1717 -0.6202
 3865TIP3    H135790   2.443   1.766   8.656 -0.0953  0.6154 -1.8135
 3865TIP3    H235791   2.421   1.617   8.663 -1.7637  0.9265  1.3294
 3866TIP3   OH235792   5.200   7.277   8.302 -0.6202  0.0376 -0.4218
 3866TIP3    H135793   5.245   7.361   8.296 -0.8355  0.2800  1.0110
 3866TIP3    H235794   5.124   7.286   8.244 -0.6037  0.8063 -0.3309
 3867TIP3   OH235795   6.320   1.329   7.010  0.1695 -0.5107 -0.0283
 3867TIP3    H135796   6.340   1.417   6.979  0.0329 -0.6204 -0.4375
 3867TIP3    H235797   6.404   1.294   7.038  0.1545 -0.0960  0.5377
 3868TIP3   OH235798   1.574   6.090   7.052  0.2812 -0.0626 -0.1481
 3868TIP3    H135799   1.622   6.057   6.977  1.9684  0.3261  0.7258
 3868TIP3    H235800   1.541   6.176   7.025  3.0595  1.2446  0.3320
 3869TIP3   OH235801   1.004   5.008   7.058  0.1915  0.4555 -0.3197
 3869TIP3    H135802   0.949   5.069   7.010  3.2283  1.9270 -2.2518
 3869TIP3    H235803   0.974   4.921   7.030 -1.5864  1.1536 -0.6755
 3870TIP3   OH235804   3.919   0.161   8.535 -0.3587  0.5459  0.5863
 3870TIP3    H135805   4.003   0.204   8.550  0.3985 -0.3642 -0.7833
 3870TIP3    H235806   3.926   0.125   8.446 -2.0161  0.0291  0.6227
 3871TIP3   OH235807   6.319   4.749   8.019  0.7332 -0.0792 -0.2792
 3871TIP3    H135808   6.383   4.703   7.965  0.1535 -0.6765 -0.4738
 3871TIP3    H235809   6.282   4.681   8.076 -0.9975 -0.1244 -1.3968
 3872TIP3   OH235810   1.009   2.261   8.413 -0.6700 -0.5977  0.4551
 3872TIP3    H135811   1.047   2.174   8.406  0.1667 -0.2544  0.5776
 3872TIP3    H235812   0.941   2.263   8.347  0.7088 -0.6384 -1.0256
 3873TIP3   OH235813   0.766   4.781   8.252 -0.0282  0.5472  0.5074
 3873TIP3    H135814   0.749   4.859   8.304 -0.0107  2.9788 -2.8096
 3873TIP3    H235815   0.737   4.804   8.164  3.2017 -1.9220 -1.4297
 3874TIP3   OH235816   4.559   0.052   7.792 -0.6892 -0.5052 -0.0388
 3874TIP3    H135817   4.626   0.086   7.852  0.4225 -1.3666 -0.7394
 3874TIP3    H235818   4.477   0.090   7.823 -0.0732 -0.4949  1.6887
 3875TIP3   OH235819   6.301   3.347   6.943 -0.1005 -0.3678  0.1395
 3875TIP3    H135820   6.344   3.432   6.951  2.4423 -1.4715 -0.6087
 3875TIP3    H235821   6.262   3.348   6.856 -0.2914  0.1301  0.2304
 3876TIP3   OH235822   6.172   6.520   6.930 -0.5545  0.8422 -0.6266
 3876TIP3    H135823   6.265   6.498   6.926 -0.9738 -1.0710 -0.8071
 3876TIP3    H235824   6.127   6.436   6.936 -2.3297  1.6500 -1.5385
 3877TIP3   OH235825   4.300   2.737   8.954 -0.3510  0.3061 -0.3168
 3877TIP3    H135826   4.263   2.822   8.931 -0.6201 -0.3623 -2.7207
 3877TIP3    H235827   4.392   2.743   8.928 -0.3175 -0.0632 -0.2890
 3878TIP3   OH235828   2.120   5.865   8.039  0.2257  0.1651  0.1212
 3878TIP3    H135829   2.073   5.798   8.090  0.8476 -0.4771 -0.1243
 3878TIP3    H235830   2.213   5.847   8.057  0.4648 -0.2319 -1.3962
 3879TIP3   OH235831   5.185   1.731   8.435  0.1756  0.1229  0.4030
 3879TIP3    H135832   5.126   1.704   8.505 -0.0952 -2.9578 -0.8452
 3879TIP3    H235833   5.137   1.711   8.354  1.4868  1.0795 -0.6542
 3880TIP3   OH235834   0.619   5.667   7.876 -0.0414 -0.2733 -0.2972
 3880TIP3    H135835   0.663   5.737   7.923 -0.4730 -0.3811  0.2877
 3880TIP3    H235836   0.602   5.600   7.943 -1.3207 -0.1134 -0.4377
 3881TIP3   OH235837   7.394   7.595   8.399 -0.2327  0.2117 -0.3591
 3881TIP3    H135838   7.342   7.516   8.387 -0.4748 -0.2897  3.0272
 3881TIP3    H235839   7.425   7.617   8.311 -2.0750 -2.2640 -1.7630
 3882TIP3   OH235840   1.623   0.749   7.578  0.4083 -0.0939 -0.1658
 3882TIP3    H135841   1.678   0.716   7.507  1.0140  0.0268  0.2484
 3882TIP3    H235842   1.671   0.825   7.612 -0.1840  0.2286 -0.0352
 3883TIP3   OH235843   4.652   0.524   6.389  0.4375 -0.2776 -0.2421
 3883TIP3    H135844   4.639   0.501   6.481  0.2878  0.5971 -0.0372
 3883TIP3    H235845   4.603   0.457   6.340 -3.8249  1.9483  0.4413
 3884TIP3   OH235846   6.986   0.629   7.309 -0.2719 -0.1012 -0.7831
 3884TIP3    H135847   6.918   0.565   7.334 -0.4531  0.6000  0.5733
 3884TIP3    H235848   6.937   0.707   7.284  0.0088  0.6403  0.8483
 3885TIP3   OH235849   5.998   6.288   6.938 -0.1409 -0.2889 -0.7097
 3885TIP3    H135850   5.944   6.212   6.917 -1.0319 -0.0338  0.5794
 3885TIP3    H235851   5.936   6.360   6.948  0.2666 -0.2095  1.8661
 3886TIP3   OH235852   1.878   0.153   8.514  1.0749 -0.6043  0.5231
 3886TIP3    H135853   1.904   0.216   8.447  1.1725 -0.6681  0.4989
 3886TIP3    H235854   1.929   0.178   8.591 -0.0632  0.3238  1.0058
 3887TIP3   OH235855   3.001   2.981   7.455 -0.1894 -0.4643  0.3325
 3887TIP3    H135856   3.045   3.038   7.518  0.0809  0.6846 -0.8540
 3887TIP3    H235857   3.022   2.893   7.484  2.3797  0.0361  0.1952
 3888TIP3   OH235858   1.555   3.126   8.610  0.3852 -0.0897 -0.0114
 3888TIP3    H135859   1.608   3.047   8.617 -1.4861 -1.5475 -1.2350
 3888TIP3    H235860   1.477   3.107   8.663 -0.4593  0.5716 -0.9730
 3889TIP3   OH235861   0.575   5.954   7.771 -0.3384 -0.5057 -0.5078
 3889TIP3    H135862   0.596   6.045   7.793 -0.1714 -0.7699  0.4961
 3889TIP3    H235863   0.602   5.905   7.848 -2.7766 -1.1184  0.0266
 3890TIP3   OH235864   7.584   0.273   8.242  0.0220  0.5721 -0.4601
 3890TIP3    H135865   7.596   0.343   8.178  0.5736  0.1192 -0.8673
 3890TIP3    H235866   7.672   0.258   8.277  0.1963 -0.9092 -1.4547
 3891TIP3   OH235867   3.710   3.446   9.048 -0.1223 -0.7540  0.4829
 3891TIP3    H135868   3.802   3.464   9.026  0.4921 -0.4623  2.9994
 3891TIP3    H235869   3.709   3.353   9.071 -0.9014 -1.2377 -1.2924
 3892TIP3   OH235870   4.351   1.690   8.298  0.0995 -0.0666 -0.1437
 3892TIP3    H135871   4.294   1.722   8.368 -0.9200  0.9237 -1.3741
 3892TIP3    H235872   4.330   1.597   8.290  1.0364 -0.4668  1.5716
 3893TIP3   OH235873   0.889   4.312   8.265  0.6490  0.3220  0.0583
 3893TIP3    H135874   0.940   4.295   8.344  1.1612  0.3792 -0.2595
 3893TIP3    H235875   0.826   4.240   8.262  0.5755  0.3569  0.5551
 3894TIP3   OH235876   2.206   5.525   8.669  0.7621  0.2792  0.1782
 3894TIP3    H135877   2.195   5.585   8.594  1.3856  0.4490  0.2203
 3894TIP3    H235878   2.118   5.492   8.686  0.5566  0.5147 -0.4069
 3895TIP3   OH235879   4.740   0.502   6.678  0.4371 -0.1268  0.0767
 3895TIP3    H135880   4.670   0.559   6.710  0.1198 -0.6758  0.3726
 3895TIP3    H235881   4.820   0.538   6.716  0.2551  0.2009  0.1517
 3896TIP3   OH235882   3.375   1.053   8.056  0.5247 -0.0745 -0.4451
 3896TIP3    H135883   3.456   1.016   8.089  0.6373  0.4096 -0.1678
 3896TIP3    H235884   3.306   0.995   8.091  0.5885  0.7442  1.1641
 3897TIP3   OH235885   5.961   0.009   6.728 -0.0508 -0.2374 -0.4414
 3897TIP3    H135886   5.980   0.008   6.822  0.4396 -0.3070 -0.5362
 3897TIP3    H235887   6.027   0.068   6.691 -0.0154 -0.4881 -0.7862
 3898TIP3   OH235888   1.822   3.605   9.166 -0.3173  0.2197 -0.5378
 3898TIP3    H135889   1.882   3.671   9.201  1.9574 -1.9702 -0.0472
 3898TIP3    H235890   1.854   3.588   9.077 -0.3899 -0.7479 -0.3866
 3899TIP3   OH235891   5.589   6.218   9.116 -0.2150 -0.2180  0.1436
 3899TIP3    H135892   5.638   6.167   9.051  1.6120 -0.0144  1.2748
 3899TIP3    H235893   5.511   6.165   9.133  0.6047 -1.6174 -0.2343
 3900TIP3   OH235894   0.815   7.009   7.757  0.3689  0.1472  0.0813
 3900TIP3    H135895   0.792   6.979   7.669  1.1066 -0.6198  0.1410
 3900TIP3    H235896   0.746   6.975   7.814  1.0646 -1.2809  0.1132
 3901TIP3   OH235897   2.711   2.889   8.516  0.1555  0.4769  0.2591
 3901TIP3    H135898   2.697   2.807   8.563  0.9853 -1.4193 -2.5408
 3901TIP3    H235899   2.804   2.906   8.524  0.3616 -0.0273 -0.8520
 3902TIP3   OH235900   2.274   2.644   8.631 -0.2494 -0.0175  0.0145
 3902TIP3    H135901   2.341   2.617   8.568 -0.3335 -1.0950  0.3567
 3902TIP3    H235902   2.322   2.695   8.696  0.2999 -1.0173  0.4073
 3903TIP3   OH235903   3.845   0.876   8.278 -0.1655  0.0386 -0.0533
 3903TIP3    H135904   3.868   0.895   8.369  0.2859  0.1368 -0.1862
 3903TIP3    H235905   3.898   0.799   8.256  0.0441  0.2728 -0.3664
 3904TIP3   OH235906   6.977   0.951   8.272 -0.8015  0.2288  0.4652
 3904TIP3    H135907   6.981   1.012   8.199  1.5416  0.0035  0.3558
 3904TIP3    H235908   7.004   1.002   8.348 -0.0218 -0.3577  0.5893
 3905TIP3   OH235909   6.719   2.327   7.332  0.2036  0.3296 -0.3132
 3905TIP3    H135910   6.641   2.371   7.366  0.3852 -0.2082  0.8394
 3905TIP3    H235911   6.748   2.382   7.259  0.4649  2.1800  1.1125
 3906TIP3   OH235912   0.851   4.553   8.104  0.1034 -1.0315  0.2241
 3906TIP3    H135913   0.861   4.639   8.144 -0.5024 -0.9240  0.1619
 3906TIP3    H235914   0.805   4.501   8.170 -0.3296 -1.0401 -0.0770
 3907TIP3   OH235915   4.272   6.576   8.504  0.1136  0.3034 -0.5308
 3907TIP3    H135916   4.176   6.572   8.506  0.0334  1.7099  1.3513
 3907TIP3    H235917   4.294   6.577   8.411 -1.5654 -1.7362 -1.0188
 3908TIP3   OH235918   4.761   6.055   8.042  0.4512  0.4778 -0.0149
 3908TIP3    H135919   4.801   6.077   7.958  1.3362  1.9317  0.7635
 3908TIP3    H235920   4.806   5.974   8.069  0.2061  0.0358 -0.8897
 3909TIP3   OH235921   0.510   3.100   8.666 -0.3629  0.2974  0.6226
 3909TIP3    H135922   0.444   3.149   8.716 -1.1781  1.2529 -1.3058
 3909TIP3    H235923   0.594   3.127   8.704 -0.9696 -1.5136  3.6466
 3910TIP3   OH235924   0.127   4.210   7.063  0.0782 -0.2496  0.2365
 3910TIP3    H135925   0.177   4.162   6.997 -0.8870 -0.2330 -0.5317
 3910TIP3    H235926   0.187   4.277   7.095  0.2296  0.4180 -1.3879
 3911TIP3   OH235927   4.280   2.847   8.223 -0.0949  0.2884  0.1003
 3911TIP3    H135928   4.359   2.892   8.193 -0.6169 -0.2943 -2.4173
 3911TIP3    H235929   4.302   2.754   8.220 -0.6647  0.1500 -0.0246
 3912TIP3   OH235930   6.346   3.829   7.561  0.1434  0.2882 -0.1236
 3912TIP3    H135931   6.419   3.808   7.503  1.2245 -0.0962  1.2875
 3912TIP3    H235932   6.362   3.920   7.587 -0.2636  0.4233 -0.3546
 3913TIP3   OH235933   2.624   0.798   8.401 -0.0119  0.0943 -0.1868
 3913TIP3    H135934   2.647   0.730   8.338  1.2593 -0.7639  1.1680
 3913TIP3    H235935   2.705   0.846   8.416  0.3373 -1.1903  2.5334
 3914TIP3   OH235936   6.084   6.396   9.164  0.9953  0.1822 -0.0460
 3914TIP3    H135937   6.106   6.303   9.174 -1.9249 -0.5624  0.3260
 3914TIP3    H235938   6.004   6.396   9.112  0.3321  2.4160  0.8623
 3915TIP3   OH235939   5.466   6.741   9.463 -0.6306 -0.0843 -0.3380
 3915TIP3    H135940   5.531   6.731   9.532 -0.3682 -0.9233 -0.6947
 3915TIP3    H235941   5.517   6.764   9.385 -0.6718 -1.4723 -0.7884
 3916TIP3   OH235942   2.312   4.563   7.333 -0.2233  0.8945  0.2477
 3916TIP3    H135943   2.278   4.602   7.252 -0.2515  2.4572  0.9728
 3916TIP3    H235944   2.239   4.570   7.395 -0.3575 -0.7172  0.3036
 3917TIP3   OH235945   2.346   7.334   7.756  0.1387  0.3384 -0.3496
 3917TIP3    H135946   2.303   7.252   7.732 -0.0010  0.4101 -0.3410
 3917TIP3    H235947   2.285   7.377   7.815  0.3077  0.3481 -0.1777
 3918TIP3   OH235948   0.904   5.222   6.890  0.1131  0.0477 -0.3213
 3918TIP3    H135949   0.810   5.207   6.905  0.3030 -0.8297  0.0335
 3918TIP3    H235950   0.919   5.311   6.920 -0.5386  0.0626 -0.0185
 3919TIP3   OH235951   5.569   1.182   6.984  0.0496 -0.1326  0.4438
 3919TIP3    H135952   5.567   1.091   6.956 -1.2296  0.1382 -0.4597
 3919TIP3    H235953   5.489   1.194   7.035 -0.7073  0.8825 -0.9052
 3920TIP3   OH235954   3.671   5.054   8.616 -0.9245 -0.5076 -0.1247
 3920TIP3    H135955   3.730   5.118   8.657 -1.8916  1.2919 -1.4068
 3920TIP3    H235956   3.728   5.001   8.561 -0.1162 -0.7342  0.8835
 3921TIP3   OH235957   2.189   1.376   8.755 -0.3816 -0.0804 -0.1023
 3921TIP3    H135958   2.226   1.288   8.749  0.2624  0.2225 -0.6094
 3921TIP3    H235959   2.265   1.434   8.758 -0.8042  0.5103 -0.6325
 3922TIP3   OH235960   4.958   0.624   8.386  0.1812  0.6105  0.9645
 3922TIP3    H135961   4.880   0.664   8.347  0.8734 -0.7927 -2.2119
 3922TIP3    H235962   4.938   0.531   8.389  2.3842 -0.1692 -2.2359
 3923TIP3   OH235963   1.520   5.620   8.303 -0.2875 -0.2448 -0.1413
 3923TIP3    H135964   1.580   5.559   8.261  0.9474 -1.3373  2.9199
 3923TIP3    H235965   1.574   5.668   8.366 -1.7870  2.0818 -0.4763
 3924TIP3   OH235966   2.338   7.396   9.427  0.6876  0.1957 -0.2286
 3924TIP3    H135967   2.326   7.423   9.336 -0.2124 -0.1281 -0.2180
 3924TIP3    H235968   2.250   7.375   9.457  0.9398  0.6165  0.8228
 3925TIP3   OH235969   5.226   5.953   8.807 -0.7975 -0.7094 -0.5429
 3925TIP3    H135970   5.203   5.967   8.715  1.0937  1.3342 -0.7935
 3925TIP3    H235971   5.243   6.041   8.841 -0.2519 -1.5233  1.4292
 3926TIP3   OH235972   0.280   6.843   9.549 -0.1033 -0.3199 -0.2015
 3926TIP3    H135973   0.187   6.826   9.564 -0.3581  0.0380 -1.2855
 3926TIP3    H235974   0.308   6.776   9.486  0.0785  0.2858 -0.7753
 3927TIP3   OH235975   0.245   3.197   6.992  0.0436 -0.0347 -0.1047
 3927TIP3    H135976   0.198   3.132   6.940 -0.7053 -1.7683  2.5253
 3927TIP3    H235977   0.296   3.247   6.928  0.0311 -2.6644 -2.3546
 3928TIP3   OH235978   2.195   6.111   7.268 -0.1120 -0.2154  0.0440
 3928TIP3    H135979   2.210   6.092   7.176  0.4171 -1.2701  0.3218
 3928TIP3    H235980   2.266   6.171   7.292 -0.5114  0.4133 -0.3322
 3929TIP3   OH235981   4.123   5.637   7.713 -0.3447 -0.7125 -0.4959
 3929TIP3    H135982   4.207   5.681   7.716 -0.9843  0.5065  0.4983
 3929TIP3    H235983   4.141   5.552   7.673  1.3613 -0.5175 -0.1842
 3930TIP3   OH235984   2.188   3.308   8.506 -0.8622 -0.1069  0.2632
 3930TIP3    H135985   2.225   3.344   8.587  2.0564 -0.3742 -0.8290
 3930TIP3    H235986   2.208   3.214   8.510 -0.6166 -0.1090 -0.7933
 3931TIP3   OH235987   4.496   5.033   7.840 -0.4738 -0.1469 -0.3279
 3931TIP3    H135988   4.497   4.947   7.799  1.3245  0.7933 -2.4866
 3931TIP3    H235989   4.544   5.021   7.922  1.3599 -0.9336 -1.4434
 3932TIP3   OH235990   3.577   2.379   7.840 -0.4540 -0.2177 -0.4451
 3932TIP3    H135991   3.592   2.455   7.783 -0.1850 -0.7512 -1.1079
 3932TIP3    H235992   3.640   2.390   7.911 -1.9674  1.3773  0.7387
 3933TIP3   OH235993   6.894   6.558   7.263  0.0069 -0.1988  0.9614
 3933TIP3    H135994   6.822   6.511   7.304  0.4200 -0.6349  1.2000
 3933TIP3    H235995   6.898   6.523   7.174 -0.8883  0.7468  0.5372
 3934TIP3   OH235996   5.716   1.139   9.093  0.1543 -0.4666  0.2153
 3934TIP3    H135997   5.756   1.076   9.033  0.3726  1.0198 -1.2825
 3934TIP3    H235998   5.622   1.128   9.081  0.1703 -1.1544  0.6815
 3935TIP3   OH235999   5.504   3.289   9.490 -0.5342  0.3207  0.5192
 3935TIP3    H136000   5.549   3.308   9.408 -0.0099 -2.2001  0.1573
 3935TIP3    H236001   5.412   3.309   9.471 -0.2256  1.1842 -0.1683
 3936TIP3   OH236002   7.453   2.917   8.418 -0.4832 -0.3555 -0.4273
 3936TIP3    H136003   7.445   2.921   8.323  1.5693 -0.4082 -0.6477
 3936TIP3    H236004   7.470   2.824   8.436  0.1367 -0.1913 -0.1328
 3937TIP3   OH236005   3.369   5.845   8.545  0.1316 -0.0177  0.4551
 3937TIP3    H136006   3.344   5.758   8.514  2.1974 -1.4471  2.4640
 3937TIP3    H236007   3.435   5.875   8.481  1.6238 -1.3128  1.3112
 3938TIP3   OH236008   3.775   3.679   8.626  0.2273 -0.0957  0.4609
 3938TIP3    H136009   3.803   3.614   8.561  0.6998 -2.0096  2.4622
 3938TIP3    H236010   3.686   3.652   8.649 -0.0792  0.8026  0.3463
 3939TIP3   OH236011   4.955   0.580   7.146 -0.1527 -0.2770  0.1717
 3939TIP3    H136012   4.913   0.666   7.138 -0.8085 -0.6232 -0.1105
 3939TIP3    H236013   5.022   0.581   7.077  0.0880  0.1476  0.4063
 3940TIP3   OH236014   7.324   0.224   7.599 -0.2947  0.2457  0.5850
 3940TIP3    H136015   7.359   0.298   7.648 -0.1652 -0.1074  1.0374
 3940TIP3    H236016   7.280   0.263   7.524 -1.5600  0.8744  1.6202
 3941TIP3   OH236017   7.081   5.359   9.127 -0.2242 -0.5003 -0.0012
 3941TIP3    H136018   7.014   5.292   9.137 -0.0448 -0.8418 -0.9760
 3941TIP3    H236019   7.160   5.320   9.165  0.5143 -1.8801 -2.7311
 3942TIP3   OH236020   0.361   6.534   7.034 -0.7198 -0.4653  0.3408
 3942TIP3    H136021   0.309   6.485   7.097  0.1791  0.1767  1.6130
 3942TIP3    H236022   0.365   6.477   6.957 -1.5066 -1.4303  0.9911
 3943TIP3   OH236023   6.111   2.813   8.514  0.1084  1.0918  0.3575
 3943TIP3    H136024   6.053   2.806   8.590  0.5438  1.0773  0.6924
 3943TIP3    H236025   6.055   2.793   8.439  0.2953 -1.8892  0.8723
 3944TIP3   OH236026   0.832   2.014   8.802  0.5689  0.1939  0.2502
 3944TIP3    H136027   0.808   2.096   8.759 -1.3082 -0.3156  0.2601
 3944TIP3    H236028   0.776   1.948   8.762  1.2885 -0.9047  0.9966
 3945TIP3   OH236029   1.864   6.575   9.205  0.1167 -0.5773 -0.8678
 3945TIP3    H136030   1.882   6.657   9.250 -0.4353  0.3296 -2.2375
 3945TIP3    H236031   1.772   6.557   9.224 -0.5482  0.5869 -2.7561
 3946TIP3   OH236032   1.156   4.396   8.812  0.0811 -0.0440 -0.2139
 3946TIP3    H136033   1.156   4.300   8.802  0.3690 -0.0116 -0.5103
 3946TIP3    H236034   1.177   4.430   8.725  1.7384  0.2435  0.2586
 3947TIP3   OH236035   5.476   0.669   7.989 -0.2670  0.0110  0.5244
 3947TIP3    H136036   5.448   0.592   7.939 -0.2003  0.0762  0.3868
 3947TIP3    H236037   5.395   0.702   8.029 -0.1066 -0.8904  1.6487
 3948TIP3   OH236038   3.193   0.052   8.745 -0.0817  0.0452 -0.1720
 3948TIP3    H136039   3.190   0.070   8.839  0.2354  0.2522 -0.2033
 3948TIP3    H236040   3.153  -0.035   8.737 -0.7389  0.3127  0.0775
 3949TIP3   OH236041   6.348   4.945   9.468  0.2973 -0.0978 -0.6693
 3949TIP3    H136042   6.263   4.938   9.426  0.4673  1.3711 -1.3328
 3949TIP3    H236043   6.350   5.034   9.503  0.6390 -0.8807  1.4558
 3950TIP3   OH236044   0.910   2.928   6.988 -0.0726 -0.0902  0.2110
 3950TIP3    H136045   0.912   2.866   6.915  1.0792  0.7618 -0.4998
 3950TIP3    H236046   0.892   3.013   6.948  1.3103  0.5153  0.8014
 3951TIP3   OH236047   7.396   4.350   7.359  0.1585 -0.4204 -0.4089
 3951TIP3    H136048   7.472   4.372   7.305  0.2045 -0.8699 -0.5323
 3951TIP3    H236049   7.321   4.367   7.303  0.1498  0.3684 -0.1655
 3952TIP3   OH236050   7.055   1.572   7.856  0.0665  0.1233  0.0889
 3952TIP3    H136051   7.113   1.647   7.869 -0.2673  0.3403  0.3280
 3952TIP3    H236052   7.042   1.537   7.944  0.8069 -0.6608 -0.1002
 3953TIP3   OH236053   0.446   6.393   8.857 -0.7392  0.4317 -0.0042
 3953TIP3    H136054   0.498   6.356   8.785 -2.4908 -0.3788 -0.9081
 3953TIP3    H236055   0.464   6.335   8.931  1.3009  1.4337  0.3556
 3954TIP3   OH236056   0.994   7.476   7.629  0.1485  0.2322 -0.5354
 3954TIP3    H136057   0.946   7.416   7.685 -1.0011  0.7447 -0.9523
 3954TIP3    H236058   1.086   7.461   7.651 -0.2892  1.8464  3.0101
 3955TIP3   OH236059   4.267   7.455   9.500  0.1370  0.1493  0.0623
 3955TIP3    H136060   4.244   7.365   9.476  0.3450 -0.5063  2.1035
 3955TIP3    H236061   4.296   7.448   9.591 -1.0078  2.4753  0.6660
 3956TIP3   OH236062   7.292   3.905   7.100 -0.5659 -0.0035 -0.2772
 3956TIP3    H136063   7.213   3.922   7.152  0.9944  1.5274  1.8082
 3956TIP3    H236064   7.312   3.813   7.116 -1.6895 -0.2942 -0.4847
 3957TIP3   OH236065   6.773   4.663   9.054  0.0944  0.3615 -0.3128
 3957TIP3    H136066   6.806   4.687   9.141  0.5244 -0.6245 -0.1871
 3957TIP3    H236067   6.848   4.622   9.011 -0.6912 -1.0667 -0.3687
 3958TIP3   OH236068   2.136   1.693   8.551 -0.2924  0.0667  0.4106
 3958TIP3    H136069   2.108   1.740   8.629  0.6683  0.9082  0.2812
 3958TIP3    H236070   2.231   1.688   8.559 -0.2800 -0.8504 -0.1528
 3959TIP3   OH236071   1.574   7.140   7.780 -0.4452 -0.7555  0.3344
 3959TIP3    H136072   1.597   7.056   7.739  0.1023 -0.4109 -0.0816
 3959TIP3    H236073   1.515   7.182   7.717 -0.5755 -0.7470  0.4612
 3960TIP3   OH236074   0.314   1.418   8.246 -0.0895  0.4949  0.1731
 3960TIP3    H136075   0.299   1.397   8.338  0.2094 -0.0470  0.0977
 3960TIP3    H236076   0.271   1.347   8.198  1.9236 -0.6200 -0.0632
 3961TIP3   OH236077   5.375   5.118   7.330  0.3851 -0.1480  0.1708
 3961TIP3    H136078   5.338   5.107   7.418  1.6804  0.5349  0.8235
 3961TIP3    H236079   5.317   5.182   7.288 -2.7074 -3.4217 -1.0034
 3962TIP3   OH236080   3.948   1.620   9.062  0.2984  0.3732 -0.2551
 3962TIP3    H136081   3.904   1.647   8.982 -0.5738  0.4378  0.2281
 3962TIP3    H236082   3.904   1.670   9.131  0.4059 -0.3594  0.3610
 3963TIP3   OH236083   0.138   3.538   7.406 -0.3404 -0.2798  0.4401
 3963TIP3    H136084   0.155   3.505   7.317 -1.3266  0.1749  0.0667
 3963TIP3    H236085   0.219   3.520   7.454 -0.1413 -1.4107 -0.2858
 3964TIP3   OH236086   7.471   4.715   8.547  0.6661  0.4224  0.0546
 3964TIP3    H136087   7.381   4.743   8.564  0.1337 -0.7388 -0.7210
 3964TIP3    H236088   7.483   4.731   8.453  0.0842 -2.4630 -0.6118
 3965TIP3   OH236089   6.106   3.650   7.562  0.0911 -0.3811  0.0849
 3965TIP3    H136090   6.151   3.572   7.530 -0.1155 -1.4041  2.0997
 3965TIP3    H236091   6.177   3.712   7.581  0.3167 -0.3613 -0.8140
 3966TIP3   OH236092   3.706   5.072   7.691  0.0201  0.2848 -0.3338
 3966TIP3    H136093   3.673   5.090   7.779  1.1026 -0.4981  0.2535
 3966TIP3    H236094   3.629   5.039   7.644 -0.5189  0.4849  0.3837
 3967TIP3   OH236095   1.085   0.510   7.471  0.0508 -0.3023 -0.0133
 3967TIP3    H136096   1.046   0.424   7.454  0.4414 -0.4505 -0.1628
 3967TIP3    H236097   1.080   0.521   7.566 -0.7174 -0.1483 -0.0651
 3968TIP3   OH236098   5.693   7.194   7.527 -0.3160 -0.4500 -0.2938
 3968TIP3    H136099   5.772   7.196   7.581  0.4948 -0.9598 -1.4161
 3968TIP3    H236100   5.726   7.179   7.438 -1.6153  0.3551 -0.9268
 3969TIP3   OH236101   0.265   7.136   6.955 -0.3010 -0.1618  0.1729
 3969TIP3    H136102   0.259   7.160   6.863  1.4255  0.0586  0.0705
 3969TIP3    H236103   0.201   7.191   6.999 -0.6540  0.2316 -0.8122
 3970TIP3   OH236104   3.185   2.203   8.503 -0.4586 -0.0126 -0.2776
 3970TIP3    H136105   3.109   2.247   8.541  1.1641  0.9212  2.1074
 3970TIP3    H236106   3.252   2.272   8.496  0.4248 -0.9536 -1.6333
 3971TIP3   OH236107   6.175   3.512   8.031 -0.3682  0.0353 -0.4476
 3971TIP3    H136108   6.121   3.441   8.065 -0.5072  0.6664  0.6967
 3971TIP3    H236109   6.135   3.591   8.066  0.9704  0.5523 -0.0265
 3972TIP3   OH236110   0.059   3.305   8.944  0.0010 -0.1532 -0.1087
 3972TIP3    H136111   0.026   3.240   8.882  0.5848  0.3297 -0.9504
 3972TIP3    H236112  -0.015   3.323   9.002 -0.4646 -0.8397 -0.4782
 3973TIP3   OH236113   0.883   3.694   7.114  0.1713  0.3292  0.1866
 3973TIP3    H136114   0.869   3.718   7.206  0.4072 -1.5111  0.7490
 3973TIP3    H236115   0.962   3.641   7.115 -0.5765 -0.8648 -0.8606
 3974TIP3   OH236116   1.481   4.953   8.366  0.2630 -0.2050  0.5404
 3974TIP3    H136117   1.455   5.043   8.348  1.9663  0.0297 -1.0051
 3974TIP3    H236118   1.417   4.900   8.319  0.2699  0.2543  0.0029
 3975TIP3   OH236119   4.845   1.511   7.364 -0.3005  0.5785  0.6885
 3975TIP3    H136120   4.887   1.468   7.290  1.7904  2.0968  0.9128
 3975TIP3    H236121   4.838   1.442   7.431 -0.6999 -0.3842 -0.3177
 3976TIP3   OH236122   3.294   1.993   9.217  0.5769  0.0979 -0.3010
 3976TIP3    H136123   3.312   1.983   9.123  1.9068 -0.1748 -0.0408
 3976TIP3    H236124   3.199   1.980   9.225  0.1835  1.6901 -1.7907
 3977TIP3   OH236125   5.248   6.728   7.957 -0.0433 -0.1144 -0.3151
 3977TIP3    H136126   5.314   6.743   7.889  0.0126 -1.9270 -0.7099
 3977TIP3    H236127   5.299   6.699   8.033 -0.2899 -0.4627 -0.2813
 3978TIP3   OH236128   2.574   5.683   8.534  0.7358 -0.5687  1.0341
 3978TIP3    H136129   2.644   5.696   8.470  1.0998  0.3348  1.6093
 3978TIP3    H236130   2.518   5.759   8.523  0.5472 -0.6424  1.4842
 3979TIP3   OH236131   2.504   4.323   8.509  0.9038 -0.2839 -0.2587
 3979TIP3    H136132   2.494   4.362   8.595 -0.6300  0.6772 -0.8424
 3979TIP3    H236133   2.575   4.259   8.520  0.4265 -0.5267  1.8149
 3980TIP3   OH236134   3.015   4.048   9.246 -0.3849  0.3038 -0.0153
 3980TIP3    H136135   2.995   4.129   9.199 -0.1874  1.0057  1.0681
 3980TIP3    H236136   2.995   4.067   9.337  1.8435 -0.0701  0.6272
 3981TIP3   OH236137   5.124   5.546   9.198 -0.1312 -0.4165  0.3456
 3981TIP3    H136138   5.177   5.525   9.275 -1.8125 -0.5436  1.5287
 3981TIP3    H236139   5.084   5.462   9.173 -2.3059  0.1900  1.5171
 3982TIP3   OH236140   3.109   6.551   9.353 -0.0020  0.4675  0.3963
 3982TIP3    H136141   3.064   6.620   9.402 -0.3449 -0.5477  1.5568
 3982TIP3    H236142   3.044   6.482   9.344  0.0072  0.6912 -1.6861
 3983TIP3   OH236143   0.336   1.915   7.840 -0.3021  0.0918 -0.2032
 3983TIP3    H136144   0.412   1.912   7.898  1.5250  0.9559 -2.4374
 3983TIP3    H236145   0.328   1.826   7.806 -0.5894 -0.1006  0.3482
 3984TIP3   OH236146   1.333   4.365   9.040 -0.2409 -0.3067  0.2758
 3984TIP3    H136147   1.415   4.401   9.006  0.8549 -0.4519  2.5679
 3984TIP3    H236148   1.273   4.368   8.966  1.7523  0.0499 -1.4163
 3985TIP3   OH236149   6.996   6.729   9.098 -0.3631 -0.1190 -0.1380
 3985TIP3    H136150   7.088   6.739   9.125 -0.0320  1.1674 -1.5790
 3985TIP3    H236151   6.990   6.640   9.064  0.3658 -0.1886 -0.0974
 3986TIP3   OH236152   6.260   4.493   8.420  0.0621 -0.5653  0.0977
 3986TIP3    H136153   6.212   4.476   8.501 -0.8413  1.5543  0.0516
 3986TIP3    H236154   6.352   4.486   8.445 -0.1912  0.4181  1.4229
 3987TIP3   OH236155   0.322   5.612   9.238  0.2436  0.0013  0.0092
 3987TIP3    H136156   0.268   5.626   9.160  0.4297  1.5914  0.1266
 3987TIP3    H236157   0.259   5.601   9.309  0.0790 -0.7194 -0.2406
 3988TIP3   OH236158   6.711   1.763   7.614  0.2539 -0.0460  0.7585
 3988TIP3    H136159   6.787   1.784   7.560 -0.0183 -1.8791 -0.3868
 3988TIP3    H236160   6.730   1.677   7.651 -1.5908 -0.9069 -0.1902
 3989TIP3   OH236161   3.484   0.685   8.313 -0.4158 -0.2497 -0.1196
 3989TIP3    H136162   3.413   0.628   8.342 -2.0156  1.1920 -0.9942
 3989TIP3    H236163   3.514   0.729   8.392 -2.0000  0.7113 -0.0191
 3990TIP3   OH236164   0.638   1.371   8.529 -0.5433  0.0353 -0.4201
 3990TIP3    H136165   0.708   1.404   8.585 -0.5965  2.5969 -1.7244
 3990TIP3    H236166   0.579   1.325   8.589 -1.4748  4.0346  2.1191
 3991TIP3   OH236167   4.495   7.308   7.672  0.5441 -0.0895  0.8429
 3991TIP3    H136168   4.404   7.308   7.642  1.0345 -0.2054 -0.6802
 3991TIP3    H236169   4.522   7.399   7.666  1.0276 -0.2953 -0.3035
 3992TIP3   OH236170   0.577   0.583   8.586 -0.5730 -0.0356 -0.3466
 3992TIP3    H136171   0.575   0.489   8.572 -0.1998  0.0757 -1.2126
 3992TIP3    H236172   0.515   0.598   8.657  0.7047 -1.1381  1.0745
 3993TIP3   OH236173   6.356   1.301   9.277  0.5855 -0.5437  0.3621
 3993TIP3    H136174   6.417   1.297   9.203  0.7961 -0.2691  0.5188
 3993TIP3    H236175   6.387   1.375   9.329  0.7101 -1.0147  0.9602
 3994TIP3   OH236176   7.271   3.444   7.562 -0.1983  0.7562  0.5439
 3994TIP3    H136177   7.275   3.453   7.467 -1.5479 -1.0268  0.2552
 3994TIP3    H236178   7.194   3.389   7.578  1.4892 -1.2461  2.4985
 3995TIP3   OH236179   3.615   1.056   7.485  0.0199  0.4814 -0.5321
 3995TIP3    H136180   3.709   1.043   7.479  0.0118  0.3442 -0.3648
 3995TIP3    H236181   3.597   1.062   7.579 -0.1010  0.7779 -0.5717
 3996TIP3   OH236182   5.217   3.332   9.511 -0.0018 -0.4383  0.4121
 3996TIP3    H136183   5.157   3.260   9.530 -1.6254  0.7285 -0.0379
 3996TIP3    H236184   5.163   3.411   9.519  1.3833  0.6465 -0.4105
 3997TIP3   OH236185   4.541   0.797   7.337 -0.0084 -0.2461  0.5944
 3997TIP3    H136186   4.463   0.790   7.392 -0.4973  0.8859  0.0624
 3997TIP3    H236187   4.518   0.860   7.270  1.3183 -0.0073  0.3344
 3998TIP3   OH236188   1.729   0.053   9.393  0.1782 -0.3104  0.4016
 3998TIP3    H136189   1.746   0.145   9.415  1.5794 -0.6629  0.9493
 3998TIP3    H236190   1.801   0.029   9.334 -0.1525 -1.0560  0.2961
 3999TIP3   OH236191   6.876   2.434   8.239 -0.0536  0.4537 -0.0842
 3999TIP3    H136192   6.892   2.476   8.324 -0.3198 -2.1524  1.3750
 3999TIP3    H236193   6.929   2.354   8.242 -2.3350 -1.1947 -1.0997
 4000TIP3   OH236194   5.884   6.349   8.976  0.1194 -0.6807 -0.3493
 4000TIP3    H136195   5.790   6.359   8.989  0.2034  0.0753 -0.2786
 4000TIP3    H236196   5.900   6.381   8.887  0.3693 -0.4351 -0.2157
 4001TIP3   OH236197   4.021   3.728   8.738  0.3076 -0.5604  0.3692
 4001TIP3    H136198   3.955   3.733   8.668  0.4225 -2.2389  0.1036
 4001TIP3    H236199   4.062   3.815   8.738 -1.0221  0.1013 -0.3238
 4002TIP3   OH236200   5.812   4.537   9.253  0.2311  0.0396  0.9313
 4002TIP3    H136201   5.867   4.512   9.179 -1.6444 -1.0277 -0.1654
 4002TIP3    H236202   5.842   4.482   9.325  1.4671  0.4386  0.7455
 4003TIP3   OH236203   2.561   3.309   8.287 -0.0835  0.2798 -0.3722
 4003TIP3    H136204   2.522   3.347   8.366  0.4212 -0.0797  0.0490
 4003TIP3    H236205   2.649   3.285   8.312 -0.3500 -1.0765 -0.6724
 4004TIP3   OH236206   2.686   0.459   7.931 -0.0070 -0.3576  0.2504
 4004TIP3    H136207   2.772   0.427   7.904  1.0884  1.2815  1.6166
 4004TIP3    H236208   2.647   0.494   7.851  0.7266 -0.8276 -0.3242
 4005TIP3   OH236209   6.560   1.482   9.465 -0.0969 -0.5561  0.3056
 4005TIP3    H136210   6.504   1.559   9.466  0.1205 -0.3415 -1.4891
 4005TIP3    H236211   6.647   1.514   9.487 -0.2241 -0.4833  0.7006
 4006TIP3   OH236212   7.097   1.023   9.555  0.1902 -0.6600  0.0642
 4006TIP3    H136213   7.181   0.977   9.563  1.0638  0.8735 -0.0456
 4006TIP3    H236214   7.120   1.114   9.537 -1.5140 -0.4435 -1.3174
 4007TIP3   OH236215   3.469   5.982   6.941 -0.2442  0.1740  0.5135
 4007TIP3    H136216   3.565   5.984   6.944 -0.2526 -0.7406  1.8170
 4007TIP3    H236217   3.447   5.891   6.923 -0.8825  0.4455 -0.1380
 4008TIP3   OH236218   3.090   6.043   9.371 -0.7602  0.3369  0.1671
 4008TIP3    H136219   3.104   6.023   9.279 -2.1015 -0.7447  0.1680
 4008TIP3    H236220   3.093   6.139   9.375  0.6911  0.3661 -0.7326
 4009TIP3   OH236221   5.380   3.001   8.827  0.1942 -0.1799  0.3245
 4009TIP3    H136222   5.401   3.007   8.920  1.5759 -0.6179  0.0705
 4009TIP3    H236223   5.428   3.073   8.786 -0.7133  0.2535 -0.0248
 4010TIP3   OH236224   0.718   1.470   7.510  0.1724  0.2645  0.2185
 4010TIP3    H136225   0.748   1.506   7.427  0.1513  0.3102  0.2304
 4010TIP3    H236226   0.795   1.474   7.567  0.4944 -0.7450 -0.1077
 4011TIP3   OH236227   3.231   2.201   7.750 -0.3304 -0.4284 -0.3069
 4011TIP3    H136228   3.225   2.132   7.685 -0.9002 -0.0751 -0.6388
 4011TIP3    H236229   3.175   2.271   7.716 -1.0043 -0.4210  0.7837
 4012TIP3   OH236230   0.082   2.756   7.728 -0.0309  0.1136 -0.4040
 4012TIP3    H136231   0.037   2.746   7.645 -0.0223  0.9491 -0.5183
 4012TIP3    H236232   0.158   2.698   7.722 -1.4878 -1.9947  0.1239
 4013TIP3   OH236233   7.286   2.235   9.118  0.4288 -0.2747 -0.2709
 4013TIP3    H136234   7.380   2.222   9.120  0.7079  0.1854 -3.5073
 4013TIP3    H236235   7.249   2.149   9.139  1.5657 -0.5183  0.8045
 4014TIP3   OH236236   7.229   4.055   7.777  0.2817  0.4824 -0.0995
 4014TIP3    H136237   7.272   4.098   7.704 -1.9414  0.9556 -1.2333
 4014TIP3    H236238   7.142   4.032   7.743 -0.7346  0.4691  2.3076
 4015TIP3   OH236239   7.368   7.393   8.842  0.0017 -1.0542  0.6907
 4015TIP3    H136240   7.274   7.410   8.834  0.2816 -0.1580 -1.7284
 4015TIP3    H236241   7.374   7.301   8.867 -1.5258 -1.2082  0.5935
 4016TIP3   OH236242   5.641   0.385   7.867 -0.2252  0.5116  0.4211
 4016TIP3    H136243   5.568   0.418   7.814 -1.2265 -1.2481  0.6247
 4016TIP3    H236244   5.702   0.348   7.804 -0.3174  0.4679  0.3577
 4017TIP3   OH236245   4.505   1.056   8.080 -0.3420  0.0556  0.0196
 4017TIP3    H136246   4.477   1.085   7.994 -0.5548  0.5753  0.2555
 4017TIP3    H236247   4.599   1.077   8.084 -0.0125 -1.2246 -0.5860
 4018TIP3   OH236248   1.262   0.522   7.899 -0.1994 -0.0913  0.3415
 4018TIP3    H136249   1.348   0.533   7.859 -0.4402  1.0635  0.1053
 4018TIP3    H236250   1.267   0.572   7.980 -0.1907 -1.2196  1.0622
 4019TIP3   OH236251   3.331   6.573   7.541  0.2061  0.2423  0.2311
 4019TIP3    H136252   3.417   6.564   7.582  1.0321 -1.0109 -1.6352
 4019TIP3    H236253   3.344   6.543   7.451 -2.0624  0.5911 -0.2785
 4020TIP3   OH236254   2.376   2.626   7.707 -0.2434 -0.0858  0.4153
 4020TIP3    H136255   2.350   2.567   7.636  2.1920 -0.0740 -0.5696
 4020TIP3    H236256   2.421   2.698   7.663  0.5958  0.3432  1.9183
 4021TIP3   OH236257   4.079   4.042   8.812 -0.1705 -0.0710  0.1603
 4021TIP3    H136258   4.100   4.027   8.719  1.6118 -2.4679  0.8472
 4021TIP3    H236259   3.983   4.035   8.816 -0.3482  0.8083 -1.5850
 4022TIP3   OH236260   7.356   1.667   9.187 -0.7770 -0.4437  0.0825
 4022TIP3    H136261   7.273   1.692   9.227 -0.9380  0.9887 -1.0568
 4022TIP3    H236262   7.331   1.627   9.103 -0.3298  0.4455 -0.4901
 4023TIP3   OH236263   1.451   4.890   6.716  0.1529  0.1827  0.4966
 4023TIP3    H136264   1.486   4.836   6.646 -0.6501  0.4011 -0.0891
 4023TIP3    H236265   1.403   4.829   6.772 -0.8203  0.2847 -0.2077
 4024TIP3   OH236266   1.695   7.553   9.163 -0.1257  0.0033 -0.4281
 4024TIP3    H136267   1.610   7.535   9.204  0.0795 -2.3593 -0.8960
 4024TIP3    H236268   1.758   7.503   9.216  1.1245  2.2376  0.3130
 4025TIP3   OH236269   5.577   4.327   7.833 -0.2507  0.3775 -0.1818
 4025TIP3    H136270   5.497   4.359   7.792 -0.0143  2.0962  0.6110
 4025TIP3    H236271   5.644   4.338   7.766 -0.4152  0.2962 -0.3629
 4026TIP3   OH236272   2.808   4.186   9.436  0.2216  0.1713 -0.4530
 4026TIP3    H136273   2.817   4.278   9.411  0.3297  0.4185  0.4666
 4026TIP3    H236274   2.739   4.152   9.379 -1.8004  1.5382  1.0701
 4027TIP3   OH236275   0.601   2.372   7.130  0.1177  0.3387  0.2989
 4027TIP3    H136276   0.606   2.384   7.035 -0.0014 -1.5266  0.0069
 4027TIP3    H236277   0.606   2.277   7.142  0.5180  0.5590  2.1919
 4028TIP3   OH236278   3.068   6.858   8.477 -0.1516  0.3866  0.6681
 4028TIP3    H136279   2.983   6.833   8.513 -1.3247  1.3511 -1.3017
 4028TIP3    H236280   3.066   6.830   8.386  1.9035 -0.0798  0.6998
 4029TIP3   OH236281   6.883   0.880   7.262 -0.7337 -0.6031  0.3596
 4029TIP3    H136282   6.913   0.900   7.173  1.7812 -2.7880  0.6004
 4029TIP3    H236283   6.788   0.877   7.255 -0.8197  2.2988 -1.5245
 4030TIP3   OH236284   2.935   2.202   9.120 -0.6887 -0.4220 -0.1060
 4030TIP3    H136285   2.944   2.287   9.163  0.0950 -0.0187 -1.0200
 4030TIP3    H236286   2.991   2.144   9.171 -1.7204 -0.5559  0.9033
 4031TIP3   OH236287   4.442   3.651   8.719 -0.1186 -0.0325 -0.3405
 4031TIP3    H136288   4.367   3.648   8.660 -1.2450  2.7897  0.8069
 4031TIP3    H236289   4.415   3.599   8.795  0.2775 -1.3991 -1.0968
 4032TIP3   OH236290   0.931   4.204   8.980 -0.1229 -0.5279  0.0064
 4032TIP3    H136291   0.836   4.192   8.986 -0.2069 -0.6158 -1.2040
 4032TIP3    H236292   0.944   4.298   8.992 -0.3683 -0.5055  0.0988
 4033TIP3   OH236293   5.529   0.098   8.756  0.7075  0.1692  0.1792
 4033TIP3    H136294   5.563   0.033   8.694  1.0576 -0.7863  1.3350
 4033TIP3    H236295   5.509   0.047   8.835 -2.9706  0.7083 -0.2073
 4034TIP3   OH236296   4.483   7.568   9.344 -0.1700  0.9418 -0.0860
 4034TIP3    H136297   4.455   7.660   9.343  1.3088  1.4073  0.0983
 4034TIP3    H236298   4.428   7.528   9.411 -0.8668  1.6749 -0.2002
 4035TIP3   OH236299   7.251   4.179   9.180  0.1208  0.2487  0.5155
 4035TIP3    H136300   7.160   4.162   9.157 -0.1441 -1.1142  2.3663
 4035TIP3    H236301   7.300   4.165   9.098 -1.2977  0.9529 -0.4853
 4036TIP3   OH236302   3.201   4.652   7.613  0.0388 -0.4972 -0.5696
 4036TIP3    H136303   3.230   4.561   7.602 -1.5113 -0.9452 -1.2033
 4036TIP3    H236304   3.138   4.666   7.542 -2.7295 -0.2129  1.7800
 4037TIP3   OH236305   4.817   6.659   7.152  0.1316  0.1133 -0.6695
 4037TIP3    H136306   4.901   6.618   7.173  0.7738  1.6199 -0.1861
 4037TIP3    H236307   4.840   6.747   7.121 -1.2176  0.2073 -1.4946
 4038TIP3   OH236308   1.741   3.684   7.036 -0.1037 -0.3419  0.6909
 4038TIP3    H136309   1.710   3.733   6.960 -0.2702 -1.3406  0.0894
 4038TIP3    H236310   1.779   3.750   7.094 -0.8223  0.5502  0.1659
 4039TIP3   OH236311   7.093   7.103   7.146 -0.0537  0.2845 -0.0176
 4039TIP3    H136312   7.030   7.171   7.123 -0.2400  0.9556  2.2633
 4039TIP3    H236313   7.041   7.023   7.156 -0.4788  0.6872  1.1634
 4040TIP3   OH236314   6.210   0.997   9.551  0.0684 -0.6056  0.2383
 4040TIP3    H136315   6.265   0.930   9.592  0.4231 -0.2757  0.3054
 4040TIP3    H236316   6.269   1.071   9.535 -0.8247  0.7050  2.4944
 4041TIP3   OH236317   0.129   1.621   7.158 -0.1243 -0.1154  0.2237
 4041TIP3    H136318   0.034   1.613   7.167 -0.3384  2.2112  0.9433
 4041TIP3    H236319   0.142   1.650   7.068  0.0254 -1.5616 -0.2324
 4042TIP3   OH236320   0.675   2.286   8.964 -0.2905  0.1597 -0.0009
 4042TIP3    H136321   0.681   2.192   8.981 -1.2273  0.3015  1.2874
 4042TIP3    H236322   0.756   2.322   8.999 -0.1747 -0.1103  0.0103
 4043TIP3   OH236323   5.541   5.064   9.253 -0.0174 -0.0157 -0.5905
 4043TIP3    H136324   5.477   5.131   9.231 -0.4777 -0.5546 -0.9085
 4043TIP3    H236325   5.597   5.058   9.175  1.1210  1.2275  0.0872
 4044TIP3   OH236326   2.830   5.185   8.254 -0.2691  0.1295 -0.5330
 4044TIP3    H136327   2.786   5.236   8.322 -0.5568 -0.7566 -0.0364
 4044TIP3    H236328   2.918   5.222   8.250 -0.0462 -0.1888  0.7692
 4045TIP3   OH236329   0.840   6.501   7.346 -0.5377 -0.1133 -0.6955
 4045TIP3    H136330   0.865   6.592   7.360 -2.0832  0.0493  1.5074
 4045TIP3    H236331   0.769   6.505   7.282 -0.3295  0.1712 -0.9147
 4046TIP3   OH236332   0.257   5.858   7.252 -0.4669  0.3226  0.0290
 4046TIP3    H136333   0.237   5.948   7.277 -1.8443  0.0930 -0.1984
 4046TIP3    H236334   0.308   5.866   7.172 -1.2088  0.8882 -0.4018
 4047TIP3   OH236335   1.812   5.216   7.897 -0.2094 -0.0811 -0.3136
 4047TIP3    H136336   1.720   5.205   7.872  0.2271 -2.5536 -1.1865
 4047TIP3    H236337   1.845   5.287   7.841 -1.4963  0.6429 -0.1777
 4048TIP3   OH236338   6.441   0.561   8.210  0.1865 -0.0213  0.0946
 4048TIP3    H136339   6.391   0.506   8.150  1.9161 -0.6013 -0.8866
 4048TIP3    H236340   6.437   0.649   8.171 -0.2890 -0.0143  0.1620
 4049TIP3   OH236341   0.655   3.435   8.081  0.0069 -0.5161  0.9430
 4049TIP3    H136342   0.710   3.507   8.113 -1.6605  1.7829 -1.0159
 4049TIP3    H236343   0.654   3.372   8.154  3.2180  0.3817  1.9644
 4050TIP3   OH236344   7.284   1.433   7.792 -0.0797 -0.0009 -0.4952
 4050TIP3    H136345   7.203   1.483   7.797  0.1903  0.4481 -0.4710
 4050TIP3    H236346   7.350   1.498   7.766  0.3244 -0.2885 -0.2066
 4051TIP3   OH236347   1.937   5.481   7.987 -0.3028 -0.0767 -0.3982
 4051TIP3    H136348   1.995   5.407   7.970 -0.6496 -0.5408  0.3493
 4051TIP3    H236349   1.940   5.534   7.907  0.0396 -0.8383 -0.8960
 4052TIP3   OH236350   0.732   2.720   8.518 -0.2214  0.1441 -0.3907
 4052TIP3    H136351   0.661   2.657   8.505 -0.2040 -0.0058  0.2416
 4052TIP3    H236352   0.811   2.674   8.489  0.1700 -1.0335  2.2685
 4053TIP3   OH236353   5.548   0.937   6.848  0.6566 -0.1361  0.2462
 4053TIP3    H136354   5.549   0.850   6.888 -0.4139  0.3148  1.3252
 4053TIP3    H236355   5.602   0.928   6.770 -2.3144 -2.7803 -1.7642
 4054TIP3   OH236356   4.536   0.882   8.680 -0.0170  0.4419 -0.7452
 4054TIP3    H136357   4.630   0.876   8.670  0.0488  1.0543 -0.5014
 4054TIP3    H236358   4.523   0.943   8.753 -0.4871 -2.2737  1.6425
 4055TIP3   OH236359   5.922   1.356   8.884  0.2070 -0.0827 -0.0026
 4055TIP3    H136360   6.001   1.309   8.856 -1.0522 -1.6248 -1.1277
 4055TIP3    H236361   5.850   1.303   8.851 -1.3274  0.9815  1.5025
 4056TIP3   OH236362   1.313   6.046   8.075 -0.6703  0.2367  0.3127
 4056TIP3    H136363   1.392   5.993   8.072 -2.1655 -2.1959  1.0624
 4056TIP3    H236364   1.257   6.010   8.006 -1.5535  1.1541  0.5218
 4057TIP3   OH236365   4.876   7.171   7.919 -0.4453  0.3089 -0.3646
 4057TIP3    H136366   4.884   7.192   7.826 -1.2661 -1.2345 -0.8079
 4057TIP3    H236367   4.952   7.117   7.939 -0.8615 -0.3061 -0.4248
 4058TIP3   OH236368   1.581   3.347   7.583  0.9655 -0.2062 -0.2338
 4058TIP3    H136369   1.579   3.384   7.494  0.4035 -0.5264 -0.3576
 4058TIP3    H236370   1.554   3.419   7.639  0.8341 -0.1433 -0.3763
 4059TIP3   OH236371   0.501   0.026   7.191  0.8374 -0.2719 -0.3039
 4059TIP3    H136372   0.564   0.049   7.259  1.4209  0.9577 -1.1960
 4059TIP3    H236373   0.546   0.048   7.109 -0.4929 -0.0062 -0.9997
 4060TIP3   OH236374   1.664   1.913   9.310 -0.4191  0.2121  0.6468
 4060TIP3    H136375   1.744   1.861   9.298 -0.2766  0.7439 -1.1164
 4060TIP3    H236376   1.594   1.857   9.278 -0.4249  0.6146 -0.0708
 4061TIP3   OH236377   5.142   0.209   9.342 -0.2149 -0.1793  0.5824
 4061TIP3    H136378   5.070   0.145   9.346 -0.8754  0.1837 -2.6021
 4061TIP3    H236379   5.218   0.162   9.377 -1.2762 -1.7669  0.8611
 4062TIP3   OH236380   4.551   2.624   9.546 -0.1554  0.0477  0.4095
 4062TIP3    H136381   4.533   2.559   9.478  0.2225 -0.1330  0.4800
 4062TIP3    H236382   4.521   2.707   9.509  0.3303 -0.0039 -0.0984
 4063TIP3   OH236383   6.894   6.545   6.971 -0.2286  0.4621  0.1245
 4063TIP3    H136384   6.826   6.588   6.919 -0.7471  1.8674  1.8666
 4063TIP3    H236385   6.946   6.617   7.006 -0.0436 -0.4081  1.7301
 4064TIP3   OH236386   5.005   2.532   9.078  0.4982  0.1293  0.2733
 4064TIP3    H136387   5.035   2.518   8.988 -0.0557 -0.3025  0.1452
 4064TIP3    H236388   5.035   2.620   9.100  0.0437  0.5124 -0.5884
 4065TIP3   OH236389   3.453   4.854   7.969 -0.6194  0.0787  0.6909
 4065TIP3    H136390   3.383   4.853   7.904  2.5083 -1.0872 -3.0100
 4065TIP3    H236391   3.490   4.942   7.964  0.4252 -0.3828 -0.1495
 4066TIP3   OH236392   0.995   2.952   7.378 -0.2340  0.1050 -0.2120
 4066TIP3    H136393   1.061   2.887   7.354 -0.0619  0.3416 -0.3821
 4066TIP3    H236394   1.021   3.031   7.332 -1.9160 -0.3850 -2.1927
 4067TIP3   OH236395   1.025   2.769   8.572 -0.6080  0.2599 -0.3491
 4067TIP3    H136396   0.970   2.800   8.644  0.5057  0.6907  0.3562
 4067TIP3    H236397   1.031   2.674   8.586  0.6252  0.4921  0.9144
 4068TIP3   OH236398   3.955   5.842   6.997 -0.1716  0.1570  0.5101
 4068TIP3    H136399   3.977   5.885   7.080  1.2766 -1.0398  0.7929
 4068TIP3    H236400   3.979   5.750   7.011 -0.1777 -0.1223 -1.1376
 4069TIP3   OH236401   7.534   7.563   8.998 -0.1012  0.0596  0.3509
 4069TIP3    H136402   7.599   7.527   8.937  1.3744 -0.6753  2.2502
 4069TIP3    H236403   7.451   7.529   8.966  0.8013 -1.6518 -0.3250
 4070TIP3   OH236404   3.395   0.372   7.183 -0.0506 -0.2120  0.0321
 4070TIP3    H136405   3.306   0.406   7.194  0.1286  0.9197 -1.5770
 4070TIP3    H236406   3.437   0.436   7.125  1.1832 -1.7769 -0.8696
 4071TIP3   OH236407   3.347   0.188   7.382  0.1386  0.3387 -0.3734
 4071TIP3    H136408   3.304   0.250   7.440  1.3062 -0.4562  1.4370
 4071TIP3    H236409   3.376   0.240   7.307 -2.9945  1.0576 -1.2239
 4072TIP3   OH236410   1.873   2.594   8.505 -0.0784 -0.0743  0.1303
 4072TIP3    H136411   1.853   2.646   8.582  0.9892 -0.6334  0.8141
 4072TIP3    H236412   1.835   2.643   8.432 -1.5924  0.1926  1.0464
 4073TIP3   OH236413   0.692   5.937   8.300  0.2635  0.3214  0.2902
 4073TIP3    H136414   0.648   5.854   8.319 -0.1067 -0.4726 -3.3008
 4073TIP3    H236415   0.637   6.004   8.340 -3.4752 -0.7616 -2.5007
 4074TIP3   OH236416   3.726   5.496   8.957  0.4200 -0.1551 -0.0862
 4074TIP3    H136417   3.758   5.586   8.956 -1.8032  0.7262 -2.8658
 4074TIP3    H236418   3.652   5.497   9.018 -0.3991  0.2708 -1.0573
 4075TIP3   OH236419   5.010   6.216   9.132  0.3717  1.2029  0.2290
 4075TIP3    H136420   4.916   6.198   9.121  0.7281 -0.1088 -0.9896
 4075TIP3    H236421   5.043   6.142   9.183  0.8797  1.2717  0.0014
 4076TIP3   OH236422   7.471   3.860   8.814 -0.3072  0.3343  0.3825
 4076TIP3    H136423   7.411   3.925   8.851 -1.0716 -0.1100 -0.0378
 4076TIP3    H236424   7.414   3.803   8.761  0.3131 -0.7724  0.8658
 4077TIP3   OH236425   2.826   7.308   7.932 -0.0209 -0.2642 -0.2829
 4077TIP3    H136426   2.773   7.251   7.876 -0.4342 -0.6136  0.4572
 4077TIP3    H236427   2.877   7.361   7.870 -0.1080 -0.9801 -0.9861
 4078TIP3   OH236428   4.621   3.174   7.524  0.3338  0.0225  0.3928
 4078TIP3    H136429   4.698   3.200   7.474 -0.8647  0.3922 -1.3468
 4078TIP3    H236430   4.594   3.254   7.570  0.4363  0.1325  0.2607
 4079TIP3   OH236431   1.070   1.335   8.403 -0.5113  0.1474  0.3131
 4079TIP3    H136432   1.003   1.403   8.395  0.7577  1.3297 -0.7964
 4079TIP3    H236433   1.097   1.318   8.312 -0.7373 -1.8070  0.5730
 4080TIP3   OH236434   5.019   2.712   8.355 -0.2181 -0.1934 -0.2808
 4080TIP3    H136435   5.014   2.784   8.418 -1.2261 -1.5700  1.2700
 4080TIP3    H236436   4.980   2.747   8.275 -0.0346  1.2036  0.2214
 4081TIP3   OH236437   6.434   6.175   7.892 -0.3386  0.1812  0.0410
 4081TIP3    H136438   6.483   6.245   7.848 -0.4848  0.5911  0.5264
 4081TIP3    H236439   6.496   6.138   7.955 -0.3478  0.0557 -0.0231
 4082TIP3   OH236440   5.612   2.838   9.016 -0.1962 -0.0181 -0.3111
 4082TIP3    H136441   5.667   2.894   9.072  0.3592  0.3529 -1.2015
 4082TIP3    H236442   5.548   2.800   9.076  0.4721  0.2534  0.6039
 4083TIP3   OH236443   4.308   5.733   9.582 -0.0415  0.1561  0.7098
 4083TIP3    H136444   4.387   5.768   9.623  0.8649  0.8754 -1.5226
 4083TIP3    H236445   4.340   5.682   9.507 -1.6464 -0.5937  0.4871
 4084TIP3   OH236446   6.257   4.065   9.546  0.2734  0.4379  0.3874
 4084TIP3    H136447   6.182   4.030   9.595 -1.1372 -0.7444 -2.4122
 4084TIP3    H236448   6.302   3.987   9.512  0.2686  1.2044 -1.4827
 4085TIP3   OH236449   0.228   1.478   9.189 -0.2497 -0.4396  0.4011
 4085TIP3    H136450   0.287   1.521   9.251  0.9676 -1.1648 -0.2080
 4085TIP3    H236451   0.148   1.530   9.192  1.1491  1.8886 -0.2966
 4086TIP3   OH236452   1.561   7.267   8.174  0.2613  0.1362  0.2712
 4086TIP3    H136453   1.552   7.172   8.180  0.5415  0.0378 -0.6659
 4086TIP3    H236454   1.471   7.300   8.172  0.0827 -0.3364 -2.2538
 4087TIP3   OH236455   4.582   0.278   8.364 -0.6175  0.3839 -0.4427
 4087TIP3    H136456   4.671   0.250   8.341 -0.7360  0.5877 -1.1956
 4087TIP3    H236457   4.591   0.371   8.385 -0.6054  0.3349 -0.2299
 4088TIP3   OH236458   5.428   6.838   7.782 -0.1438  0.2480 -0.4184
 4088TIP3    H136459   5.514   6.868   7.812 -0.7349 -0.3532  2.0692
 4088TIP3    H236460   5.379   6.918   7.765  0.1810  0.6363  0.4242
 4089TIP3   OH236461   4.897   4.588   7.680 -0.4383  0.2289  0.0937
 4089TIP3    H136462   4.989   4.614   7.674 -0.5803  0.8418  0.4446
 4089TIP3    H236463   4.895   4.497   7.650  0.3130  0.1421  0.2974
 4090TIP3   OH236464   6.480   6.954   8.159 -0.1117 -0.0983  0.5043
 4090TIP3    H136465   6.541   6.897   8.206 -1.3153 -0.6029  1.5120
 4090TIP3    H236466   6.394   6.928   8.191 -0.7729  1.4744  0.0870
 4091TIP3   OH236467   0.643   3.238   9.224 -0.4995  0.0570 -0.3555
 4091TIP3    H136468   0.607   3.323   9.250 -0.7298 -0.2145  0.2290
 4091TIP3    H236469   0.604   3.176   9.285  1.4063 -0.1870  0.7188
 4092TIP3   OH236470   4.762   6.890   8.962 -0.3698  0.0128  1.1168
 4092TIP3    H136471   4.745   6.806   9.006  0.4840 -0.5217  0.4529
 4092TIP3    H236472   4.713   6.954   9.014 -0.3886 -0.7788  2.1097
 4093TIP3   OH236473   5.092   4.316   8.331  0.0774  0.1145 -0.2127
 4093TIP3    H136474   5.180   4.277   8.332  1.2982  2.6546  0.4917
 4093TIP3    H236475   5.055   4.292   8.416 -0.8235 -2.6387 -1.2572
 4094TIP3   OH236476   6.837   5.384   9.462  0.1370 -0.1401  0.0572
 4094TIP3    H136477   6.916   5.330   9.470  0.9223  1.0959  1.3341
 4094TIP3    H236478   6.769   5.325   9.432  1.6587 -1.1586 -1.5417
 4095TIP3   OH236479   1.232   1.557   9.486  0.5285 -0.0842 -0.6552
 4095TIP3    H136480   1.250   1.651   9.499  2.9604 -0.2141 -2.4002
 4095TIP3    H236481   1.231   1.521   9.575  0.7326  1.4112 -0.0159
 4096TIP3   OH236482   0.230   5.288   9.004 -0.1429  0.7252 -0.0316
 4096TIP3    H136483   0.202   5.377   9.023  0.7339  0.9753  0.1247
 4096TIP3    H236484   0.150   5.243   8.976 -0.4173  1.8303 -1.1219
 4097TIP3   OH236485   0.129   7.113   9.351 -0.1370 -0.0390 -0.3978
 4097TIP3    H136486   0.215   7.143   9.380  0.6874 -1.4134 -1.3395
 4097TIP3    H236487   0.068   7.165   9.402  1.2524  0.3223  0.9810
 4098TIP3   OH236488   1.305   6.208   9.689  0.2658 -0.5793 -1.1183
 4098TIP3    H136489   1.210   6.223   9.684  0.0972  0.4871  2.5148
 4098TIP3    H236490   1.313   6.116   9.714  0.1329 -0.5142 -0.8260
 4099TIP3   OH236491   0.462   4.104   7.817  0.1265 -0.2133 -0.4558
 4099TIP3    H136492   0.410   4.162   7.761  1.9760  3.5789  1.3501
 4099TIP3    H236493   0.399   4.040   7.850 -2.3616  1.3316 -1.8466
 4100TIP3   OH236494   1.142   2.101   8.217  0.2207  0.6655 -0.0604
 4100TIP3    H136495   1.114   2.130   8.130 -0.8358  2.0912  0.7149
 4100TIP3    H236496   1.221   2.152   8.235  0.2729  0.5826 -0.0521
 4101TIP3   OH236497   5.992   2.961   7.871 -0.3935  0.2545 -0.2800
 4101TIP3    H136498   5.994   3.056   7.857 -1.1792  0.4776  0.9947
 4101TIP3    H236499   5.929   2.929   7.806  1.3271  0.3137 -2.0683
 4102TIP3   OH236500   7.001   5.155   9.489 -0.5275 -0.1245 -0.5082
 4102TIP3    H136501   7.051   5.094   9.543 -0.5172 -0.2699 -0.6819
 4102TIP3    H236502   6.944   5.099   9.436  1.0446 -0.1290 -2.2829
 4103TIP3   OH236503   2.868   3.903   8.012 -0.8563 -0.3518  0.6575
 4103TIP3    H136504   2.943   3.953   8.044 -0.2836 -0.3984 -0.5440
 4103TIP3    H236505   2.906   3.829   7.965 -1.6319 -0.1375 -0.3483
 4104TIP3   OH236506   6.527   4.213   7.329  0.2211 -0.1368 -0.2276
 4104TIP3    H136507   6.492   4.220   7.241  1.0918 -0.2053 -0.5863
 4104TIP3    H236508   6.607   4.266   7.328 -0.4637  0.9855  0.9008
 4105TIP3   OH236509   6.629   3.851   8.329 -0.1677 -0.8124  0.3914
 4105TIP3    H136510   6.701   3.788   8.338  1.0473  0.3499 -0.7563
 4105TIP3    H236511   6.624   3.868   8.235 -0.8386  0.3787  0.6232
 4106TIP3   OH236512   5.145   3.574   9.159 -0.1118  0.6350 -0.2608
 4106TIP3    H136513   5.095   3.504   9.116  0.1817  0.7098 -0.7300
 4106TIP3    H236514   5.225   3.581   9.108 -0.2918  1.5550 -0.4350
 4107TIP3   OH236515   3.221   4.807   7.833 -0.0698 -0.1090 -0.2596
 4107TIP3    H136516   3.141   4.785   7.880  1.7633  0.8097  3.6315
 4107TIP3    H236517   3.209   4.768   7.746 -4.0295 -1.3106  0.6428
 4108TIP3   OH236518   6.874   5.796   7.745  0.1190 -0.1897  0.1083
 4108TIP3    H136519   6.800   5.777   7.803 -0.0412 -1.9914 -0.6264
 4108TIP3    H236520   6.950   5.763   7.792  0.0616 -1.1060 -0.4175
 4109TIP3   OH236521   3.365   5.948   7.636 -0.0879 -0.4869 -0.2169
 4109TIP3    H136522   3.371   5.960   7.541 -0.0986 -0.0959 -0.1700
 4109TIP3    H236523   3.455   5.951   7.667 -0.0908 -0.5275 -0.2047
 4110TIP3   OH236524   2.931   2.304   8.641 -0.0836  0.1340 -0.2557
 4110TIP3    H136525   2.992   2.302   8.715 -0.1014  2.4382 -0.1253
 4110TIP3    H236526   2.849   2.334   8.679 -0.8008 -1.0638 -0.7988
 4111TIP3   OH236527   6.575   5.836   9.415 -0.4407 -0.4403  0.3930
 4111TIP3    H136528   6.655   5.868   9.456  1.0489 -1.0447 -1.9031
 4111TIP3    H236529   6.534   5.780   9.482  0.5947  0.5172  1.8808
 4112TIP3   OH236530   6.602   6.715   8.279  0.0450 -0.3892  0.0583
 4112TIP3    H136531   6.688   6.675   8.264 -0.1621 -0.9638  0.3862
 4112TIP3    H236532   6.569   6.674   8.359 -0.0680  0.6318  0.5575
 4113TIP3   OH236533   0.415   2.240   9.615 -0.4694  0.0058  0.2805
 4113TIP3    H136534   0.336   2.241   9.562 -0.4141  0.4911  0.2021
 4113TIP3    H236535   0.391   2.286   9.695 -0.3625 -0.1398  0.3971
 4114TIP3   OH236536   4.381   2.281   8.222 -0.1756  0.2139 -0.3069
 4114TIP3    H136537   4.307   2.338   8.241 -1.1005 -0.4869 -1.6250
 4114TIP3    H236538   4.421   2.318   8.143  0.0167 -0.2078 -0.4106
 4115TIP3   OH236539   4.801   6.287   8.207 -0.2376 -0.1298 -0.3871
 4115TIP3    H136540   4.817   6.206   8.159 -2.7686 -0.7421 -0.3495
 4115TIP3    H236541   4.840   6.272   8.293 -3.3223 -2.7506  0.7854
 4116TIP3   OH236542   1.925   7.533   8.616  0.0750 -0.0776  0.4552
 4116TIP3    H136543   1.943   7.592   8.689 -2.2688  0.9939  0.2712
 4116TIP3    H236544   1.885   7.456   8.657 -0.9709  0.4007  0.3734
 4117TIP3   OH236545   5.830   5.434   8.474 -0.0766  0.1256  0.9284
 4117TIP3    H136546   5.826   5.527   8.455 -0.7083 -0.4919 -2.5785
 4117TIP3    H236547   5.914   5.422   8.519  2.2750  1.8613 -2.5533
 4118TIP3   OH236548   3.553   5.890   9.015  0.5849  0.2938 -0.2210
 4118TIP3    H136549   3.478   5.949   9.027  1.1568  1.1198 -0.6004
 4118TIP3    H236550   3.523   5.826   8.950  0.1655  0.5364 -0.2688
 4119TIP3   OH236551   1.619   7.609   8.488 -0.5411 -0.4312 -0.7570
 4119TIP3    H136552   1.536   7.597   8.443 -1.4991 -0.4843  0.9286
 4119TIP3    H236553   1.604   7.575   8.576  1.7191 -1.7608 -0.8023
 4120TIP3   OH236554   6.586   2.975   7.547 -0.3651  0.1220 -0.5640
 4120TIP3    H136555   6.549   3.033   7.481 -0.6024  1.4373  0.6811
 4120TIP3    H236556   6.590   3.028   7.626  0.5383 -1.2054  0.3213
 4121TIP3   OH236557   1.651   5.669   9.185  0.1763  0.5535 -0.0286
 4121TIP3    H136558   1.719   5.736   9.188 -0.4731  1.1970  1.5121
 4121TIP3    H236559   1.576   5.713   9.145 -0.5469  1.0905  1.8136
 4122TIP3   OH236560   5.392   6.358   7.362  0.4953  0.8175  0.4467
 4122TIP3    H136561   5.332   6.302   7.313  1.4390  0.7892 -0.7196
 4122TIP3    H236562   5.479   6.337   7.328  0.9232  2.6980  0.2453
 4123TIP3   OH236563   0.639   2.409   7.653 -0.2673  0.5399  0.7957
 4123TIP3    H136564   0.678   2.324   7.676  0.8600  0.8231 -0.0072
 4123TIP3    H236565   0.567   2.386   7.594 -0.1912  0.1139  0.8625
 4124TIP3   OH236566   5.275   1.379   7.737  0.4578 -0.0745  0.2990
 4124TIP3    H136567   5.203   1.441   7.725 -0.8208 -1.6484 -0.5871
 4124TIP3    H236568   5.353   1.429   7.715 -0.5266  1.2292 -0.3775
 4125TIP3   OH236569   4.466   5.431   8.814  0.1186  0.6050 -0.5178
 4125TIP3    H136570   4.392   5.449   8.872  2.1588  1.1009  2.0691
 4125TIP3    H236571   4.451   5.489   8.739 -1.0952  2.2192  0.8840
 4126TIP3   OH236572   2.087   3.708   9.193 -0.2282 -0.1973 -0.0296
 4126TIP3    H136573   2.170   3.669   9.166 -1.7269 -3.0390 -0.8975
 4126TIP3    H236574   2.086   3.699   9.288  0.9664  1.0686  0.1323
 4127TIP3   OH236575   0.695   2.964   9.531  0.4426  0.2990 -0.3524
 4127TIP3    H136576   0.703   2.879   9.488 -2.1237  0.0517 -0.4719
 4127TIP3    H236577   0.717   2.947   9.622 -1.6773 -0.9358 -0.0172
 4128TIP3   OH236578   5.337   0.760   7.139 -0.6507 -0.0563 -0.2939
 4128TIP3    H136579   5.327   0.786   7.231 -3.5755 -1.3618 -0.1188
 4128TIP3    H236580   5.402   0.690   7.141  0.5964  1.0699  0.4859
 4129TIP3   OH236581   5.832   0.461   8.969  0.0837 -0.4315  0.0202
 4129TIP3    H136582   5.882   0.494   9.044  0.1493  0.7788 -0.5252
 4129TIP3    H236583   5.755   0.420   9.008 -0.6939  1.5600  0.7464
 4130TIP3   OH236584   7.250   1.277   7.573  0.7784 -0.6854  0.3529
 4130TIP3    H136585   7.323   1.329   7.539 -0.2890  1.5584  1.2754
 4130TIP3    H236586   7.241   1.305   7.664 -1.1467 -0.9796  0.2905
 4131TIP3   OH236587   1.398   7.585   7.858 -0.4078  0.3759 -0.7236
 4131TIP3    H136588   1.492   7.572   7.862 -0.7927 -3.1041 -0.2004
 4131TIP3    H236589   1.381   7.660   7.915  1.9759  0.9526 -0.6892
 4132TIP3   OH236590   3.974   5.043   7.981  0.0597 -0.1465  0.2032
 4132TIP3    H136591   4.063   5.049   7.946 -0.1349  0.4701 -0.2097
 4132TIP3    H236592   3.952   4.951   7.974 -0.2473  0.0250 -2.0621
 4133TIP3   OH236593   1.979   4.917   9.472 -0.0737 -0.2026  0.3400
 4133TIP3    H136594   2.032   4.982   9.426  0.9865 -1.3910 -0.1671
 4133TIP3    H236595   1.889   4.940   9.451  0.2632  1.1558  0.2632
 4134TIP3   OH236596   3.862   2.531   7.642 -0.5373  0.2506  0.7564
 4134TIP3    H136597   3.921   2.563   7.710  0.7613 -0.9282  0.2305
 4134TIP3    H236598   3.902   2.559   7.560 -1.0093 -0.0710  0.4088
 4135TIP3   OH236599   6.499   5.658   9.229 -0.2979 -0.3514 -0.5403
 4135TIP3    H136600   6.555   5.714   9.283 -1.0501 -0.3539  0.2643
 4135TIP3    H236601   6.558   5.592   9.194  0.0411 -1.0053  1.1665
 4136TIP3   OH236602   6.086   0.342   6.844  0.2607  0.2457 -0.0370
 4136TIP3    H136603   6.145   0.269   6.825  0.4071  0.2356  0.4423
 4136TIP3    H236604   6.033   0.351   6.765 -0.4646 -1.0360  0.2732
 4137TIP3   OH236605   3.051   4.322   8.814 -0.4034  0.2369  0.4525
 4137TIP3    H136606   3.046   4.264   8.890 -0.4095  0.5241  0.6730
 4137TIP3    H236607   3.037   4.409   8.850 -0.1647  0.3988  0.1548
 4138TIP3   OH236608   4.386   0.933   6.855 -0.2050  0.4204  0.2312
 4138TIP3    H136609   4.357   0.842   6.856 -1.9372  0.9335  0.3181
 4138TIP3    H236610   4.349   0.970   6.776  1.4437  0.8010 -0.4085
 4139TIP3   OH236611   1.433   7.399   9.555  0.1121 -0.5447 -0.5369
 4139TIP3    H136612   1.485   7.474   9.584  0.5920 -0.3089 -1.9518
 4139TIP3    H236613   1.342   7.431   9.559  0.1074 -0.6786  1.1120
 4140TIP3   OH236614   5.931   2.743   8.296  0.4924 -0.1935  0.4449
 4140TIP3    H136615   5.964   2.662   8.255  0.4530 -0.5550  1.1136
 4140TIP3    H236616   5.957   2.812   8.236 -0.0187 -0.7634 -0.4587
 4141TIP3   OH236617   1.721   4.395   8.430  0.0160 -0.3534 -0.3062
 4141TIP3    H136618   1.765   4.431   8.353 -0.9073 -0.2424 -0.8007
 4141TIP3    H236619   1.772   4.317   8.453  0.6194 -0.0753 -0.6932
 4142TIP3   OH236620   5.855   7.192   6.923 -0.3221  0.3383  0.1004
 4142TIP3    H136621   5.810   7.116   6.885 -1.8558  0.7651  0.9985
 4142TIP3    H236622   5.925   7.211   6.861 -1.4840 -0.2527 -1.4625
 4143TIP3   OH236623   0.984   2.837   9.586  0.0674  0.0025 -0.2405
 4143TIP3    H136624   1.000   2.885   9.667 -0.4592  0.4162 -0.3773
 4143TIP3    H236625   1.056   2.862   9.529  0.1578  0.1113 -0.0788
 4144TIP3   OH236626   6.654   6.009   8.582 -0.0944 -0.6223 -0.3659
 4144TIP3    H136627   6.682   5.972   8.498 -0.6624 -1.0964 -0.3550
 4144TIP3    H236628   6.712   5.967   8.646  0.4156 -0.1740 -0.5268
 4145TIP3   OH236629   3.131   6.095   7.333 -0.1842  0.6788 -0.0666
 4145TIP3    H136630   3.106   6.184   7.306  1.0851  0.6716 -1.3868
 4145TIP3    H236631   3.158   6.053   7.252  0.1194 -0.6315  0.6969
 4146TIP3   OH236632   0.352   4.366   7.132 -0.1613 -0.7599  0.6106
 4146TIP3    H136633   0.444   4.388   7.117 -0.4510  2.3591  2.4169
 4146TIP3    H236634   0.304   4.422   7.071 -0.9168 -1.4078  0.5942
 4147TIP3   OH236635   4.881   1.739   7.909  0.5618 -0.4088 -0.2738
 4147TIP3    H136636   4.966   1.780   7.919  0.5476 -0.6422  0.9176
 4147TIP3    H236637   4.820   1.812   7.897  0.6689 -0.1261  0.8429
 4148TIP3   OH236638   0.258   3.703   7.106  0.0449  0.0372  0.2454
 4148TIP3    H136639   0.300   3.657   7.033  1.1112  0.1017  0.8108
 4148TIP3    H236640   0.166   3.708   7.080  0.1438 -1.2250 -0.4417
 4149TIP3   OH236641   1.534   4.348   7.270 -0.6476 -0.2356  0.0177
 4149TIP3    H136642   1.613   4.350   7.216 -0.0316 -0.2508  0.8940
 4149TIP3    H236643   1.462   4.341   7.207 -0.0225  0.7958 -0.8463
 4150TIP3   OH236644   5.951   7.251   9.020 -0.0697  0.7723 -0.3277
 4150TIP3    H136645   5.992   7.189   9.080  0.0164  0.7747 -0.3848
 4150TIP3    H236646   6.023   7.307   8.990 -0.5916  3.3449  2.6046
 4151TIP3   OH236647   5.460   4.217   9.044  0.3227 -0.1026  0.1128
 4151TIP3    H136648   5.508   4.231   8.963  0.4858 -0.6444  0.1159
 4151TIP3    H236649   5.489   4.131   9.075 -0.8973 -0.6015 -0.0662
 4152TIP3   OH236650   3.931   6.095   9.171  0.1639 -0.0669  0.6773
 4152TIP3    H136651   4.025   6.107   9.188  0.4522  0.1487 -0.9019
 4152TIP3    H236652   3.928   6.024   9.107 -0.6848  0.6006 -0.0337
 4153TIP3   OH236653   6.851   4.504   6.913  0.3860 -0.0035  0.6193
 4153TIP3    H136654   6.846   4.571   6.981  1.0649 -0.3226  0.9985
 4153TIP3    H236655   6.939   4.468   6.922  0.0729 -0.8592  0.3387
 4154TIP3   OH236656   1.766   1.928   7.736  0.3936  0.8102 -0.0733
 4154TIP3    H136657   1.762   1.884   7.821  1.4477  0.9000  0.0287
 4154TIP3    H236658   1.788   2.018   7.757  0.5700  0.8522 -0.4375
 4155TIP3   OH236659   2.969   1.060   8.703  0.5092 -0.0647 -0.4795
 4155TIP3    H136660   3.058   1.092   8.689  0.0817  0.7983 -1.3617
 4155TIP3    H236661   2.980   0.969   8.732  1.7295  0.5334  1.0770
 4156TIP3   OH236662   1.074   1.112   8.628  0.2659 -0.4895 -0.0764
 4156TIP3    H136663   1.051   1.170   8.555  1.2144 -1.0389 -0.8363
 4156TIP3    H236664   1.062   1.024   8.593  2.0789 -0.7837 -0.0621
 4157TIP3   OH236665   2.904   6.841   9.771 -0.2445  0.7009  0.3185
 4157TIP3    H136666   2.996   6.847   9.748 -0.4761 -1.3762 -1.5185
 4157TIP3    H236667   2.896   6.758   9.819 -1.2867  0.2292 -0.6088
 4158TIP3   OH236668   3.994   1.505   8.217  0.2436  0.3584 -0.8067
 4158TIP3    H136669   4.016   1.574   8.155 -0.2271  1.2662 -0.0009
 4158TIP3    H236670   3.938   1.445   8.167  1.6208 -0.1010 -1.8538
 4159TIP3   OH236671   3.453   1.133   6.850  0.2371 -0.9352  0.3087
 4159TIP3    H136672   3.540   1.164   6.825  0.8392 -2.2948  0.6435
 4159TIP3    H236673   3.432   1.182   6.930 -0.7044  1.7239 -1.4170
 4160TIP3   OH236674   5.681   2.261   6.980  0.4634  0.0398 -0.2908
 4160TIP3    H136675   5.616   2.193   6.997  0.0544  0.3727 -0.4938
 4160TIP3    H236676   5.673   2.279   6.886  0.8815  0.0511 -0.3255
 4161TIP3   OH236677   5.820   5.342   9.115 -0.0953 -0.1862  0.9706
 4161TIP3    H136678   5.777   5.302   9.039 -0.2397  1.3303  0.2224
 4161TIP3    H236679   5.748   5.378   9.167  0.1449  3.4587 -0.9035
 4162TIP3   OH236680   7.190   4.866   6.745 -0.5095  0.2858  0.5924
 4162TIP3    H136681   7.146   4.950   6.754  2.3359  1.7712  2.1566
 4162TIP3    H236682   7.253   4.879   6.674  0.6683 -0.1181  1.5182
 4163TIP3   OH236683   5.051   3.444   7.483  0.0537 -0.3855  0.0962
 4163TIP3    H136684   5.058   3.539   7.476 -1.6667 -0.2428 -0.2069
 4163TIP3    H236685   5.135   3.411   7.452  1.1115  1.0437  1.2625
 4164TIP3   OH236686   0.548   5.404   7.692 -0.1196  0.0086 -0.8923
 4164TIP3    H136687   0.455   5.423   7.685 -0.4128  0.2861  2.1805
 4164TIP3    H236688   0.571   5.431   7.781  2.2441 -2.7316 -0.5189
 4165TIP3   OH236689   3.961   6.175   9.536  0.4608 -0.1152 -0.0601
 4165TIP3    H136690   4.021   6.104   9.559 -0.3283 -0.7598  0.0632
 4165TIP3    H236691   3.953   6.226   9.617  0.8053 -0.0424 -0.0672
 4166TIP3   OH236692   1.388   5.173   8.237 -0.2561  0.7899  0.7973
 4166TIP3    H136693   1.361   5.240   8.300 -0.0369  0.6546  1.0341
 4166TIP3    H236694   1.370   5.213   8.151 -0.7657  0.8827  0.9446
 4167TIP3   OH236695   4.913   5.518   8.483  0.2791  0.4111 -0.1079
 4167TIP3    H136696   4.925   5.501   8.389  1.0997  0.9915 -0.1273
 4167TIP3    H236697   4.958   5.602   8.497  1.4774 -0.3884  1.0848
 4168TIP3   OH236698   0.347   4.579   6.732  0.2526 -0.4682  0.0119
 4168TIP3    H136699   0.337   4.530   6.650 -0.0302 -3.1632  1.5564
 4168TIP3    H236700   0.356   4.670   6.704  0.4952 -1.3131 -3.0213
 4169TIP3   OH236701   6.523   7.629   7.595 -0.1162  0.2688 -0.5839
 4169TIP3    H136702   6.589   7.690   7.626  0.0692  1.2959 -2.7768
 4169TIP3    H236703   6.541   7.620   7.501 -2.6408  0.0461 -1.1359
 4170TIP3   OH236704   5.665   5.366  19.649  0.4068  0.7606 -0.1435
 4170TIP3    H136705   5.747   5.365  19.697  0.3000  0.3133  0.0327
 4170TIP3    H236706   5.690   5.362  19.557  0.5715  0.0783 -0.0743
 4171TIP3   OH236707   1.775   5.441   6.539 -0.5439  0.2740 -0.0825
 4171TIP3    H136708   1.840   5.385   6.582 -0.8721  0.4731  0.7048
 4171TIP3    H236709   1.824   5.488   6.471  0.2425  0.7311  0.7711
 4172TIP3   OH236710   2.312   0.774   6.745  0.1888 -0.2366 -0.0485
 4172TIP3    H136711   2.284   0.698   6.797 -0.2390  0.3748  0.6348
 4172TIP3    H236712   2.231   0.812   6.711  0.2084  1.0121  1.1903
 4173TIP3   OH236713   4.654   7.095   7.624 -0.5031 -0.0598 -0.0747
 4173TIP3    H136714   4.573   7.139   7.598 -0.6871  0.5293  1.3822
 4173TIP3    H236715   4.723   7.158   7.604 -0.3680 -0.5563 -1.3022
 4174TIP3   OH236716   3.576   1.901   9.349 -0.2098  0.1700  0.6568
 4174TIP3    H136717   3.530   1.982   9.326  1.2814  0.5855 -1.0692
 4174TIP3    H236718   3.521   1.831   9.314  0.6774  0.6857 -1.9882
 4175TIP3   OH236719   7.187   1.766   8.095  0.0423  0.2092  0.0487
 4175TIP3    H136720   7.229   1.680   8.101  0.8772  0.6565  0.8951
 4175TIP3    H236721   7.200   1.793   8.004 -0.9020 -0.8653 -0.4409
 4176TIP3   OH236722   5.582   2.055   8.364 -0.2531  0.1144  0.1040
 4176TIP3    H136723   5.503   2.022   8.407 -1.7467 -0.1519 -2.6577
 4176TIP3    H236724   5.647   2.061   8.435 -2.1439 -1.4816  2.1054
 4177TIP3   OH236725   1.762   6.137   8.627 -0.3523  0.4613  0.7498
 4177TIP3    H136726   1.820   6.205   8.593  1.6356 -1.4316  0.1160
 4177TIP3    H236727   1.799   6.115   8.713 -0.5995 -0.2137  0.6856
 4178TIP3   OH236728   0.088   4.038   9.637 -0.5021  0.1883  0.1690
 4178TIP3    H136729   0.047   3.955   9.660  1.0029 -1.0776 -1.4595
 4178TIP3    H236730   0.169   4.013   9.591 -0.6348  2.5337 -1.4953
 4179TIP3   OH236731   7.241   2.019   6.918  0.6798  0.2467  0.1349
 4179TIP3    H136732   7.271   2.038   7.007 -0.7340  0.5522  0.5711
 4179TIP3    H236733   7.304   1.955   6.885  0.5825 -0.7520  1.7640
 4180TIP3   OH236734   3.406   0.266   6.850  0.0331  0.2005 -0.0404
 4180TIP3    H136735   3.469   0.198   6.871  0.5912  0.5414 -0.5781
 4180TIP3    H236736   3.385   0.252   6.758 -0.5633  0.1863  0.0904
 4181TIP3   OH236737   5.463   3.946   9.552  0.1981  0.0730  0.6942
 4181TIP3    H136738   5.405   4.014   9.587  0.7322 -0.7132  3.3554
 4181TIP3    H236739   5.527   3.932   9.622  0.9118 -2.2075 -0.3318
 4182TIP3   OH236740   3.381   6.841   7.607  0.1557 -0.8165 -0.5032
 4182TIP3    H136741   3.321   6.781   7.563 -1.8214  1.4214 -1.0581
 4182TIP3    H236742   3.330   6.920   7.621  2.6973  0.8634 -0.0363
 4183TIP3   OH236743   0.722   6.229   8.174 -0.4092  0.0449  0.0944
 4183TIP3    H136744   0.636   6.219   8.131 -0.2528 -0.3275 -0.1422
 4183TIP3    H236745   0.733   6.148   8.223 -0.1764  0.0760  0.0921
 4184TIP3   OH236746   4.874   0.021   7.828 -0.0712  0.0936  0.2063
 4184TIP3    H136747   4.848   0.100   7.781  0.5650  1.5025  2.1410
 4184TIP3    H236748   4.812  -0.046   7.797 -0.3758  1.2177 -1.7480
 4185TIP3   OH236749   1.035   6.667   7.760  0.7244  0.5086 -0.3958
 4185TIP3    H136750   1.084   6.595   7.721  1.2890  1.3624 -1.3197
 4185TIP3    H236751   0.946   6.657   7.726  0.7662  0.1662 -0.4014
 4186TIP3   OH236752   2.469   6.817   7.971 -0.2102  0.0218 -0.3797
 4186TIP3    H136753   2.487   6.723   7.970  0.3595  0.0105  2.4977
 4186TIP3    H236754   2.538   6.855   7.918  0.1704 -1.1084 -0.7175
 4187TIP3   OH236755   6.901   4.669   7.569  0.0841 -0.2439 -0.1224
 4187TIP3    H136756   6.863   4.691   7.484  1.3113 -0.9354 -0.8810
 4187TIP3    H236757   6.926   4.577   7.561  2.1768  0.2418  0.1839
 4188TIP3   OH236758   3.447   7.677   7.886 -0.5406 -0.0951 -0.5380
 4188TIP3    H136759   3.400   7.760   7.896 -0.4030 -0.1168  0.3500
 4188TIP3    H236760   3.437   7.655   7.793  1.4670  2.1476 -1.3879
 4189TIP3   OH236761   5.890   3.356   9.288  0.0143  0.0809 -0.4903
 4189TIP3    H136762   5.944   3.326   9.216  0.9184  1.7883 -0.5679
 4189TIP3    H236763   5.948   3.412   9.341 -1.1604  0.4772  0.4383
 4190TIP3   OH236764   5.177   3.514   8.473 -0.6613 -0.1166 -0.7570
 4190TIP3    H136765   5.220   3.550   8.551  0.9741  0.0071 -1.6870
 4190TIP3    H236766   5.084   3.510   8.498 -0.3471  0.9812  0.7909
 4191TIP3   OH236767   4.823   1.700   7.574  0.1600  0.4044  0.1030
 4191TIP3    H136768   4.781   1.634   7.629  2.6430 -0.8824  0.5476
 4191TIP3    H236769   4.841   1.656   7.491 -1.4586  1.6721 -1.0067
 4192TIP3   OH236770   0.934   3.921   9.261 -0.1830 -0.3442  0.0617
 4192TIP3    H136771   0.963   3.967   9.340  0.4552  0.3779 -0.5829
 4192TIP3    H236772   0.999   3.943   9.195 -2.0364  1.1437 -1.3791
 4193TIP3   OH236773   7.650   5.073   8.253 -0.3250  0.1665  0.0205
 4193TIP3    H136774   7.701   5.147   8.285  0.3170 -0.1922 -0.1699
 4193TIP3    H236775   7.681   4.999   8.303  1.0405 -0.5038 -1.7344
 4194TIP3   OH236776   7.448   7.111   8.265  0.0538  0.0323 -0.7476
 4194TIP3    H136777   7.396   7.052   8.211 -0.0731  0.0958 -0.6961
 4194TIP3    H236778   7.527   7.128   8.213 -0.5298  0.9095 -1.3642
 4195TIP3   OH236779   5.784   7.574   8.782 -0.0557  0.0814 -0.5639
 4195TIP3    H136780   5.755   7.539   8.867 -0.1153  0.9025 -0.2429
 4195TIP3    H236781   5.736   7.522   8.717 -0.7730  0.1222 -0.0788
 4196TIP3   OH236782   1.745   4.312   8.889  0.3818 -0.2661  0.1105
 4196TIP3    H136783   1.714   4.334   8.977  0.1383  0.3976 -0.1316
 4196TIP3    H236784   1.830   4.355   8.883 -0.4323  1.3151 -0.6384
 4197TIP3   OH236785   6.189   1.499   7.890  0.4056 -0.3079 -0.5725
 4197TIP3    H136786   6.227   1.526   7.974  0.6512 -0.7984 -0.5205
 4197TIP3    H236787   6.101   1.467   7.912  0.2370  0.1358 -0.5901
 4198TIP3   OH236788   2.979   3.762   8.732  0.2661  0.1252  0.4607
 4198TIP3    H136789   3.043   3.745   8.663  0.5865 -1.1800  1.0458
 4198TIP3    H236790   3.014   3.838   8.779  2.5727 -1.7781  2.0755
 4199TIP3   OH236791   0.260   1.352   7.178 -0.5593 -0.1530 -0.5144
 4199TIP3    H136792   0.260   1.414   7.251  0.7555 -0.2343 -0.4243
 4199TIP3    H236793   0.292   1.403   7.104 -0.1460 -0.5425 -0.6040
 4200TIP3   OH236794   3.402   4.748   8.222  0.3132 -0.1661 -0.2981
 4200TIP3    H136795   3.446   4.796   8.152  0.3082 -0.5950 -0.5983
 4200TIP3    H236796   3.326   4.707   8.180 -0.9219  1.3097  0.3861
 4201TIP3   OH236797   2.751   7.063   9.000 -0.4515 -0.0879 -0.0945
 4201TIP3    H136798   2.791   7.028   9.079  0.7741  0.6041 -0.3641
 4201TIP3    H236799   2.728   7.153   9.023  3.5308  1.5646 -1.4978
 4202TIP3   OH236800   0.788   3.545   9.564  0.7101 -0.2608 -0.1883
 4202TIP3    H136801   0.753   3.634   9.553 -0.1624 -0.6092 -0.3008
 4202TIP3    H236802   0.872   3.547   9.518  1.1612  0.7795  0.6538
 4203TIP3   OH236803   3.608   2.612   7.717 -0.1221 -0.0256  0.2114
 4203TIP3    H136804   3.558   2.663   7.652 -0.0316  0.2952  0.3899
 4203TIP3    H236805   3.694   2.600   7.676  0.7615  2.2798  1.2481
 4204TIP3   OH236806   1.042   0.266   7.388  0.5428  0.3719 -0.0013
 4204TIP3    H136807   1.080   0.238   7.305  1.0062 -1.4546  0.7772
 4204TIP3    H236808   1.021   0.184   7.434 -0.9248  1.3384  1.1330
 4205TIP3   OH236809   2.557   6.492   8.086  0.3537  0.1869  0.1000
 4205TIP3    H136810   2.514   6.407   8.089 -2.6937  1.5006 -1.9154
 4205TIP3    H236811   2.596   6.496   7.999  1.4962  0.4474  0.6055
 4206TIP3   OH236812   4.881   3.213   8.251  0.3342  0.6321 -0.1095
 4206TIP3    H136813   4.938   3.183   8.180 -1.4188 -0.7187 -1.0163
 4206TIP3    H236814   4.819   3.141   8.265 -0.0331  1.2872  2.1044
 4207TIP3   OH236815   2.988   0.887   7.671  0.6070 -0.1554 -0.4213
 4207TIP3    H136816   2.904   0.841   7.684  0.3047  0.3627 -0.5149
 4207TIP3    H236817   3.024   0.849   7.591 -0.1729  0.5344 -1.1222
 4208TIP3   OH236818   4.094   6.763   9.257  0.2514  0.3559 -0.3603
 4208TIP3    H136819   4.013   6.719   9.282 -0.0794  0.8391 -0.5453
 4208TIP3    H236820   4.153   6.693   9.231 -0.2868  0.0228 -0.7166
 4209TIP3   OH236821   5.023   7.616   7.602 -0.3665  0.2287  0.1631
 4209TIP3    H136822   4.961   7.604   7.674 -1.4074 -0.3189 -0.8044
 4209TIP3    H236823   5.109   7.616   7.645 -0.9561 -0.0838  1.3997
 4210TIP3   OH236824   0.871   4.654   9.244  0.2822  0.2718  0.3835
 4210TIP3    H136825   0.874   4.746   9.271 -0.0324  0.3916  0.0082
 4210TIP3    H236826   0.957   4.638   9.205 -0.1577  0.8106 -0.8605
 4211TIP3   OH236827   6.513   3.837   8.947  0.0961 -0.8056  0.4807
 4211TIP3    H136828   6.549   3.763   8.899  0.6553 -0.0916 -0.2361
 4211TIP3    H236829   6.433   3.804   8.987 -0.1460 -1.5266 -0.5811
 4212TIP3   OH236830   5.916   5.326   9.573 -0.0335  0.0604  0.3116
 4212TIP3    H136831   5.858   5.382   9.625  0.8171  0.7584  0.5220
 4212TIP3    H236832   5.857   5.259   9.537 -1.0286  0.9374  0.2477
 4213TIP3   OH236833   7.207   6.717   8.653  0.3539  0.2136 -0.1883
 4213TIP3    H136834   7.139   6.780   8.677 -0.3922 -0.0153 -1.5943
 4213TIP3    H236835   7.160   6.644   8.612  1.1117 -1.6571  2.0403
 4214TIP3   OH236836   3.442   2.192   7.566 -0.0178 -0.0023  0.4739
 4214TIP3    H136837   3.359   2.144   7.556  0.2808 -0.4110 -0.0785
 4214TIP3    H236838   3.469   2.174   7.656 -0.3889 -0.1013  0.5670
 4215TIP3   OH236839   2.672   4.446   8.257 -0.2635  0.4197 -0.4172
 4215TIP3    H136840   2.642   4.409   8.174 -1.6011 -1.0222  0.6410
 4215TIP3    H236841   2.606   4.418   8.320  2.2426 -1.1634  1.7160
 4216TIP3   OH236842   0.326   3.342   8.703  0.4426  0.3020 -0.1950
 4216TIP3    H136843   0.284   3.256   8.704  0.8357  0.0986 -0.5814
 4216TIP3    H236844   0.256   3.402   8.678 -0.1048  0.2579  1.1492
 4217TIP3   OH236845   1.296   1.965   8.475  0.0438  0.3808  0.2321
 4217TIP3    H136846   1.347   1.925   8.405  0.4471 -1.3805  1.4655
 4217TIP3    H236847   1.239   1.895   8.506 -0.3991  1.2377  1.4111
 4218TIP3   OH236848   5.122   2.019   9.148  0.0168  0.0159 -0.2725
 4218TIP3    H136849   5.062   2.013   9.074 -0.6085  0.9669  0.1379
 4218TIP3    H236850   5.068   2.051   9.221  0.4170 -1.6792  0.8409
 4219TIP3   OH236851   6.379   5.226   9.514  0.5853  0.7607  0.0515
 4219TIP3    H136852   6.465   5.210   9.553  0.8966  0.2761 -0.7900
 4219TIP3    H236853   6.377   5.321   9.499 -0.0780  1.1656  2.3893
 4220TIP3   OH236854   5.284   5.115   8.723 -0.1269  0.3269  0.5086
 4220TIP3    H136855   5.219   5.137   8.790 -2.1263  0.5825 -1.3971
 4220TIP3    H236856   5.337   5.194   8.715 -1.2219  1.0754  0.3396
 4221TIP3   OH236857   6.786   0.787   7.498  0.0791  0.0668  0.1051
 4221TIP3    H136858   6.693   0.794   7.476  0.0423 -0.1059  0.2012
 4221TIP3    H236859   6.832   0.821   7.422 -0.0662  0.2327  0.0919
 4222TIP3   OH236860   2.727   7.065   9.786  0.7755 -0.1044 -0.3166
 4222TIP3    H136861   2.766   6.980   9.764 -0.2219 -0.1237 -2.2406
 4222TIP3    H236862   2.636   7.046   9.806  0.8380  0.3777  0.4665
 4223TIP3   OH236863   0.414   2.352   7.496 -0.4582 -0.6888  0.2236
 4223TIP3    H136864   0.373   2.333   7.412 -0.8748 -2.5320  0.7966
 4223TIP3    H236865   0.423   2.267   7.538  0.2019  0.1367  1.8512
 4224TIP3   OH236866   4.517   6.174   7.061 -0.9152  0.1362 -0.0957
 4224TIP3    H136867   4.520   6.087   7.099 -0.3119  0.6487  1.1083
 4224TIP3    H236868   4.577   6.171   6.987 -1.7390 -0.7534 -0.7469
 4225TIP3   OH236869   6.004   5.096   9.365 -0.3568 -0.0923 -0.0052
 4225TIP3    H136870   6.021   5.070   9.274  2.4224 -1.3996  0.7765
 4225TIP3    H236871   6.039   5.185   9.371 -2.5299  0.8799 -0.6698
 4226TIP3   OH236872   1.552   1.899   7.911 -0.3181  0.2903 -0.2083
 4226TIP3    H136873   1.536   1.960   7.838  0.3474  0.5873 -0.1174
 4226TIP3    H236874   1.525   1.814   7.877 -2.6685  0.8239  0.1610
 4227TIP3   OH236875   2.159   6.215   9.278  0.1704  0.4961  0.3082
 4227TIP3    H136876   2.212   6.174   9.209 -0.2357  0.3884  0.0599
 4227TIP3    H236877   2.121   6.292   9.236  1.2426  1.3635  0.8837
 4228TIP3   OH236878   4.674   3.044   9.019 -0.0354  0.3241 -0.0349
 4228TIP3    H136879   4.672   3.138   9.036 -1.7858  0.3930 -0.5052
 4228TIP3    H236880   4.719   3.036   8.935 -0.1538  0.7571 -0.1418
 4229TIP3   OH236881   3.081   5.308   8.263  0.3212 -0.1397  0.0522
 4229TIP3    H136882   3.080   5.334   8.355 -0.5878  0.6777 -0.1764
 4229TIP3    H236883   3.109   5.216   8.265 -0.8431 -0.5055  1.2424
 4230TIP3   OH236884   3.007   3.518   9.203 -0.2696 -0.5432  0.1028
 4230TIP3    H136885   2.987   3.576   9.130 -0.5566  0.8791  1.2683
 4230TIP3    H236886   2.927   3.467   9.216 -1.0833  0.9038  0.9421
 4231TIP3   OH236887   1.120   4.881   9.537  0.3061  0.4682 -0.0243
 4231TIP3    H136888   1.145   4.974   9.540  2.1063  0.0215 -0.1618
 4231TIP3    H236889   1.192   4.839   9.490  1.0423 -1.4376  2.5957
 4232TIP3   OH236890   3.589   0.162   8.404 -0.1035 -0.3036 -0.0587
 4232TIP3    H136891   3.601   0.084   8.350 -0.3688 -0.1357 -0.3608
 4232TIP3    H236892   3.524   0.214   8.358 -2.4512 -1.4311  1.7895
 4233TIP3   OH236893   2.396   0.531   7.148  0.5463  0.2658 -0.2468
 4233TIP3    H136894   2.354   0.598   7.201  1.4957  0.1594  0.6613
 4233TIP3    H236895   2.422   0.577   7.068 -2.9874 -0.0719 -1.7677
 4234TIP3   OH236896   1.398   1.721   8.728 -0.1017  0.0043  0.3177
 4234TIP3    H136897   1.380   1.774   8.806 -0.0208 -0.1121  0.4156
 4234TIP3    H236898   1.482   1.679   8.746 -0.9243 -1.4567  0.9588
 4235TIP3   OH236899   4.007   7.524   8.932  0.3146  0.1700  0.3312
 4235TIP3    H136900   3.988   7.593   8.996 -0.0554  0.6454 -0.2760
 4235TIP3    H236901   3.942   7.538   8.862  0.3221 -0.7118  0.1373
 4236TIP3   OH236902   6.672   6.978   7.573  0.3060  0.5940  0.2452
 4236TIP3    H136903   6.649   6.922   7.498  0.3833  0.5247  0.2726
 4236TIP3    H236904   6.589   7.015   7.602  0.3316  0.9655 -0.1484
 4237TIP3   OH236905   3.515   3.376   8.851 -0.3339  0.7156 -0.5271
 4237TIP3    H136906   3.441   3.371   8.911 -1.1206  0.7883 -1.4672
 4237TIP3    H236907   3.592   3.359   8.906 -1.2700 -2.7049 -0.0586
 4238TIP3   OH236908   1.691   5.880   8.411  0.0305  0.6527 -0.2197
 4238TIP3    H136909   1.715   5.870   8.503 -1.1909  1.1066  0.1687
 4238TIP3    H236910   1.638   5.960   8.408  0.0187  0.6252 -1.3140
 4239TIP3   OH236911   4.627   5.074   9.766 -0.2488  0.0824 -0.3097
 4239TIP3    H136912   4.618   5.097   9.673 -0.1877  1.0315 -0.0948
 4239TIP3    H236913   4.618   4.979   9.768  1.9285 -0.2365 -1.5864
 4240TIP3   OH236914   2.544   2.537   7.288 -0.0607  0.5285 -0.3184
 4240TIP3    H136915   2.607   2.576   7.348  0.9624 -0.1313 -0.9393
 4240TIP3    H236916   2.481   2.493   7.345  1.2396 -0.6284  0.2857
 4241TIP3   OH236917   3.476   6.204   8.247  0.5220 -0.1582  0.3078
 4241TIP3    H136918   3.422   6.235   8.174 -0.1867 -0.3722  0.7400
 4241TIP3    H236919   3.566   6.219   8.217  0.2688  3.0675  0.7596
 4242TIP3   OH236920   0.724   3.705   9.188 -0.0163  0.6477  0.1106
 4242TIP3    H136921   0.753   3.689   9.098 -0.3596 -0.5216  0.1900
 4242TIP3    H236922   0.788   3.768   9.222  0.2682  0.9146 -0.8630
 4243TIP3   OH236923   5.814   1.284   7.010  0.3357  0.6418  0.1791
 4243TIP3    H136924   5.841   1.256   7.098  0.9788  0.1800 -0.1506
 4243TIP3    H236925   5.726   1.249   7.000  0.1929  0.8391  0.7019
 4244TIP3   OH236926   5.504   0.343   8.645 -0.2326 -0.2188 -0.7093
 4244TIP3    H136927   5.505   0.318   8.552 -0.0313 -1.3338 -0.4258
 4244TIP3    H236928   5.527   0.263   8.691  3.7863  1.2018  0.1228
 4245TIP3   OH236929   4.148   1.051   9.546 -0.0226 -0.2972 -0.1380
 4245TIP3    H136930   4.144   1.096   9.462 -1.7943  0.4387  0.3132
 4245TIP3    H236931   4.067   1.001   9.551  0.9862 -1.9931  0.2671
 4246TIP3   OH236932   0.583   0.995   7.887  1.1946 -0.0743  0.0227
 4246TIP3    H136933   0.504   0.951   7.918  1.5590  0.3597  1.6499
 4246TIP3    H236934   0.635   0.926   7.845  1.0879 -0.8942  1.2020
 4247TIP3   OH236935   7.487   1.630   7.710 -0.1707 -0.6643 -0.0737
 4247TIP3    H136936   7.557   1.691   7.731 -0.1496 -1.3802  2.2303
 4247TIP3    H236937   7.530   1.562   7.658  0.2338  0.2300 -0.9455
 4248TIP3   OH236938   4.261   6.597   7.791  0.3729 -0.3714 -0.7887
 4248TIP3    H136939   4.237   6.667   7.851  0.9370  0.9560 -2.0613
 4248TIP3    H236940   4.341   6.560   7.828  0.4279  0.0864 -0.4424
 4249TIP3   OH236941   6.692   3.302   8.483 -0.1654 -0.2380  0.2005
 4249TIP3    H136942   6.609   3.260   8.465  0.5086 -1.4284 -0.2301
 4249TIP3    H236943   6.758   3.244   8.445  0.8269  1.0702 -0.1815
 4250TIP3   OH236944   1.402   0.460   7.471 -0.1181 -0.6499 -0.7191
 4250TIP3    H136945   1.413   0.365   7.467  0.5965 -0.5873 -0.2510
 4250TIP3    H236946   1.307   0.473   7.478 -0.0930 -1.4335  1.8617
 4251TIP3   OH236947   1.465   0.394   9.274  0.0850 -0.1886  0.2008
 4251TIP3    H136948   1.477   0.390   9.179 -0.0119 -1.4384  0.2156
 4251TIP3    H236949   1.542   0.442   9.306 -0.1338  0.6786 -0.5401
 4252TIP3   OH236950   1.132   5.477   8.954  0.6788  0.1465 -0.0229
 4252TIP3    H136951   1.078   5.398   8.952  0.9284 -0.0941  1.5361
 4252TIP3    H236952   1.071   5.549   8.937 -0.3700 -0.0405  2.4593
 4253TIP3   OH236953   1.767   3.673   7.366 -0.3921  0.3144  0.0849
 4253TIP3    H136954   1.764   3.730   7.289 -1.1332 -2.3354 -2.0134
 4253TIP3    H236955   1.859   3.649   7.373 -0.1397  1.4342  0.7435
 4254TIP3   OH236956   1.209   5.831   8.949 -0.4318 -0.0596 -0.0123
 4254TIP3    H136957   1.176   5.912   8.911  0.0726  1.6207  2.7788
 4254TIP3    H236958   1.133   5.791   8.991 -0.5856 -0.8191 -0.9879
 4255TIP3   OH236959   7.105   6.630   8.094  0.3599 -0.8091 -0.1773
 4255TIP3    H136960   7.126   6.653   8.185 -0.4826  1.8388 -0.5739
 4255TIP3    H236961   7.185   6.590   8.061  0.9537 -1.1018  1.5003
 4256TIP3   OH236962   6.061   0.279   7.847 -0.5725 -0.1516  0.1854
 4256TIP3    H136963   6.075   0.339   7.921 -0.0995 -0.0268 -0.0013
 4256TIP3    H236964   6.060   0.192   7.887 -2.8451  0.0430  0.6821
 4257TIP3   OH236965   4.112   5.367   8.597 -0.0397  0.1361  0.0189
 4257TIP3    H136966   4.112   5.456   8.633 -1.7576  0.1399  0.1086
 4257TIP3    H236967   4.084   5.378   8.506 -0.7142 -0.3410  0.1634
 4258TIP3   OH236968   4.858   3.160   9.410 -0.0777  0.6187  0.1467
 4258TIP3    H136969   4.829   3.229   9.351  0.0362  0.5734  0.0356
 4258TIP3    H236970   4.793   3.159   9.480 -0.4529  0.3824 -0.2006
 4259TIP3   OH236971   6.580   3.435   6.849 -0.2344  0.2102 -0.0038
 4259TIP3    H136972   6.497   3.481   6.864  0.7536  1.3161  2.6101
 4259TIP3    H236973   6.646   3.504   6.848  0.8014 -0.7651 -0.7151
 4260TIP3   OH236974   7.021   7.396   8.329  0.2248  0.4256 -0.5821
 4260TIP3    H136975   7.038   7.440   8.246 -0.0930  1.2828 -0.2003
 4260TIP3    H236976   7.107   7.366   8.359  0.1422 -1.6495 -2.1450
 4261TIP3   OH236977   7.227   1.972   9.187  0.2222  0.4661 -0.4267
 4261TIP3    H136978   7.290   1.907   9.217  0.6042  1.3428  0.7473
 4261TIP3    H236979   7.145   1.948   9.231 -0.1229 -0.2729 -1.4255
 4262TIP3   OH236980   6.313   3.388   8.332 -0.1016 -0.1230 -0.1897
 4262TIP3    H136981   6.243   3.342   8.287  1.0774 -1.4631 -0.7042
 4262TIP3    H236982   6.328   3.337   8.412  0.8675 -0.3624 -0.5128
 4263TIP3   OH236983   4.324   0.690   7.102 -0.2877  0.0563  0.1167
 4263TIP3    H136984   4.281   0.771   7.130 -1.3621 -0.5681  0.3191
 4263TIP3    H236985   4.294   0.676   7.013 -1.2782 -0.8631  0.5646
 4264TIP3   OH236986   0.364   1.802   6.532 -0.4430  0.0739 -0.0009
 4264TIP3    H136987   0.297   1.803   6.601  0.7712 -0.5726  1.2302
 4264TIP3    H236988   0.381   1.894   6.514 -0.4103  0.2683  0.9479
 4265TIP3   OH236989   1.830   5.163   9.271  0.5274  0.3975  0.2294
 4265TIP3    H136990   1.787   5.247   9.290  1.6097  1.0204  0.0383
 4265TIP3    H236991   1.917   5.188   9.240  1.2597 -0.8358  1.1884
 4266TIP3   OH236992   0.241   3.892   8.694 -0.1441  0.2642 -0.2438
 4266TIP3    H136993   0.320   3.848   8.724 -0.0447  0.2356 -0.5382
 4266TIP3    H236994   0.174   3.871   8.759 -0.4441 -1.3822 -1.0292
 4267TIP3   OH236995   5.113   3.607   7.819 -0.0146 -0.4750  0.2422
 4267TIP3    H136996   5.022   3.624   7.843 -0.0868  0.0630 -0.3961
 4267TIP3    H236997   5.163   3.627   7.898 -0.4635 -1.0323  0.6852
 4268TIP3   OH236998   6.991   1.496   8.125 -0.1942  0.0970 -0.8925
 4268TIP3    H136999   7.004   1.545   8.206 -0.2029 -0.8594 -0.3002
 4268TIP3    H237000   6.955   1.412   8.153  1.3375 -0.8974 -1.7163
 4269TIP3   OH237001   7.046   7.135   9.133 -0.3438 -0.2264 -0.0187
 4269TIP3    H137002   7.112   7.194   9.168 -0.9396 -0.4467  1.5369
 4269TIP3    H237003   7.095   7.061   9.099  0.3822  0.9236 -1.5965
 4270TIP3   OH237004   2.997   4.657   9.566  0.3304  0.3275  0.1610
 4270TIP3    H137005   2.911   4.688   9.538  0.7607  0.5471 -0.9541
 4270TIP3    H237006   3.020   4.713   9.640  0.5904  1.9538 -1.0965
 4271TIP3   OH237007   4.673   5.385   7.630  0.0498  0.4553 -0.0678
 4271TIP3    H137008   4.691   5.293   7.648  2.0675  0.4857 -1.5914
 4271TIP3    H237009   4.696   5.430   7.711 -1.0487 -0.3693  0.7257
 4272TIP3   OH237010   2.597   4.150   9.253  0.2554 -0.2466  0.3288
 4272TIP3    H137011   2.549   4.224   9.216  1.9027 -0.1954 -1.8712
 4272TIP3    H237012   2.545   4.073   9.229 -0.6982  0.0574  1.3511
 4273TIP3   OH237013   6.182   6.058   7.739 -0.1391 -0.3165 -0.2295
 4273TIP3    H137014   6.170   6.000   7.664 -0.1744 -0.8077  0.1459
 4273TIP3    H237015   6.107   6.117   7.737  0.6687  0.7089 -1.4773
 4274TIP3   OH237016   0.954   5.182   8.900 -0.3150  0.5315 -0.0748
 4274TIP3    H137017   0.993   5.098   8.876  0.4919  0.6513  0.7788
 4274TIP3    H237018   0.862   5.161   8.915 -0.5849  0.2091 -1.9145
 4275TIP3   OH237019   1.625   7.251   9.325 -0.1870  0.7045 -0.2966
 4275TIP3    H137020   1.563   7.246   9.253 -0.7727 -0.0340  0.2509
 4275TIP3    H237021   1.577   7.291   9.397 -0.7985 -1.9384  0.8774
 4276TIP3   OH237022   5.230   0.578   7.786  0.1617 -0.0039 -0.3117
 4276TIP3    H137023   5.200   0.578   7.877  0.4274 -1.4419 -0.2096
 4276TIP3    H237024   5.165   0.631   7.739 -1.3450 -1.2501  0.2954
 4277TIP3   OH237025   1.849   1.715   9.288 -0.2509  0.3228 -0.1706
 4277TIP3    H137026   1.798   1.634   9.290 -1.1529  0.8732 -0.1940
 4277TIP3    H237027   1.941   1.687   9.287 -0.5408 -0.6752  0.6290
 4278TIP3   OH237028   2.779   7.253   8.766 -0.1353  0.8382 -0.2440
 4278TIP3    H137029   2.695   7.294   8.786 -0.1696  0.8799 -0.4694
 4278TIP3    H237030   2.782   7.176   8.822  0.9450  2.3625  1.9468
 4279TIP3   OH237031   6.389   5.339   7.061 -0.5171  0.4059  0.3506
 4279TIP3    H137032   6.333   5.356   6.985 -0.8620 -0.5526  0.3700
 4279TIP3    H237033   6.333   5.287   7.119  0.2718 -0.2536  0.5329
 4280TIP3   OH237034   1.049   3.933   7.837  0.3586  0.6485  0.4354
 4280TIP3    H137035   1.037   4.027   7.821 -1.7610  0.4697  0.6782
 4280TIP3    H237036   1.135   3.913   7.800  1.0911  2.7813  0.8599
 4281TIP3   OH237037   1.582   5.897   7.631  0.5071 -0.8642 -0.7885
 4281TIP3    H137038   1.539   5.836   7.691  0.2951 -0.3082 -0.3655
 4281TIP3    H237039   1.671   5.863   7.622  0.5311 -0.9723 -0.1819
 4282TIP3   OH237040   4.157   6.923   7.152  0.1256  0.3831  0.3382
 4282TIP3    H137041   4.210   6.843   7.150  0.8780  0.8793 -0.0076
 4282TIP3    H237042   4.076   6.896   7.194 -0.0128 -0.7998 -0.6130
 4283TIP3   OH237043   4.752   3.954   8.851 -0.1899  0.5353  0.1112
 4283TIP3    H137044   4.713   3.975   8.936  0.6907  0.5030  0.5386
 4283TIP3    H237045   4.821   4.019   8.840 -0.6333  0.8608 -0.8360
 4284TIP3   OH237046   3.559   1.383   8.277  0.7224 -0.4259  0.2437
 4284TIP3    H137047   3.539   1.366   8.185  0.7903 -0.5994  0.2618
 4284TIP3    H237048   3.596   1.472   8.277 -1.2964  0.4514  0.3867
 4285TIP3   OH237049   1.316   4.747   9.728 -0.4816  0.5415 -0.4875
 4285TIP3    H137050   1.230   4.783   9.703 -1.7369 -0.5676  1.8701
 4285TIP3    H237051   1.318   4.661   9.688 -1.0289  0.0916  0.4219
 4286TIP3   OH237052   6.553   1.253   7.127  0.1730 -0.3104  0.0830
 4286TIP3    H137053   6.596   1.192   7.186  0.5688 -0.5317 -0.4300
 4286TIP3    H237054   6.625   1.306   7.090 -0.0481 -0.2866 -0.3238
 4287TIP3   OH237055   6.252   0.544   7.806 -0.4528 -0.2289 -0.6441
 4287TIP3    H137056   6.256   0.470   7.745 -1.0255 -1.0199  0.2513
 4287TIP3    H237057   6.260   0.504   7.892  1.8882  0.9975 -0.2118
 4288TIP3   OH237058   4.755   4.233   9.500 -0.2074  0.3463 -0.1209
 4288TIP3    H137059   4.751   4.294   9.426  1.3903  1.4632  0.6620
 4288TIP3    H237060   4.693   4.269   9.564 -0.5211  0.1749 -0.3210
 4289TIP3   OH237061   1.521   4.535   8.929  0.2580 -0.1225  0.1382
 4289TIP3    H137062   1.570   4.517   8.849  0.6110  1.5226 -0.0514
 4289TIP3    H237063   1.560   4.616   8.963 -0.6336 -0.1807  1.3640
 4290TIP3   OH237064   4.080   5.654   8.363 -0.2333 -0.2713  0.2161
 4290TIP3    H137065   4.062   5.647   8.456 -1.5665 -0.6898 -0.0487
 4290TIP3    H237066   4.057   5.567   8.328  1.8055 -0.6636 -0.2769
 4291TIP3   OH237067   5.430   1.047   9.017  0.1772 -0.1875 -0.0818
 4291TIP3    H137068   5.438   0.962   8.974  0.1061 -0.3805  0.2792
 4291TIP3    H237069   5.430   1.111   8.945 -1.1136 -0.5706 -0.4468
 4292TIP3   OH237070   1.983   2.124   9.332  0.2772 -0.6132 -0.6483
 4292TIP3    H137071   1.941   2.104   9.416  0.2657 -0.1866 -0.5509
 4292TIP3    H237072   1.934   2.198   9.297  2.0831  1.1799  0.3623
 4293TIP3   OH237073   0.700   5.939   8.835 -0.1818 -0.3846 -0.6256
 4293TIP3    H137074   0.655   5.855   8.826  0.3339 -0.6113 -1.2032
 4293TIP3    H237075   0.787   5.923   8.797 -0.0705  0.3995 -0.7109
 4294TIP3   OH237076   6.119   2.937   7.140  0.2287  0.3274 -0.3606
 4294TIP3    H137077   6.158   2.943   7.053  0.1746  1.1389 -0.3381
 4294TIP3    H237078   6.097   3.027   7.163  0.3103  0.1398  0.5225
 4295TIP3   OH237079   3.247   5.458   9.332  0.3976 -0.1113  0.1352
 4295TIP3    H137080   3.273   5.522   9.265  0.5417 -0.4394 -0.1223
 4295TIP3    H237081   3.229   5.511   9.410  0.3561  0.2598 -0.1253
 4296TIP3   OH237082   7.663   5.814   8.845  0.0471 -0.5855  0.2777
 4296TIP3    H137083   7.758   5.810   8.844  0.2045  1.3324  1.7764
 4296TIP3    H237084   7.639   5.820   8.752  1.5544  1.0401 -0.0605
 4297TIP3   OH237085   4.590   0.252   6.619  0.3340  0.0767  0.2986
 4297TIP3    H137086   4.662   0.189   6.625  0.7551  0.1647 -2.5782
 4297TIP3    H237087   4.631   0.337   6.638  0.2101 -0.2328  2.0799
 4298TIP3   OH237088   3.751   2.923   8.760  0.5739  0.0701  0.2177
 4298TIP3    H137089   3.726   2.886   8.844 -0.0259  0.0966  0.0555
 4298TIP3    H237090   3.686   2.991   8.743  0.0041 -0.6923 -0.7987
 4299TIP3   OH237091   2.805   0.436   7.165 -0.4310  0.1862  0.0599
 4299TIP3    H137092   2.821   0.412   7.073  1.1807  0.7291  0.1808
 4299TIP3    H237093   2.710   0.452   7.169 -0.8796 -1.8935 -1.0068
 4300TIP3   OH237094   2.623   4.850   8.671 -0.0613  0.3814 -0.2165
 4300TIP3    H137095   2.689   4.911   8.638 -0.3382  2.1536  2.2287
 4300TIP3    H237096   2.541   4.898   8.664 -0.6569 -0.6521 -0.4516
 4301TIP3   OH237097   1.354   6.055   8.776  0.2444 -0.5087  0.0368
 4301TIP3    H137098   1.400   6.127   8.733  1.8969 -0.5074  1.6796
 4301TIP3    H237099   1.345   5.988   8.708  0.0041  0.6533 -1.1110
 4302TIP3   OH237100   0.980   3.152   9.399  0.1290  0.3049  0.1781
 4302TIP3    H137101   1.029   3.070   9.390  1.3262  0.9862  0.3511
 4302TIP3    H237102   1.020   3.212   9.337 -1.0235  0.6526 -0.2649
 4303TIP3   OH237103   1.581   7.262   7.168 -0.3000 -0.1683 -0.2231
 4303TIP3    H137104   1.609   7.349   7.197  0.7239 -0.8162  0.8439
 4303TIP3    H237105   1.581   7.267   7.073 -3.5373  1.9812 -0.2728
 4304TIP3   OH237106   2.800   6.397   8.627 -0.5260 -0.2879 -0.0823
 4304TIP3    H137107   2.741   6.446   8.685 -0.2360  0.9806 -0.8244
 4304TIP3    H237108   2.885   6.401   8.670 -0.7423 -1.2608  0.4842
 4305TIP3   OH237109   5.274   3.092   7.343 -0.5416  0.0217  0.4548
 4305TIP3    H137110   5.278   3.188   7.336 -0.4356 -0.0418 -0.5517
 4305TIP3    H237111   5.183   3.070   7.320 -0.1030 -0.2257 -1.2195
 4306TIP3   OH237112   1.739   6.644   8.488  0.0377  0.0749  0.4854
 4306TIP3    H137113   1.716   6.669   8.577  1.9165  0.2647  0.9568
 4306TIP3    H237114   1.782   6.721   8.451 -1.2025  0.2060 -0.8298
 4307TIP3   OH237115   6.654   6.059   8.027  0.4298  0.0411 -0.3656
 4307TIP3    H137116   6.614   5.985   7.982 -0.2005  0.5583 -0.6826
 4307TIP3    H237117   6.746   6.034   8.039  0.3640 -0.5301 -1.0110
 4308TIP3   OH237118   1.174   6.782   8.489  0.1345  0.6059  0.0358
 4308TIP3    H137119   1.138   6.806   8.404 -0.1531 -1.2855 -0.4280
 4308TIP3    H237120   1.152   6.855   8.546 -0.9134  1.2839 -1.1853
 4309TIP3   OH237121   6.692   1.966   8.695 -0.0325  0.4059  0.1308
 4309TIP3    H137122   6.605   1.999   8.671  0.2554  1.0640 -0.0458
 4309TIP3    H237123   6.749   2.043   8.688  0.5512 -0.0052  0.3092
 4310TIP3   OH237124   0.427   6.620   8.711  0.3900 -0.0404  0.2898
 4310TIP3    H137125   0.349   6.600   8.660  1.4427 -1.9012 -0.6827
 4310TIP3    H237126   0.429   6.553   8.779  1.4939 -0.4389 -0.1214
 4311TIP3   OH237127   4.881   5.129   8.470  0.3981 -0.1263 -0.7303
 4311TIP3    H137128   4.915   5.083   8.547 -2.1091  0.4705  0.8606
 4311TIP3    H237129   4.888   5.066   8.399  2.4699 -0.8188  0.0224
 4312TIP3   OH237130   3.478   4.348   9.555  0.3621 -0.2008  0.1509
 4312TIP3    H137131   3.399   4.359   9.609  0.9677 -0.9006  1.2112
 4312TIP3    H237132   3.471   4.259   9.521  1.3203 -0.7421  1.3152
 4313TIP3   OH237133   0.231   5.548   7.277 -0.4676 -0.6934  0.2051
 4313TIP3    H137134   0.208   5.641   7.268 -0.6013 -0.7913 -0.5146
 4313TIP3    H237135   0.306   5.548   7.335  0.3178 -0.0216 -0.7745
 4314TIP3   OH237136   3.611   0.465   7.660 -0.0523 -0.8338 -0.4325
 4314TIP3    H137137   3.602   0.477   7.565 -2.3778 -2.3714 -0.4949
 4314TIP3    H237138   3.665   0.386   7.668 -1.4745 -1.8496 -0.5689
 4315TIP3   OH237139   2.163   6.111   7.936 -0.2603 -0.1110  0.0221
 4315TIP3    H137140   2.244   6.092   7.889  1.0589  3.1294  0.7528
 4315TIP3    H237141   2.138   6.027   7.975  2.0290 -1.4971 -1.2652
 4316TIP3   OH237142   5.652   0.757   8.310 -0.4122 -0.2967  0.0561
 4316TIP3    H137143   5.730   0.809   8.331 -1.1178  0.0984  1.9118
 4316TIP3    H237144   5.680   0.666   8.322  0.2651 -0.2651 -1.1760
 4317TIP3   OH237145   3.589   1.931   8.478 -0.3717 -0.2174  0.0638
 4317TIP3    H137146   3.520   1.933   8.545 -1.5836  0.7816 -1.1321
 4317TIP3    H237147   3.619   2.022   8.471  1.8015 -0.7847  1.2242
 4318TIP3   OH237148   5.197   2.081   7.365  0.6078  0.3216 -0.2366
 4318TIP3    H137149   5.241   2.029   7.298 -2.3774  0.8455 -2.8391
 4318TIP3    H237150   5.128   2.024   7.399  0.4092  0.9585  0.4505
 4319TIP3   OH237151   4.980   6.451   8.916 -0.0554  0.2453  0.1138
 4319TIP3    H137152   5.005   6.380   8.975 -0.1085 -0.4503 -0.6967
 4319TIP3    H237153   5.058   6.506   8.911  0.4530 -0.4952 -0.3229
 4320TIP3   OH237154   0.839   1.363   7.975 -0.3948 -0.1421 -0.0681
 4320TIP3    H137155   0.895   1.427   8.019  0.0852 -0.5053 -0.1438
 4320TIP3    H237156   0.897   1.289   7.956 -0.7612 -0.2847 -0.6723
 4321TIP3   OH237157   3.265   4.979   7.332  0.1228 -0.4292 -0.1941
 4321TIP3    H137158   3.198   5.006   7.395  0.4597  0.9555 -0.3934
 4321TIP3    H237159   3.221   4.915   7.276 -1.3360  1.1410 -0.9010
 4322TIP3   OH237160   0.861   1.068   7.581 -0.0406  0.5035 -0.2725
 4322TIP3    H137161   0.766   1.055   7.590  0.2037 -0.0039  3.0072
 4322TIP3    H237162   0.896   0.979   7.572  0.1647  0.7159 -1.9682
 4323TIP3   OH237163   3.155   6.440   9.649  0.2597  0.1857  0.1455
 4323TIP3    H137164   3.136   6.525   9.687 -0.3416 -0.2503  0.8348
 4323TIP3    H237165   3.070   6.399   9.636  0.4640  0.1597 -1.3184
 4324TIP3   OH237166   3.370   3.814   9.368 -0.1214  0.7446 -0.0103
 4324TIP3    H137167   3.302   3.816   9.301 -1.1007 -0.5469  0.8758
 4324TIP3    H237168   3.346   3.740   9.424  1.5659  0.7745  0.8242
 4325TIP3   OH237169   6.858   1.423   8.455 -0.1284  0.2519  0.3882
 4325TIP3    H137170   6.890   1.494   8.511  1.5195 -1.5993  1.9464
 4325TIP3    H237171   6.765   1.414   8.477 -0.5461  2.2991 -0.3389
 4326TIP3   OH237172   3.390   6.816   9.831  0.3787  0.7455 -0.2176
 4326TIP3    H137173   3.391   6.809   9.926  0.8723  0.5423 -0.2358
 4326TIP3    H237174   3.474   6.780   9.803  0.0495  0.3823 -0.7582
 4327TIP3   OH237175   3.492   5.159   7.050 -0.2337  0.4125  0.1388
 4327TIP3    H137176   3.421   5.095   7.042  0.6935 -0.8169  1.2909
 4327TIP3    H237177   3.450   5.237   7.087 -1.2168  0.1576 -0.4189
 4328TIP3   OH237178   0.245   3.861   8.227  0.0504  0.4286 -0.0751
 4328TIP3    H137179   0.229   3.905   8.311  1.2490 -0.0527  0.4418
 4328TIP3    H237180   0.315   3.798   8.246 -1.4439 -1.5899 -0.8313
 4329TIP3   OH237181   4.239   0.489   7.546 -0.4289  0.1005  0.1171
 4329TIP3    H137182   4.195   0.424   7.601  1.0141 -0.0042  1.1958
 4329TIP3    H237183   4.209   0.468   7.457 -1.1933 -1.0583  0.6183
 4330TIP3   OH237184   0.238   6.105   7.373 -0.1282  0.1324 -0.0835
 4330TIP3    H137185   0.323   6.071   7.401  1.0625  2.3790 -0.7436
 4330TIP3    H237186   0.216   6.172   7.438 -1.0630  0.0704 -0.3200
 4331TIP3   OH237187   7.472   6.585   8.227  0.3610 -0.2636  0.4133
 4331TIP3    H137188   7.421   6.504   8.224 -0.9020  0.5056 -0.0489
 4331TIP3    H237189   7.470   6.611   8.319  0.0245 -0.3276  0.4279
 4332TIP3   OH237190   6.375   0.672   8.575  0.2070  0.2603  0.2571
 4332TIP3    H137191   6.442   0.606   8.593 -0.6179 -0.4103  0.9536
 4332TIP3    H237192   6.408   0.721   8.500  3.0969  2.1626  2.5393
 4333TIP3   OH237193   0.963   5.614   8.663 -0.2524  0.1897 -0.2776
 4333TIP3    H137194   0.930   5.561   8.735 -4.1533 -1.5868 -3.0102
 4333TIP3    H237195   0.909   5.692   8.663 -1.0045 -0.2870 -1.7446
 4334TIP3   OH237196   7.636   6.681   9.067 -0.3422  0.1117  0.4720
 4334TIP3    H137197   7.572   6.675   8.996 -0.8463 -1.2662  1.0026
 4334TIP3    H237198   7.594   6.638   9.141  1.1590 -0.8286  0.8377
 4335TIP3   OH237199   0.497   0.685   7.529  0.1010  0.2853  0.3503
 4335TIP3    H137200   0.453   0.761   7.567 -0.3622 -0.5502  1.5241
 4335TIP3    H237201   0.464   0.681   7.439 -0.3063  1.1279  0.4541
 4336TIP3   OH237202   1.224   6.094   7.086 -0.0588  0.1753 -0.0561
 4336TIP3    H137203   1.261   6.060   7.168  0.6132 -0.2743 -0.5338
 4336TIP3    H237204   1.243   6.187   7.087  1.6191 -0.1408 -0.5536
 4337TIP3   OH237205   3.132   2.785   8.444  0.2211  0.1233 -0.2253
 4337TIP3    H137206   3.116   2.719   8.512  0.5904 -0.2442 -0.4829
 4337TIP3    H237207   3.209   2.753   8.398  0.0365  0.4196 -0.7538
 4338TIP3   OH237208   2.236   5.065   9.780  0.2747  0.9813  0.2686
 4338TIP3    H137209   2.153   5.032   9.746  0.5584  0.5049  0.0234
 4338TIP3    H237210   2.246   5.022   9.865  1.9519 -1.8509 -1.1728
 4339TIP3   OH237211   5.735   0.238   8.253  0.0241  0.3297 -0.0592
 4339TIP3    H137212   5.741   0.256   8.347  2.6291  0.9337 -0.2822
 4339TIP3    H237213   5.708   0.321   8.214  0.9200  0.6392 -0.0268
 4340TIP3   OH237214   2.717   4.336   7.530  0.2715 -0.2608 -0.5694
 4340TIP3    H137215   2.652   4.405   7.524  1.6936  1.2135  0.1217
 4340TIP3    H237216   2.719   4.296   7.443 -2.5510 -1.3712 -0.2241
 4341TIP3   OH237217   0.127   7.208   8.487  0.1769 -0.0607  0.0400
 4341TIP3    H137218   0.198   7.144   8.495  1.2035  0.8919 -1.1180
 4341TIP3    H237219   0.153   7.280   8.546  0.2341  0.3306 -0.4531
 4342TIP3   OH237220   2.821   5.059   8.615 -0.1709 -0.5918 -0.0591
 4342TIP3    H137221   2.828   5.074   8.521  0.7548 -0.2948  0.0370
 4342TIP3    H237222   2.744   5.109   8.643  0.3485  0.4671 -0.4508
 4343TIP3   OH237223   6.992   3.299   9.045 -0.5686  0.1890  0.0460
 4343TIP3    H137224   7.067   3.358   9.044 -0.4277  0.0607 -2.2807
 4343TIP3    H237225   7.029   3.214   9.069 -0.4029  0.5869  1.2550
 4344TIP3   OH237226   4.102   3.337   8.654 -0.4432 -0.2115  0.2422
 4344TIP3    H137227   4.043   3.270   8.618 -0.4884 -0.3265  0.5316
 4344TIP3    H237228   4.190   3.299   8.645 -0.5668 -0.8412  1.5546
 4345TIP3   OH237229   3.677   2.512   8.488 -0.6182  0.7887  0.2384
 4345TIP3    H137230   3.716   2.456   8.421  0.7080  0.0595  1.5626
 4345TIP3    H237231   3.745   2.577   8.509  0.0736 -0.5862  2.6860
 4346TIP3   OH237232   5.132   5.375   7.939  0.7220 -0.1624 -0.1958
 4346TIP3    H137233   5.128   5.453   7.995  0.7868 -1.1605  1.2620
 4346TIP3    H237234   5.193   5.398   7.869  0.4025  1.2401 -0.0334
 4347TIP3   OH237235   2.660   3.805   8.795  0.4717 -0.2764 -0.4771
 4347TIP3    H137236   2.656   3.898   8.773  1.1151  0.0079  0.5527
 4347TIP3    H237237   2.745   3.794   8.838 -0.3581 -0.9534  1.0937
 4348TIP3   OH237238   0.522   3.721   7.258 -0.0783  0.2720 -0.0552
 4348TIP3    H137239   0.432   3.742   7.233 -0.3563 -0.7326  0.0700
 4348TIP3    H237240   0.563   3.689   7.178 -0.2374 -0.5511  0.1775
 4349TIP3   OH237241   0.725   2.666   8.145 -0.2143 -0.3188  0.2745
 4349TIP3    H137242   0.790   2.725   8.182 -0.6905  0.3489  0.0834
 4349TIP3    H237243   0.773   2.613   8.081 -0.0883  1.0973 -0.8566
 4350TIP3   OH237244   1.424   6.827   7.520  0.2403  0.2543 -0.1609
 4350TIP3    H137245   1.441   6.892   7.452  4.6403 -0.4819 -0.0641
 4350TIP3    H237246   1.489   6.846   7.588 -2.5099 -0.4431  2.8960
 4351TIP3   OH237247   2.185   3.267   7.176 -0.4241  0.0901 -0.4299
 4351TIP3    H137248   2.190   3.195   7.239 -3.4646 -2.2203 -2.5407
 4351TIP3    H237249   2.273   3.272   7.139  0.1542 -1.8936  0.5010
 4352TIP3   OH237250   0.237   1.518   7.393 -0.0030  0.0814 -0.0528
 4352TIP3    H137251   0.184   1.450   7.434 -1.3215  0.7209 -0.6318
 4352TIP3    H237252   0.189   1.542   7.313  1.2835  0.5216 -0.7348
 4353TIP3   OH237253   3.011   0.802   8.794 -0.1623  0.3369 -0.1361
 4353TIP3    H137254   3.007   0.827   8.887  0.4569 -1.4908  0.4335
 4353TIP3    H237255   3.021   0.706   8.796 -0.7559  0.1983 -2.1139
 4354TIP3   OH237256   5.400   2.982   7.582 -0.2004 -0.1849  0.0465
 4354TIP3    H137257   5.346   3.016   7.510  0.9812 -0.2913 -0.9054
 4354TIP3    H237258   5.375   2.890   7.589  0.8852 -0.6157 -1.3823
 4355TIP3   OH237259   4.379   4.213   9.118 -0.2120  0.0399  0.6481
 4355TIP3    H137260   4.433   4.240   9.193 -1.5706  0.8109  1.3866
 4355TIP3    H237261   4.312   4.156   9.156 -0.0800 -0.7016 -0.2107
 4356TIP3   OH237262   0.438   0.716   8.178  0.0418 -0.5227 -0.3254
 4356TIP3    H137263   0.394   0.782   8.123 -0.5611 -0.6481  0.0008
 4356TIP3    H237264   0.504   0.677   8.120 -2.2278 -2.4153 -1.7924
 4357TIP3   OH237265   4.966   2.873   8.014 -0.1134 -0.4329  0.2808
 4357TIP3    H137266   5.008   2.798   7.972  2.4184  2.1886 -2.3434
 4357TIP3    H237267   5.023   2.947   7.994 -3.5823  2.6665  0.6337
 4358TIP3   OH237268   4.256   2.662   7.887 -0.0158  0.1210 -0.2115
 4358TIP3    H137269   4.237   2.745   7.844 -3.0098  1.4450  3.1767
 4358TIP3    H237270   4.350   2.664   7.904  0.0780  2.5328 -0.7788
 4359TIP3   OH237271   6.389   2.146   7.433  0.4402 -0.0982  0.0084
 4359TIP3    H137272   6.438   2.109   7.359  0.0270 -0.5123 -0.0592
 4359TIP3    H237273   6.347   2.224   7.397  1.7841  0.7976  0.2981
 4360TIP3   OH237274   4.508   2.471   9.312  0.1525 -0.1750 -0.3249
 4360TIP3    H137275   4.529   2.378   9.310 -0.8945 -0.4916  1.4818
 4360TIP3    H237276   4.420   2.477   9.274 -0.9115 -0.3309  1.9685
 4361TIP3   OH237277   2.677   5.002   8.096  0.2203  0.3574 -0.5994
 4361TIP3    H137278   2.738   5.070   8.123  1.5334 -0.6718 -0.9030
 4361TIP3    H237279   2.655   4.956   8.176  1.0055 -0.1863 -0.6842
 4362TIP3   OH237280   4.110   2.888   8.756  0.1209 -0.3748 -0.0533
 4362TIP3    H137281   4.072   2.934   8.681  0.3005 -0.2885 -0.0942
 4362TIP3    H237282   4.107   2.795   8.731  1.5758 -0.2455 -0.8409
 4363TIP3   OH237283   3.253   5.052   8.525 -0.1089 -0.1950  1.1578
 4363TIP3    H137284   3.246   5.028   8.618 -0.4516  1.5079  1.6202
 4363TIP3    H237285   3.304   4.982   8.486  1.4251 -0.1867  2.9734
 4364TIP3   OH237286   6.682   2.930   7.222  0.1616 -0.1305 -0.2724
 4364TIP3    H137287   6.630   2.963   7.295  0.5707 -0.6318  0.2492
 4364TIP3    H237288   6.695   2.838   7.241  1.8711  0.1328 -0.0095
 4365TIP3   OH237289   7.290   2.366   8.592  0.3263  0.2734  0.4032
 4365TIP3    H137290   7.210   2.315   8.577  0.3182  0.0771  1.1207
 4365TIP3    H237291   7.301   2.416   8.511 -1.0235  0.9875  0.6240
 4366TIP3   OH237292   2.600   7.455   7.990 -0.5635  0.2907  0.2284
 4366TIP3    H137293   2.658   7.381   8.009  0.4550  1.2203  0.9147
 4366TIP3    H237294   2.641   7.499   7.915  0.0304  1.3234  1.1205
 4367TIP3   OH237295   4.774   2.274   8.133 -0.3489 -0.3136 -0.1356
 4367TIP3    H137296   4.723   2.194   8.132 -0.5931 -0.2261  2.0443
 4367TIP3    H237297   4.802   2.285   8.224 -1.5584  2.8275 -0.0133
 4368TIP3   OH237298   2.049   1.959   7.958  0.4032  0.2591  0.1083
 4368TIP3    H137299   2.071   2.051   7.973 -0.7353  0.4978  0.4498
 4368TIP3    H237300   1.971   1.945   8.012  0.0827 -0.6799 -0.5826
 4369TIP3   OH237301   4.202   7.466   6.522 -0.0114 -0.1133 -0.1109
 4369TIP3    H137302   4.239   7.534   6.466  1.9956 -1.1145 -0.0666
 4369TIP3    H237303   4.270   7.399   6.527 -1.6548 -1.8264  0.3947
 4370TIP3   OH237304   1.449   4.357   8.373 -0.4878  0.2902  0.0659
 4370TIP3    H137305   1.544   4.361   8.385 -0.4174  1.8142 -0.7515
 4370TIP3    H237306   1.416   4.436   8.416 -1.3987 -0.2738  0.4191
 4371TIP3   OH237307   4.886   0.626   9.233  1.0745  0.4260  0.8385
 4371TIP3    H137308   4.873   0.698   9.295  0.1116 -0.4596  1.6963
 4371TIP3    H237309   4.974   0.593   9.252  1.1984  0.8400  0.9987
 4372TIP3   OH237310   2.441   6.139   7.519 -0.0486  0.6568 -0.2761
 4372TIP3    H137311   2.507   6.087   7.473 -0.1473  0.6261 -0.3828
 4372TIP3    H237312   2.427   6.215   7.462  0.2381  0.8999 -0.0281
 4373TIP3   OH237313   3.926   2.870   7.996  0.6330  0.6009 -0.4691
 4373TIP3    H137314   3.930   2.824   7.913  0.4036 -0.4203  0.0622
 4373TIP3    H237315   3.865   2.942   7.981  1.2042  0.8932 -1.3932
 4374TIP3   OH237316   2.755   6.322   9.091  0.9470  0.0797 -0.0767
 4374TIP3    H137317   2.848   6.340   9.076  1.2389 -0.5839  0.7902
 4374TIP3    H237318   2.754   6.233   9.127 -0.1597 -0.4959 -1.4436
 4375TIP3   OH237319   0.135   0.799   7.508 -0.4633 -0.5761 -0.3159
 4375TIP3    H137320   0.077   0.793   7.432  0.8836 -1.3607 -1.3233
 4375TIP3    H237321   0.145   0.708   7.537 -0.9668 -0.2809  0.8328
 4376TIP3   OH237322   4.170   0.262   8.547  0.0856  0.3496 -0.1660
 4376TIP3    H137323   4.215   0.335   8.589 -1.3036 -0.0369  2.1576
 4376TIP3    H237324   4.241   0.204   8.517  1.1628  1.3506  0.3828
 4377TIP3   OH237325   3.110   0.486   7.213 -0.1819 -0.1931  0.6306
 4377TIP3    H137326   3.103   0.561   7.155  0.0967  1.0701  2.1715
 4377TIP3    H237327   3.020   0.468   7.241 -0.2855 -0.6466  0.0291
 4378TIP3   OH237328   0.788   4.419   7.523  0.2955 -0.2865 -0.1841
 4378TIP3    H137329   0.742   4.481   7.467  0.3766  0.3072  0.3875
 4378TIP3    H237330   0.776   4.334   7.481  0.1567  0.1148 -0.9588
 4379TIP3   OH237331   7.662   1.194   6.789 -0.1329 -0.3253 -0.0762
 4379TIP3    H137332   7.576   1.219   6.755  0.7504  2.0652 -0.7450
 4379TIP3    H237333   7.683   1.261   6.854  1.0094 -1.1805  0.4736
 4380TIP3   OH237334   6.680   1.255   9.368 -0.0132 -0.3037 -0.0296
 4380TIP3    H137335   6.749   1.290   9.312  0.0359 -0.5310 -0.1106
 4380TIP3    H237336   6.636   1.333   9.403  1.1650 -0.1133  1.1344
 4381TIP3   OH237337   4.305   7.339   8.195  0.0390 -0.0761  0.2188
 4381TIP3    H137338   4.376   7.323   8.133  0.2343  1.0703  0.1195
 4381TIP3    H237339   4.225   7.330   8.143  0.1234 -0.9588  0.2362
 4382TIP3   OH237340   1.523   3.397   8.656 -0.3329  0.3501  0.0445
 4382TIP3    H137341   1.500   3.319   8.605  1.3393  0.7039 -1.3651
 4382TIP3    H237342   1.509   3.470   8.595 -0.2454  0.9803  0.7714
 4383TIP3   OH237343   7.002   5.181   7.745  0.1139  0.1137  0.6617
 4383TIP3    H137344   7.052   5.258   7.717 -0.3912  0.2492  0.0942
 4383TIP3    H237345   7.043   5.153   7.826  1.9204 -0.5402 -0.4265
 4384TIP3   OH237346   3.949   2.576   9.247  0.5752 -0.5858  0.1413
 4384TIP3    H137347   3.972   2.668   9.263  0.1364 -0.4800  0.1764
 4384TIP3    H237348   3.880   2.580   9.180 -2.0297 -0.6645  2.6246
 4385TIP3   OH237349   0.782   0.219   8.356 -0.1169 -0.4708  0.4472
 4385TIP3    H137350   0.761   0.171   8.275 -0.3497  1.0571 -0.4345
 4385TIP3    H237351   0.840   0.160   8.404  2.2585 -0.4136 -2.0605
 4386TIP3   OH237352   4.167   1.691   8.762 -0.4681  0.6122 -0.1763
 4386TIP3    H137353   4.211   1.713   8.844  0.3884  1.4411 -0.8484
 4386TIP3    H237354   4.108   1.619   8.786  0.2591  0.3836  1.0176
 4387TIP3   OH237355   3.963   0.146   8.810  0.4031 -0.4013  0.2827
 4387TIP3    H137356   3.972   0.128   8.716 -1.0207 -2.4231  0.4822
 4387TIP3    H237357   3.873   0.176   8.820  0.4134 -0.6408  1.0816
 4388TIP3   OH237358   1.863   0.506   8.604  0.2941  0.3057  0.4126
 4388TIP3    H137359   1.912   0.466   8.532 -0.9126 -1.3863  0.4659
 4388TIP3    H237360   1.867   0.600   8.587  0.0662 -0.0412 -1.8668
 4389TIP3   OH237361   4.667   6.192   9.583 -0.1641 -0.4103  0.2171
 4389TIP3    H137362   4.754   6.160   9.609  0.0414 -0.6021 -0.6868
 4389TIP3    H237363   4.678   6.222   9.493 -0.6885  0.9766  0.5941
 4390TIP3   OH237364   5.189   2.511   8.403  0.4739 -0.0555 -0.1161
 4390TIP3    H137365   5.262   2.543   8.350  1.4400 -0.8446  0.6919
 4390TIP3    H237366   5.122   2.579   8.396  0.8600  0.2079 -1.7183
 4391TIP3   OH237367   2.957   4.745   8.290 -0.4085 -0.1614  0.2500
 4391TIP3    H137368   2.921   4.717   8.374 -1.3325  2.1630  0.6901
 4391TIP3    H237369   2.884   4.736   8.229 -0.4545  0.4156  0.2158
 4392TIP3   OH237370   3.779   6.438   8.137  0.2272  0.4839  0.0076
 4392TIP3    H137371   3.724   6.449   8.059  0.2099  0.5310  0.0262
 4392TIP3    H237372   3.727   6.475   8.208 -0.0672 -0.2317  0.1693
 4393TIP3   OH237373   5.660   6.166   8.118  0.1745  0.0010  0.0534
 4393TIP3    H137374   5.646   6.153   8.025  1.1518 -0.9322  0.0141
 4393TIP3    H237375   5.743   6.213   8.124 -0.4155  1.0225  0.4255
 4394TIP3   OH237376   3.895   4.838   7.683  0.0414 -0.0458  0.7691
 4394TIP3    H137377   3.979   4.878   7.707  1.0581 -1.3470 -0.4351
 4394TIP3    H237378   3.831   4.908   7.692  1.5040  1.4237  0.2013
 4395TIP3   OH237379   5.490   3.342   8.513 -0.0822  0.3356 -0.1355
 4395TIP3    H137380   5.537   3.325   8.432 -1.7312 -0.1946 -1.0201
 4395TIP3    H237381   5.503   3.436   8.529 -1.0710  0.8392 -1.9398
 4396TIP3   OH237382   6.520   6.414   7.799  0.3687  0.0967  0.4506
 4396TIP3    H137383   6.519   6.413   7.703  0.5900 -1.9048  0.4214
 4396TIP3    H237384   6.558   6.499   7.822 -0.7971  1.1215 -1.1937
 4397TIP3   OH237385   7.377   4.984   8.210  0.0959 -0.0313 -0.3911
 4397TIP3    H137386   7.466   5.017   8.225 -0.5082  0.4586  2.8678
 4397TIP3    H237387   7.321   5.061   8.218 -0.8556 -0.8278  0.9995
 4398TIP3   OH237388   6.612   5.838   8.229  0.0507  1.0558 -0.1061
 4398TIP3    H137389   6.518   5.824   8.237  0.2875  0.2230  1.6792
 4398TIP3    H237390   6.623   5.933   8.235 -0.7125  1.2427 -1.2526
 4399TIP3   OH237391   4.397   2.622   8.315 -0.0327  0.1314 -0.4060
 4399TIP3    H137392   4.454   2.606   8.240 -0.6510  0.6056 -0.9911
 4399TIP3    H237393   4.455   2.657   8.382  0.5259 -0.2924 -0.6621
 4400TIP3   OH237394   3.838   4.988   8.926  1.2849 -0.4174  0.3257
 4400TIP3    H137395   3.813   5.075   8.894 -0.4978 -0.8660  0.4054
 4400TIP3    H237396   3.868   5.004   9.016  1.1372  0.1409  0.2818
 4401TIP3   OH237397   4.467   4.682   8.335  0.0764  0.0557 -0.0563
 4401TIP3    H137398   4.471   4.778   8.340 -0.6390  0.0985 -0.1575
 4401TIP3    H237399   4.391   4.664   8.279  0.4388 -0.5686 -0.3581
 4402TIP3   OH237400   0.995   5.740   9.102 -0.1122  0.0518 -0.0627
 4402TIP3    H137401   1.073   5.734   9.156 -0.9907  1.5243  1.4736
 4402TIP3    H237402   0.926   5.701   9.154 -0.6720  0.0027 -0.8203
 4403TIP3   OH237403   7.563   0.055   7.460 -0.2810  0.0495  0.0086
 4403TIP3    H137404   7.579   0.102   7.542 -0.1369 -0.1789  0.1104
 4403TIP3    H237405   7.647   0.015   7.438  0.5329  2.4924 -1.7895
 4404TIP3   OH237406   3.187   7.112   7.587  0.1872 -0.1784  0.2001
 4404TIP3    H137407   3.233   7.183   7.542 -1.0716  0.1957 -0.5458
 4404TIP3    H237408   3.096   7.121   7.558 -0.2700 -1.1725  1.2854
 4405TIP3   OH237409   4.602   4.693   9.529  0.5124  0.2505 -0.3490
 4405TIP3    H137410   4.687   4.678   9.488  1.0137  2.5930 -0.3085
 4405TIP3    H237411   4.621   4.706   9.621  0.2177  1.3586 -0.4247
 4406TIP3   OH237412   5.313   7.464   8.591  0.0562  0.3147 -0.2586
 4406TIP3    H137413   5.255   7.516   8.648 -2.4484  0.3494 -2.6290
 4406TIP3    H237414   5.282   7.374   8.600 -0.4882  0.3456 -1.6417
 4407TIP3   OH237415   6.792   3.475   8.693 -0.5755  0.1454  0.0666
 4407TIP3    H137416   6.846   3.408   8.735 -2.5139 -0.4701  1.7467
 4407TIP3    H237417   6.741   3.427   8.627 -0.7041  0.2857  0.0631
 4408TIP3   OH237418   5.226   4.210   9.155 -0.3754 -0.3915 -0.3145
 4408TIP3    H137419   5.313   4.241   9.133  0.2991 -1.9490  0.0428
 4408TIP3    H237420   5.189   4.278   9.212  0.4596  0.4339 -0.7420
 4409TIP3   OH237421   7.642   1.516   8.285 -0.0165 -0.2367  0.8019
 4409TIP3    H137422   7.594   1.596   8.259  0.5153 -0.2857 -0.4242
 4409TIP3    H237423   7.697   1.544   8.358  0.7192  0.7347 -0.0885
 4410TIP3   OH237424   7.643   6.316   8.867  0.6706  0.0965 -0.7374
 4410TIP3    H137425   7.736   6.322   8.845  0.3289 -1.0466 -2.7312
 4410TIP3    H237426   7.632   6.227   8.900  0.7979  1.1801  2.7135
 4411TIP3   OH237427   5.312   7.104   8.910  0.1940 -0.1948  0.0094
 4411TIP3    H137428   5.352   7.185   8.879  0.5925  0.0765  1.1744
 4411TIP3    H237429   5.255   7.077   8.838 -0.9956  1.8441  0.0847
 4412TIP3   OH237430   5.911   1.427   9.438  0.6530  0.0404  0.3695
 4412TIP3    H137431   5.999   1.393   9.450  0.6391  0.0633  0.5395
 4412TIP3    H237432   5.870   1.367   9.376  0.4896 -0.4945  0.9872
 4413TIP3   OH237433   1.504   2.420   8.596  0.3671 -0.8915  0.4832
 4413TIP3    H137434   1.597   2.406   8.614  1.2832  1.3617 -1.7886
 4413TIP3    H237435   1.499   2.418   8.500 -1.5729  0.8917  0.4976
 4414TIP3   OH237436   7.239   7.002   7.365  0.1144 -0.0978  0.2278
 4414TIP3    H137437   7.322   6.954   7.361 -0.9431 -1.9587 -0.3450
 4414TIP3    H237438   7.223   7.029   7.275 -0.4494 -0.7389  0.1312
 4415TIP3   OH237439   5.008   6.015   7.491 -0.0418  0.0058 -0.3849
 4415TIP3    H137440   5.063   6.093   7.499  0.5705 -0.4868  0.2265
 4415TIP3    H237441   5.011   5.993   7.398  2.1912 -1.0092 -0.1186
 4416TIP3   OH237442   3.794   4.617   8.956 -0.4119 -0.1654  0.5813
 4416TIP3    H137443   3.762   4.542   9.006 -0.1786 -1.2801 -0.8690
 4416TIP3    H237444   3.739   4.690   8.984 -1.6530 -1.2102  0.9416
 4417TIP3   OH237445   4.861   2.092   7.730 -0.6625 -0.1663 -0.0915
 4417TIP3    H137446   4.869   2.178   7.690  1.9928 -0.5928 -0.6272
 4417TIP3    H237447   4.892   2.103   7.820 -1.3793 -0.3653  0.1942
 4418TIP3   OH237448   4.789   1.715   6.854 -0.4719  0.0157 -0.2506
 4418TIP3    H137449   4.820   1.671   6.775  1.9496  0.1739  0.5317
 4418TIP3    H237450   4.754   1.644   6.909 -0.3913 -0.3516 -0.6668
 4419TIP3   OH237451   2.358   5.327   9.498  0.1030  0.0210 -0.0252
 4419TIP3    H137452   2.281   5.374   9.466 -0.2430  0.5199  1.4647
 4419TIP3    H237453   2.392   5.381   9.569  0.9982 -0.9047  0.2888
 4420TIP3   OH237454   6.523   5.730   8.624  0.0293 -0.4586  0.2371
 4420TIP3    H137455   6.547   5.781   8.702  0.5245  0.3503 -0.4348
 4420TIP3    H237456   6.455   5.782   8.581  0.1859 -0.6048 -0.1880
 4421TIP3   OH237457   6.178   7.217   7.457  0.2865  0.6763 -0.1939
 4421TIP3    H137458   6.255   7.203   7.403 -0.9097  0.2265 -1.8950
 4421TIP3    H237459   6.134   7.293   7.419 -1.5862 -0.7915 -1.1856
 4422TIP3   OH237460   6.644   4.398   7.612  0.0790  0.1622 -0.5497
 4422TIP3    H137461   6.668   4.419   7.521 -0.1804 -0.2467 -0.7146
 4422TIP3    H237462   6.550   4.416   7.616  0.0215 -0.1651 -0.4579
 4423TIP3   OH237463   5.845   2.020   6.703 -0.3579  0.1616 -0.2766
 4423TIP3    H137464   5.847   2.116   6.705  0.0465  0.1504  0.0706
 4423TIP3    H237465   5.935   1.994   6.722 -0.7454 -0.3001  1.0650
 4424TIP3   OH237466   5.630   3.882   8.101  0.1950  0.9271 -0.5030
 4424TIP3    H137467   5.646   3.788   8.091  0.9950  1.0978 -0.8488
 4424TIP3    H237468   5.554   3.899   8.044  0.3356  0.5756 -0.8034
 4425TIP3   OH237469   4.996   5.199   7.723 -0.0980  0.1115 -0.4080
 4425TIP3    H137470   4.986   5.295   7.724  0.5477  0.1851 -0.5707
 4425TIP3    H237471   4.906   5.166   7.717 -0.2918  0.7249 -1.2042
 4426TIP3   OH237472   6.549   7.501   7.835  0.2302 -0.4659 -0.3849
 4426TIP3    H137473   6.531   7.552   7.756  1.6249  1.1463  0.2483
 4426TIP3    H237474   6.465   7.495   7.880 -0.1559  0.5156 -0.9430
 4427TIP3   OH237475   7.007   0.344   7.686 -0.0315  0.0615  0.4460
 4427TIP3    H137476   7.074   0.366   7.621  0.1126  1.1013  0.9381
 4427TIP3    H237477   6.976   0.257   7.660  1.5908 -0.4975  0.2626
 4428TIP3   OH237478   0.058   2.593   9.385  0.0246 -0.2815  0.3458
 4428TIP3    H137479   0.105   2.677   9.381  3.1486 -1.9215 -0.0703
 4428TIP3    H237480   0.117   2.531   9.342 -2.0517 -2.7808  0.9222
 4429TIP3   OH237481   7.236   3.457   8.481  0.0108 -0.4411  0.0836
 4429TIP3    H137482   7.294   3.498   8.417  0.5002 -1.7927 -0.3780
 4429TIP3    H237483   7.187   3.392   8.431 -1.5108  0.2479  0.5840
 4430TIP3   OH237484   1.015   4.194   8.037  0.6471  0.9833  0.1226
 4430TIP3    H137485   1.106   4.223   8.040  0.4633  1.4484  2.1217
 4430TIP3    H237486   0.963   4.273   8.048 -0.0063  0.6602 -0.5275
 4431TIP3   OH237487   5.959   5.714   8.496  0.0611  0.2752 -0.3469
 4431TIP3    H137488   6.049   5.695   8.523  0.1848 -0.2875 -1.1131
 4431TIP3    H237489   5.916   5.745   8.576  0.9292  0.5479  0.0282
 4432TIP3   OH237490   5.426   5.832   8.548 -0.0446 -0.9084  0.0748
 4432TIP3    H137491   5.341   5.872   8.527  0.1895 -1.4623 -2.2004
 4432TIP3    H237492   5.481   5.906   8.576 -0.9499 -0.3906  0.5559
 4433TIP3   OH237493   3.543   7.574   8.511  0.3937  0.5714  0.2997
 4433TIP3    H137494   3.592   7.637   8.564  1.1382 -0.3884  0.8059
 4433TIP3    H237495   3.605   7.549   8.442  0.6811 -0.7103  0.9894
 4434TIP3   OH237496   5.000   4.035   8.788  0.1634  0.2318 -0.2084
 4434TIP3    H137497   5.015   3.958   8.843  1.3487  0.2195 -0.5245
 4434TIP3    H237498   5.078   4.088   8.800 -0.7201  1.4912  0.1441
 4435TIP3   OH237499   7.153   0.403   9.221 -0.1633  0.0400 -0.0195
 4435TIP3    H137500   7.204   0.442   9.150 -0.1173  1.0697  0.5560
 4435TIP3    H237501   7.146   0.472   9.286 -0.1838 -0.8881  1.0002
 4436TIP3   OH237502   0.529   6.122   8.733 -0.1735  0.3473 -0.1451
 4436TIP3    H137503   0.582   6.042   8.736  0.1807  0.5740 -0.3842
 4436TIP3    H237504   0.503   6.136   8.824 -1.4705 -0.8603 -0.3080
 4437TIP3   OH237505   0.164   6.066   7.754  0.0026 -0.6755  0.0716
 4437TIP3    H137506   0.071   6.068   7.778 -0.5095  0.1362 -1.7696
 4437TIP3    H237507   0.180   5.975   7.729 -0.4323 -0.7083 -0.0990
 4438TIP3   OH237508   3.504   6.892   7.863  0.2769 -0.4624  0.0110
 4438TIP3    H137509   3.437   6.851   7.918 -0.4536 -0.2236 -0.6878
 4438TIP3    H237510   3.471   6.883   7.774  0.5691  0.7655 -0.2420
 4439TIP3   OH237511   0.051   5.510   6.702  0.6502 -0.5432  0.3203
 4439TIP3    H137512  -0.041   5.486   6.714  0.3786  0.1455 -0.2965
 4439TIP3    H237513   0.064   5.585   6.760 -0.6031  2.6457 -3.1150
 4440TIP3   OH237514   3.986   4.733   7.933  0.2365  0.2042 -0.6176
 4440TIP3    H137515   3.997   4.644   7.966 -0.0531  0.7388  0.9943
 4440TIP3    H237516   3.949   4.721   7.845  0.6446 -1.2604 -0.6182
 4441TIP3   OH237517   2.123   1.429   7.813 -0.5147  0.5882  0.4020
 4441TIP3    H137518   2.043   1.379   7.831  0.2019 -0.2504  1.3420
 4441TIP3    H237519   2.111   1.462   7.724 -0.5123 -2.2190 -0.7462
 4442TIP3   OH237520   2.585   5.508   8.760 -0.5024 -0.4935  0.4541
 4442TIP3    H137521   2.584   5.567   8.685  1.8320 -0.7753  0.1041
 4442TIP3    H237522   2.611   5.564   8.834 -1.1119 -0.5494  0.7170
 4443TIP3   OH237523   1.684   5.185   8.239  0.6791 -0.1007 -0.2231
 4443TIP3    H137524   1.722   5.259   8.192  1.3563 -0.6426 -0.5392
 4443TIP3    H237525   1.592   5.185   8.214  0.7920  0.3001 -0.6479
 4444TIP3   OH237526   1.816   1.912   8.092 -0.3860 -0.0309 -0.1602
 4444TIP3    H137527   1.858   1.913   8.178 -1.1852  0.6155  0.2358
 4444TIP3    H237528   1.739   1.856   8.102 -2.1560  2.3226  0.4197
 4445TIP3   OH237529   5.461   0.445   8.919  0.1636 -0.2134  0.0847
 4445TIP3    H137530   5.498   0.474   8.836 -0.6085  1.1923  0.2054
 4445TIP3    H237531   5.531   0.393   8.959  0.1115 -1.9737 -1.9549
 4446TIP3   OH237532   0.710   4.129   7.544 -0.7549 -0.6934 -0.0361
 4446TIP3    H137533   0.696   4.073   7.467 -0.5622 -2.1361  0.9337
 4446TIP3    H237534   0.668   4.081   7.615  0.1077  0.0404  0.9833
 4447TIP3   OH237535   5.478   7.149   8.474  0.0999 -0.3904 -0.1071
 4447TIP3    H137536   5.531   7.166   8.552 -0.3011 -1.3208  0.3745
 4447TIP3    H237537   5.519   7.202   8.405  1.3919 -0.7621  0.3581
 4448TIP3   OH237538   0.486   4.963   8.793 -0.1882 -0.1981  0.0446
 4448TIP3    H137539   0.445   4.913   8.864 -2.1076 -2.0283 -2.1584
 4448TIP3    H237540   0.570   4.919   8.778 -0.9886 -1.6059 -0.5501
 4449TIP3   OH237541   5.125   1.622   7.514  0.4859 -0.4254  0.1851
 4449TIP3    H137542   5.211   1.657   7.493  0.2893 -1.0099 -1.7241
 4449TIP3    H237543   5.111   1.552   7.451  0.2738 -3.1015  2.9509
 4450TIP3   OH237544   7.527   4.439   8.198 -0.3267 -0.0627  0.5736
 4450TIP3    H137545   7.434   4.424   8.211 -0.3674  0.1287  0.5051
 4450TIP3    H237546   7.537   4.534   8.201 -0.6147  0.1476 -2.4806
 4451TIP3   OH237547   0.696   5.906   8.024  0.5158 -0.3090  0.3851
 4451TIP3    H137548   0.791   5.906   8.021  0.5054 -0.5189  0.0735
 4451TIP3    H237549   0.675   5.943   8.110  0.8619  0.9629 -0.0517
 4452TIP3   OH237550   4.176   4.189   8.409 -0.9334  0.0995  0.0340
 4452TIP3    H137551   4.167   4.118   8.474  0.5769  0.9976  1.2941
 4452TIP3    H237552   4.123   4.159   8.335 -1.4867 -1.6930  1.0618
 4453TIP3   OH237553   6.119   1.690   6.932 -0.8165  0.0382 -0.5094
 4453TIP3    H137554   6.092   1.696   6.841  0.5426  0.6551 -0.8996
 4453TIP3    H237555   6.207   1.655   6.929 -0.8341 -0.1451  0.5894
 4454TIP3   OH237556   5.267   3.684   8.067  0.7336  0.0386  0.0993
 4454TIP3    H137557   5.309   3.770   8.061  0.1038  0.4251  0.9735
 4454TIP3    H237558   5.331   3.629   8.113  1.3255 -0.0999 -0.8658
 4455TIP3   OH237559   3.326   3.445   7.122  0.5088  0.3557 -0.0218
 4455TIP3    H137560   3.367   3.500   7.188  0.8645  0.2209 -0.1291
 4455TIP3    H237561   3.385   3.449   7.047  1.3956 -1.4546  0.5157
 4456TIP3   OH237562   7.251   7.325   9.194  0.1947  0.0511  0.0880
 4456TIP3    H137563   7.268   7.388   9.123 -1.5820  1.2079  0.6224
 4456TIP3    H237564   7.326   7.335   9.253 -0.4032  2.2692  0.5452
 4457TIP3   OH237565   0.539   4.589   8.893 -0.1306 -0.2969  0.1521
 4457TIP3    H137566   0.542   4.659   8.958  0.4955 -0.0529 -0.1297
 4457TIP3    H237567   0.447   4.563   8.889 -0.3775  0.5443  0.2191
 4458TIP3   OH237568   1.565   4.773   9.819 -0.0234  0.8161  0.2785
 4458TIP3    H137569   1.565   4.825   9.899 -1.6780  0.8918  0.2472
 4458TIP3    H237570   1.474   4.768   9.792  0.3154 -0.5012 -0.7792
 4459TIP3   OH237571   2.503   1.091   7.998 -0.3200  0.1980 -0.0785
 4459TIP3    H137572   2.437   1.159   7.985 -0.5763  0.1262  0.7605
 4459TIP3    H237573   2.521   1.057   7.910 -2.4399 -0.7235 -0.2256
 4460TIP3   OH237574   3.861   3.434   8.088 -0.0452 -0.1932 -0.3636
 4460TIP3    H137575   3.846   3.527   8.103  0.2152 -0.2773  0.5151
 4460TIP3    H237576   3.774   3.394   8.092  0.0457 -0.2973  1.7686
 4461TIP3   OH237577   2.356   2.365   8.098  0.0126  0.0140 -0.1196
 4461TIP3    H137578   2.270   2.386   8.136  0.2652 -0.2234  0.5854
 4461TIP3    H237579   2.394   2.450   8.076 -0.3888  0.1226 -0.4112
 4462TIP3   OH237580   4.984   0.269   6.676  0.0476 -0.9182 -0.3961
 4462TIP3    H137581   4.974   0.364   6.664 -0.0277 -0.7281  1.0335
 4462TIP3    H237582   4.910   0.231   6.628 -0.6310 -0.1835  0.0533
 4463TIP3   OH237583   4.618   5.868   8.295  0.6383  0.4075 -0.0690
 4463TIP3    H137584   4.565   5.825   8.362  1.9908 -0.7090  0.3279
 4463TIP3    H237585   4.605   5.962   8.310 -2.1191  0.2365 -0.7409
 4464TIP3   OH237586   0.642   3.711   7.006  0.0148  0.0863  0.0117
 4464TIP3    H137587   0.735   3.700   7.027 -0.5961 -2.5711  1.7105
 4464TIP3    H237588   0.624   3.642   6.941 -0.7032  0.8846 -0.6648
 4465TIP3   OH237589   6.129   4.826   9.300  0.3385  0.3148 -0.3409
 4465TIP3    H137590   6.045   4.853   9.262 -0.4303 -2.2504 -0.6530
 4465TIP3    H237591   6.104   4.765   9.370  1.9443  0.2554  0.2110
 4466TIP3   OH237592   7.654   6.781   8.067 -0.2387  0.1669  0.4545
 4466TIP3    H137593   7.671   6.867   8.105  0.8000 -0.3433  1.2099
 4466TIP3    H237594   7.596   6.738   8.130  0.3150 -0.1521  0.7588
 4467TIP3   OH237595   7.003   3.044   6.801  0.1066 -0.2004  0.4319
 4467TIP3    H137596   7.038   2.957   6.783  0.5305 -0.0229  0.3995
 4467TIP3    H237597   7.074   3.090   6.847  0.2510  0.4655 -0.4375
 4468TIP3   OH237598   4.449   6.506   9.044  0.5323 -0.0092 -0.2828
 4468TIP3    H137599   4.403   6.441   8.991  0.1772 -0.9104  1.0898
 4468TIP3    H237600   4.423   6.590   9.006 -0.5494 -0.5842 -0.8666
 4469TIP3   OH237601   1.712   3.447   8.203 -0.6134  0.0002  0.2786
 4469TIP3    H137602   1.770   3.436   8.278 -0.0413  0.7353 -0.0346
 4469TIP3    H237603   1.727   3.370   8.148 -0.3244 -0.0663  0.4528
 4470TIP3   OH237604   0.513   7.110   7.929 -0.1164  0.0624 -0.4545
 4470TIP3    H137605   0.547   7.147   8.011  1.0701 -1.0403 -0.4225
 4470TIP3    H237606   0.455   7.040   7.957 -2.2167  1.6850 -0.5217
 4471TIP3   OH237607   2.488   3.565   7.825 -0.1203 -0.1840  0.0972
 4471TIP3    H137608   2.480   3.494   7.889  1.4517  0.5149  1.1461
 4471TIP3    H237609   2.459   3.643   7.873  2.5089  0.6053  0.5408
 4472TIP3   OH237610   5.568   2.308   9.651 -0.7433  0.4848 -0.1956
 4472TIP3    H137611   5.580   2.263   9.567  0.6066  1.3195 -0.4801
 4472TIP3    H237612   5.481   2.281   9.680 -1.9188  1.3715 -2.5895
 4473TIP3   OH237613   7.499   1.242   9.405  0.1218  0.3482  0.7126
 4473TIP3    H137614   7.569   1.186   9.371 -1.0485 -0.2034 -0.9316
 4473TIP3    H237615   7.542   1.325   9.427  1.4607 -0.3618  0.8567
 4474TIP3   OH237616   5.260   0.499   8.662  0.0748 -0.2106 -0.7906
 4474TIP3    H137617   5.251   0.511   8.756 -3.3610  0.1039 -1.0213
 4474TIP3    H237618   5.324   0.429   8.653 -0.0665 -0.7801  1.8260
 4475TIP3   OH237619   6.811   4.165   9.292  0.3798  0.2063  0.1979
 4475TIP3    H137620   6.732   4.129   9.253 -0.7130  1.5206  1.1180
 4475TIP3    H237621   6.868   4.184   9.218 -1.4262  2.1588 -0.7825
 4476TIP3   OH237622   0.967   5.933   7.799 -0.4974 -0.5310 -0.5915
 4476TIP3    H137623   1.017   5.887   7.867 -0.1270 -0.0142 -0.5052
 4476TIP3    H237624   0.896   5.873   7.777 -1.4988 -0.1225  1.2958
 4477TIP3   OH237625   2.636   0.560   7.674  0.1413  0.1052  0.8106
 4477TIP3    H137626   2.667   0.650   7.663 -2.9202  1.1013 -1.1033
 4477TIP3    H237627   2.672   0.513   7.599 -0.3282  0.4229  0.3784
 4478TIP3   OH237628   0.039   3.025   6.888 -0.0981 -0.0569  0.6998
 4478TIP3    H137629  -0.015   3.039   6.966  0.3197 -0.2453  1.0251
 4478TIP3    H237630   0.021   3.101   6.833 -0.2741  0.1565  1.0474
 4479TIP3   OH237631   4.921   1.884   8.982  0.8121  0.1391 -0.0136
 4479TIP3    H137632   4.909   1.826   8.907  0.0809 -3.0309  2.3440
 4479TIP3    H237633   4.833   1.912   9.005  0.9740  0.5952  0.0733
 4480TIP3   OH237634   6.524   4.849   8.633  0.1182  0.4123 -0.7157
 4480TIP3    H137635   6.442   4.838   8.683 -0.9859 -1.1056 -2.7168
 4480TIP3    H237636   6.576   4.772   8.657  0.7073  1.0378  0.0508
 4481TIP3   OH237637   6.376   1.246   8.156  0.0662  0.6458  0.5580
 4481TIP3    H137638   6.281   1.240   8.163  0.1658  0.6897  2.2976
 4481TIP3    H237639   6.402   1.302   8.229  1.2963  2.1695 -0.9509
 4482TIP3   OH237640   6.614   4.288   8.610  0.0550 -0.1697 -0.4669
 4482TIP3    H137641   6.536   4.278   8.664 -0.3688  0.7217 -0.8934
 4482TIP3    H237642   6.592   4.243   8.528 -0.0781  0.2167 -0.6456
 4483TIP3   OH237643   2.728   1.089   7.402 -0.2940 -0.0012 -0.1526
 4483TIP3    H137644   2.687   1.171   7.376  0.2010  0.1305 -0.5460
 4483TIP3    H237645   2.707   1.028   7.331 -1.5059 -0.5072  0.6174
 4484TIP3   OH237646   6.121   1.669   9.285  0.1926  1.3599  0.4628
 4484TIP3    H137647   6.066   1.643   9.360 -0.0127  2.4821  0.7261
 4484TIP3    H237648   6.210   1.661   9.318  0.1663  0.3207  0.3030
 4485TIP3   OH237649   2.667   1.247   6.628 -0.0096 -0.3101  0.3111
 4485TIP3    H137650   2.588   1.285   6.590  2.2228  2.7856 -1.7240
 4485TIP3    H237651   2.689   1.305   6.701  1.5384  0.3309 -0.5974
 4486TIP3   OH237652   2.143   0.646   8.658  0.1894 -0.7647 -0.3274
 4486TIP3    H137653   2.109   0.570   8.610 -1.7846 -0.7690  0.9671
 4486TIP3    H237654   2.234   0.623   8.678  0.1944 -1.9694 -1.5687
 4487TIP3   OH237655   3.566   2.274   8.853  0.2736 -0.0493 -0.3900
 4487TIP3    H137656   3.636   2.238   8.799 -0.1157 -2.2011  0.4308
 4487TIP3    H237657   3.585   2.240   8.941 -0.3983  1.4406  0.3654
 4488TIP3   OH237658   4.969   0.831   8.080 -0.1910  0.2008 -0.4843
 4488TIP3    H137659   4.999   0.890   8.150 -0.2874 -0.4584  0.1304
 4488TIP3    H237660   4.890   0.792   8.115 -2.3616  2.5303 -2.3961
 4489TIP3   OH237661   3.528   4.291   8.893  0.5395  0.0762  0.7124
 4489TIP3    H137662   3.543   4.333   8.978  0.7303  2.7249 -0.5029
 4489TIP3    H237663   3.615   4.278   8.857  0.4447  1.5202 -0.1421
 4490TIP3   OH237664   3.287   2.686   7.335  0.0340 -0.3853  0.3436
 4490TIP3    H137665   3.355   2.624   7.362 -0.5415 -1.3682 -0.4049
 4490TIP3    H237666   3.321   2.726   7.255 -0.0416 -0.4935  0.2572
 4491TIP3   OH237667   0.499   4.714   9.634  0.2636  0.0308 -0.1048
 4491TIP3    H137668   0.571   4.680   9.581  0.1079  0.9261 -0.9118
 4491TIP3    H237669   0.534   4.714   9.724  0.3566 -1.9531 -0.0843
 4492TIP3   OH237670   2.733   4.361   8.990 -0.2022 -0.0451  0.9102
 4492TIP3    H137671   2.720   4.276   8.948 -2.6010  0.1265  1.1698
 4492TIP3    H237672   2.692   4.423   8.930  0.6801  0.8416  1.1963
 4493TIP3   OH237673   4.294   7.497   8.907  0.5493 -0.2107 -0.3158
 4493TIP3    H137674   4.201   7.513   8.918  0.7601 -0.4042  2.3045
 4493TIP3    H237675   4.316   7.540   8.825 -2.0391 -1.1899 -1.6319
 4494TIP3   OH237676   5.181   7.398   9.084  0.0510  1.1131  0.5403
 4494TIP3    H137677   5.272   7.408   9.112  0.3653 -0.4759  0.1836
 4494TIP3    H237678   5.185   7.404   8.989 -0.1357  0.5039  0.4917
 4495TIP3   OH237679   7.312   3.325   7.935  0.4059 -0.0886  0.5712
 4495TIP3    H137680   7.359   3.242   7.930 -0.0803 -0.3883  0.8538
 4495TIP3    H237681   7.376   3.391   7.909  0.7764 -0.5592  0.2730
 4496TIP3   OH237682   2.897   0.011   6.735 -0.7852 -0.2952  0.9641
 4496TIP3    H137683   2.971  -0.043   6.761  0.3318  0.9608  0.5086
 4496TIP3    H237684   2.833  -0.051   6.699  0.9009 -1.2248 -0.5924
 4497TIP3   OH237685   1.878   2.585   7.620  0.2401 -0.5406  0.2682
 4497TIP3    H137686   1.843   2.557   7.535 -0.2918  1.0123 -0.0460
 4497TIP3    H237687   1.905   2.676   7.606  4.0171 -1.4221  0.6112
 4498TIP3   OH237688   5.347   6.620   8.483 -0.2300 -0.3844  0.2536
 4498TIP3    H137689   5.275   6.683   8.479  0.9381  0.9181 -1.0646
 4498TIP3    H237690   5.405   6.653   8.551  0.6487  0.3010 -0.7975
 4499TIP3   OH237691   3.605   0.043   7.437 -0.2422  0.0427 -0.3299
 4499TIP3    H137692   3.590  -0.025   7.503  0.6190  2.3328  2.4137
 4499TIP3    H237693   3.521   0.088   7.429  0.4284  1.9596  2.0232
 4500TIP3   OH237694   0.650   7.146   7.126 -0.4532  0.5198  0.6081
 4500TIP3    H137695   0.561   7.157   7.159 -0.6239  1.3181 -0.0911
 4500TIP3    H237696   0.646   7.172   7.034  0.5100  0.6172  0.5755
 4501TIP3   OH237697   0.550   6.375   9.751 -0.1945 -0.1279  0.4065
 4501TIP3    H137698   0.588   6.392   9.837  0.5174  1.8873 -0.2631
 4501TIP3    H237699   0.513   6.459   9.723  0.2718 -0.5285 -1.5773
 4502TIP3   OH237700   3.041   5.825   8.288 -0.1039  0.3687 -0.0592
 4502TIP3    H137701   3.030   5.875   8.206  0.1152  3.7325  1.7790
 4502TIP3    H237702   3.131   5.791   8.283  0.1461  1.1003 -0.9279
 4503TIP3   OH237703   5.293   2.913   7.960  0.1687 -0.0025  0.3894
 4503TIP3    H137704   5.305   2.976   8.031  0.6420  2.4714 -1.7425
 4503TIP3    H237705   5.235   2.957   7.898 -0.0629 -1.9852 -0.9058
 4504TIP3   OH237706   3.097   6.041   7.704 -0.4949 -0.1430  0.2379
 4504TIP3    H137707   3.183   6.038   7.662 -0.1610  0.2380  0.8856
 4504TIP3    H237708   3.106   6.105   7.774 -1.2303 -0.2974  0.4850
 4505TIP3   OH237709   6.615   3.592   8.872  0.3913  0.8083 -0.2360
 4505TIP3    H137710   6.616   3.515   8.930 -2.4833  0.4138 -0.5308
 4505TIP3    H237711   6.683   3.574   8.807  0.7274 -0.8312  0.5125
 4506TIP3   OH237712   4.183   6.202   9.268 -0.0076  0.7188  0.0627
 4506TIP3    H137713   4.197   6.168   9.357 -0.4938  0.4618  0.0453
 4506TIP3    H237714   4.264   6.182   9.221  0.0271  0.3266  0.2866
 4507TIP3   OH237715   5.592   6.422   7.877 -0.2514  0.6644  0.2692
 4507TIP3    H137716   5.606   6.494   7.940 -0.5453 -0.7995  2.1063
 4507TIP3    H237717   5.497   6.409   7.877 -0.1599 -0.0346  0.3410
 4508TIP3   OH237718   3.369   0.857   7.571  0.3017 -0.2505 -0.3801
 4508TIP3    H137719   3.427   0.840   7.496  1.5976  1.0026  0.2878
 4508TIP3    H237720   3.419   0.917   7.627  0.5697 -3.2415  2.9369
 4509TIP3   OH237721   0.089   0.737   9.382 -0.4925  0.2878  0.0450
 4509TIP3    H137722   0.119   0.810   9.328 -0.9683 -0.2516 -0.9882
 4509TIP3    H237723   0.103   0.660   9.327 -0.5271 -0.3398  0.8947
 4510TIP3   OH237724   5.343   2.878   9.293 -0.0123  0.2601  0.1603
 4510TIP3    H137725   5.369   2.797   9.335 -2.7947 -0.0657  1.4773
 4510TIP3    H237726   5.381   2.948   9.346 -0.3632 -0.1904  1.0125
 4511TIP3   OH237727   2.654   1.929   8.704  0.0534 -0.1322  0.3527
 4511TIP3    H137728   2.579   1.921   8.764  0.6350 -0.0801  1.0954
 4511TIP3    H237729   2.729   1.945   8.761  0.5925  0.0981 -0.4082
 4512TIP3   OH237730   7.447   4.144   7.005 -0.1438  0.3042  0.1257
 4512TIP3    H137731   7.418   4.054   7.022  0.3466  0.1923  0.3873
 4512TIP3    H237732   7.366   4.196   7.008 -0.5347 -0.2307 -0.7867
 4513TIP3   OH237733   5.686   2.319   8.921 -0.0171 -0.3077 -0.1675
 4513TIP3    H137734   5.694   2.297   9.014 -0.3710 -2.3949 -0.5785
 4513TIP3    H237735   5.592   2.316   8.904  0.0720 -0.3629 -0.6658
 4514TIP3   OH237736   0.222   4.050   9.237  0.6911 -0.1520 -0.4447
 4514TIP3    H137737   0.266   4.135   9.240  0.9787 -0.2658 -1.1713
 4514TIP3    H237738   0.289   3.991   9.202  0.5688 -0.7300  0.2690
 4515TIP3   OH237739   3.554   1.858   9.038  0.4806 -0.3275 -0.2897
 4515TIP3    H137740   3.496   1.925   9.004 -1.0404 -1.3856  0.1118
 4515TIP3    H237741   3.639   1.901   9.046 -0.9187  2.3125  2.2440
 4516TIP3   OH237742   5.884   1.541   6.949 -0.0911 -0.2142  0.6297
 4516TIP3    H137743   5.886   1.446   6.952  0.6538 -0.2058  0.5302
 4516TIP3    H237744   5.976   1.567   6.941 -0.2991  0.5055  0.5018
 4517TIP3   OH237745   0.916   7.516   7.964  0.2376  0.6890  0.0797
 4517TIP3    H137746   0.949   7.590   7.913  0.8564  1.1667  1.1445
 4517TIP3    H237747   0.975   7.511   8.039 -0.5377 -0.1226  0.6460
 4518TIP3   OH237748   5.649   3.572   9.657  0.0879  0.1850 -0.3900
 4518TIP3    H137749   5.556   3.592   9.650  0.1709  0.6067 -0.3777
 4518TIP3    H237750   5.653   3.482   9.689 -0.3119  0.1082 -0.5540
 4519TIP3   OH237751   6.792   4.402   8.281  0.1048 -0.1089  0.0466
 4519TIP3    H137752   6.774   4.309   8.294  0.6234 -0.4146 -1.2945
 4519TIP3    H237753   6.848   4.405   8.204 -2.0399  1.4905 -1.5670
 4520TIP3   OH237754   4.094   2.251   7.530  0.3530 -0.6578 -0.2984
 4520TIP3    H137755   4.106   2.343   7.507  1.3821 -1.0299 -1.3435
 4520TIP3    H237756   4.033   2.218   7.464 -0.3230 -0.6498  0.3077
 4521TIP3   OH237757   3.813   0.243   7.368 -0.4038  0.4569 -0.0182
 4521TIP3    H137758   3.769   0.228   7.285 -0.9198 -1.1023  0.4884
 4521TIP3    H237759   3.781   0.172   7.425  1.6870  0.1058  0.7977
 4522TIP3   OH237760   2.199   7.474   8.944  0.3568 -0.2171  0.7509
 4522TIP3    H137761   2.206   7.565   8.971  3.0521  0.6712 -2.2987
 4522TIP3    H237762   2.195   7.477   8.848 -1.8668 -3.2796  0.5784
 4523TIP3   OH237763   3.407   5.814   9.297  0.7427  0.3665  0.3446
 4523TIP3    H137764   3.439   5.903   9.311  0.3604  0.6281 -0.3969
 4523TIP3    H237765   3.487   5.760   9.296  1.2053  1.0058 -1.4553
 4524TIP3   OH237766   2.205   3.312   8.231 -0.1454 -0.2790  0.4585
 4524TIP3    H137767   2.190   3.325   8.325 -0.6147  0.9631  0.2194
 4524TIP3    H237768   2.118   3.315   8.191  0.2592  2.5477 -0.3954
 4525TIP3   OH237769   1.794   3.840   9.478 -0.3750 -0.0773  0.0287
 4525TIP3    H137770   1.796   3.851   9.573 -0.7786 -1.7267  0.2681
 4525TIP3    H237771   1.842   3.758   9.463  0.8026  0.8321 -1.3297
 4526TIP3   OH237772   3.857   1.804   9.263 -0.5044 -0.4668 -0.5631
 4526TIP3    H137773   3.901   1.889   9.267  1.1918 -1.3377  2.3417
 4526TIP3    H237774   3.770   1.820   9.298 -1.2562  0.5457 -2.7362
 4527TIP3   OH237775   0.207   3.418   7.808  0.3837 -0.5391 -0.1836
 4527TIP3    H137776   0.147   3.484   7.773 -1.2427 -1.8430  0.0112
 4527TIP3    H237777   0.274   3.408   7.740  0.2340  0.7223 -0.5484
 4528TIP3   OH237778   1.054   5.688   7.125  0.0150  0.1871 -0.2605
 4528TIP3    H137779   1.071   5.712   7.216 -0.5978  0.9513 -0.3383
 4528TIP3    H237780   1.111   5.746   7.074 -2.2740  2.3827 -0.4996
 4529TIP3   OH237781   3.169   4.053   7.937 -0.4000  0.2416  0.7459
 4529TIP3    H137782   3.116   3.996   7.883  1.0636  0.8510 -1.4742
 4529TIP3    H237783   3.107   4.097   7.995 -2.2325  0.4302 -1.2723
 4530TIP3   OH237784   6.072   1.719   7.807  0.3965  0.2481  0.3406
 4530TIP3    H137785   6.138   1.654   7.834  0.4828  0.1433 -0.1032
 4530TIP3    H237786   6.121   1.801   7.800  0.1561  0.5096  1.5316
 4531TIP3   OH237787   6.868   5.879   8.690 -0.3929 -0.3241 -0.4813
 4531TIP3    H137788   6.889   5.803   8.746 -0.9663  0.2148  0.5032
 4531TIP3    H237789   6.933   5.945   8.714 -0.5256 -0.1564 -0.5819
 4532TIP3   OH237790   6.414   4.219   7.092 -0.4202  0.7075  0.0554
 4532TIP3    H137791   6.321   4.235   7.106 -0.4340  0.6088  0.0814
 4532TIP3    H237792   6.442   4.289   7.033 -0.5164  0.7239  0.0283
 4533TIP3   OH237793   7.151   1.611   8.368 -0.1918 -0.3713 -0.1107
 4533TIP3    H137794   7.134   1.535   8.422 -1.2756 -0.7857 -0.9848
 4533TIP3    H237795   7.222   1.658   8.412 -0.8849 -0.8008  1.5170
 4534TIP3   OH237796   1.939   3.910   9.088  0.2742  0.4192  0.4212
 4534TIP3    H137797   1.960   3.833   9.034  0.3558  1.2201 -0.7399
 4534TIP3    H237798   1.998   3.903   9.163 -0.4083 -1.1643  0.8491
 4535TIP3   OH237799   0.514   4.262   9.595 -0.1053 -0.2365 -0.1705
 4535TIP3    H137800   0.426   4.296   9.615 -0.4317 -0.4213 -1.2203
 4535TIP3    H237801   0.570   4.340   9.597 -0.2696 -0.1337  0.6119
 4536TIP3   OH237802   6.547   1.942   7.339 -0.2205  0.0004  0.2068
 4536TIP3    H137803   6.518   1.933   7.430 -2.6132  0.6553 -0.4221
 4536TIP3    H237804   6.533   1.855   7.301 -2.4199  0.5517 -0.3386
 4537TIP3   OH237805   5.507   4.577   7.895  0.5132  0.3160  0.5521
 4537TIP3    H137806   5.468   4.594   7.980  0.1749  0.8958  0.2890
 4537TIP3    H237807   5.535   4.486   7.899 -0.3291  0.0690  0.9567
 4538TIP3   OH237808   0.782   5.645   8.226 -0.3849 -0.4673 -0.5799
 4538TIP3    H137809   0.832   5.663   8.306 -1.6626 -0.5686  0.2782
 4538TIP3    H237810   0.793   5.552   8.211 -1.2987 -0.7391  0.3242
 4539TIP3   OH237811   4.449   4.832   6.965 -0.8062 -0.3265 -0.4383
 4539TIP3    H137812   4.539   4.857   6.990 -0.8643 -1.1591  0.6790
 4539TIP3    H237813   4.417   4.907   6.915  0.7577 -0.3123 -1.4996
 4540TIP3   OH237814   6.150   6.561   8.716  0.0731 -0.7312  0.1048
 4540TIP3    H137815   6.232   6.548   8.669 -0.7033  0.6722 -1.7520
 4540TIP3    H237816   6.122   6.649   8.692 -1.3117 -0.6662  1.7698
 4541TIP3   OH237817   7.317   0.868   9.667  0.1331  0.1003  0.0473
 4541TIP3    H137818   7.386   0.843   9.605  0.3730  0.9646 -0.0447
 4541TIP3    H237819   7.364   0.888   9.748  0.0495  1.2409 -0.1827
 4542TIP3   OH237820   5.602   5.216   8.593  0.6431 -0.1143  0.2194
 4542TIP3    H137821   5.696   5.213   8.610  0.3799  1.7481  2.5166
 4542TIP3    H237822   5.561   5.192   8.676 -1.0439 -3.6842 -1.4428
 4543TIP3   OH237823   0.765   4.465   8.766 -0.5617  0.3398  0.3437
 4543TIP3    H137824   0.831   4.477   8.834 -1.4061  0.6041  1.1239
 4543TIP3    H237825   0.687   4.509   8.799 -1.7128 -1.5465  0.2700
 4544TIP3   OH237826   1.939   5.475   8.878  0.5197  0.0605 -0.4682
 4544TIP3    H137827   1.956   5.435   8.793 -0.9287  0.2444 -0.8818
 4544TIP3    H237828   1.844   5.489   8.879  0.4993  0.0229  1.1927
 4545TIP3   OH237829   2.233   7.184   7.385  0.3365  0.5729 -0.1414
 4545TIP3    H137830   2.278   7.252   7.335 -0.4699 -0.3510 -2.2294
 4545TIP3    H237831   2.155   7.164   7.333 -0.9683  0.0889  1.9056
 4546TIP3   OH237832   5.042   1.496   8.147 -0.6720  0.4673 -0.2662
 4546TIP3    H137833   4.987   1.450   8.084  0.9611  0.1655 -1.5478
 4546TIP3    H237834   5.127   1.453   8.140 -0.1052  1.2711  1.2399
 4547TIP3   OH237835   1.662   5.148   7.551  0.4778 -0.4601 -0.3958
 4547TIP3    H137836   1.634   5.127   7.462  1.8823 -1.8149 -0.5645
 4547TIP3    H237837   1.758   5.140   7.548  0.7512  1.5459  0.7342
 4548TIP3   OH237838   4.282   1.374   8.578  0.2039 -0.1468  0.0086
 4548TIP3    H137839   4.252   1.379   8.487 -0.7563 -1.5155  0.2093
 4548TIP3    H237840   4.336   1.452   8.590 -1.5905  1.3381 -1.0143
 4549TIP3   OH237841   4.561   4.118   7.534 -0.2046  0.0430  0.1657
 4549TIP3    H137842   4.583   4.170   7.611 -1.5385 -0.7514  1.1176
 4549TIP3    H237843   4.586   4.173   7.460  0.8452  0.9323  1.1588
 4550TIP3   OH237844   4.908   4.908   7.887 -0.6274 -0.1250 -0.5494
 4550TIP3    H137845   4.997   4.918   7.852 -0.5483 -1.2037 -0.6786
 4550TIP3    H237846   4.852   4.906   7.809 -0.7167  0.0230 -0.4900
 4551TIP3   OH237847   4.445   7.569   7.545 -0.0087  0.0597 -0.4687
 4551TIP3    H137848   4.427   7.608   7.460 -2.9173  0.7301  0.3560
 4551TIP3    H237849   4.513   7.624   7.583 -1.4584  2.1970 -0.8064
 4552TIP3   OH237850   5.899   2.370   7.132  0.4268 -0.4587 -0.3298
 4552TIP3    H137851   5.832   2.320   7.085  0.8438 -1.0372 -0.3325
 4552TIP3    H237852   5.882   2.461   7.110 -0.2013 -0.6219 -0.5293
 4553TIP3   OH237853   5.360   5.397   8.934 -0.2847  0.1252 -0.2658
 4553TIP3    H137854   5.329   5.466   8.875  0.9237 -0.1864 -1.3057
 4553TIP3    H237855   5.303   5.404   9.010 -0.5441  1.9266 -0.5700
 4554TIP3   OH237856   5.034   4.747   8.536 -0.1185  0.8401 -0.1171
 4554TIP3    H137857   4.951   4.704   8.556  0.1962  0.0562 -0.4556
 4554TIP3    H237858   5.082   4.684   8.482  0.3847  1.5932 -0.5690
 4555TIP3   OH237859   2.426   3.942   8.577 -0.2985 -0.0869 -0.3432
 4555TIP3    H137860   2.376   3.940   8.659  1.0778  1.2590  0.5706
 4555TIP3    H237861   2.482   4.019   8.585  1.9469 -1.5196 -1.3012
 4556TIP3   OH237862   6.356   4.555   7.323  0.8314  0.4685 -0.1551
 4556TIP3    H137863   6.438   4.604   7.336  0.6271  0.3276  2.0679
 4556TIP3    H237864   6.292   4.623   7.301  1.2539  0.7657 -0.4912
 4557TIP3   OH237865   7.384   5.531   8.405  0.3399 -0.3954 -0.3999
 4557TIP3    H137866   7.383   5.441   8.373  0.4336 -1.0922  1.4040
 4557TIP3    H237867   7.296   5.546   8.438  0.6170 -0.2089  0.2668
 4558TIP3   OH237868   0.995   0.864   6.957  0.0159  0.1858 -0.2685
 4558TIP3    H137869   0.970   0.885   6.867 -1.1792 -2.6035 -0.6719
 4558TIP3    H237870   0.915   0.829   6.997  1.1914 -1.1142  1.0527
 4559TIP3   OH237871   5.792   0.988   6.708  0.2296  0.0966  0.0649
 4559TIP3    H137872   5.881   0.957   6.721  0.0487 -0.1760  0.7191
 4559TIP3    H237873   5.800   1.084   6.707  0.8761  0.0915 -2.6579
 4560TIP3   OH237874   4.503   1.525   8.887 -0.6381  0.0201  0.1874
 4560TIP3    H137875   4.493   1.546   8.980 -1.1590 -0.6951  0.2946
 4560TIP3    H237876   4.538   1.436   8.886 -0.6094  0.0337 -0.3028
 4561TIP3   OH237877   4.671   5.753   7.825 -0.5047 -0.2030  0.0135
 4561TIP3    H137878   4.673   5.835   7.776  4.1127 -0.0111  0.1065
 4561TIP3    H237879   4.606   5.767   7.893  1.2210  4.1229  1.0598
 4562TIP3   OH237880   4.633   3.954   8.260 -0.0732 -0.1371  0.2323
 4562TIP3    H137881   4.654   3.913   8.176  1.8107 -2.0009  1.5025
 4562TIP3    H237882   4.683   4.035   8.260  0.6378 -0.5640 -0.1058
 4563TIP3   OH237883   0.217   5.688   8.402 -0.1033  0.3886  0.7205
 4563TIP3    H137884   0.134   5.648   8.376 -0.4846  1.3807  0.3577
 4563TIP3    H237885   0.251   5.630   8.470 -1.4263  0.3367  1.3612
 4564TIP3   OH237886   3.284   3.466   7.725 -0.4647 -0.1756  0.3438
 4564TIP3    H137887   3.214   3.467   7.791  1.0642 -0.9494  2.0401
 4564TIP3    H237888   3.343   3.536   7.752  0.4650 -0.8569  0.1013
 4565TIP3   OH237889   2.001   4.770   8.307  0.0468 -0.4854  0.3820
 4565TIP3    H137890   1.929   4.830   8.286  0.4596 -0.0553  0.1906
 4565TIP3    H237891   1.964   4.711   8.373  0.4612  1.7712  2.8203
 4566TIP3   OH237892   3.309   6.292   8.024  0.2584  0.1912 -0.7226
 4566TIP3    H137893   3.296   6.361   7.959  1.5282  0.0526 -1.1644
 4566TIP3    H237894   3.221   6.266   8.050 -0.2508  1.9873 -0.5241
 4567TIP3   OH237895   0.608   7.058   9.397 -0.0598 -0.5491 -0.9250
 4567TIP3    H137896   0.656   7.141   9.401  1.1080 -1.2103  2.8092
 4567TIP3    H237897   0.534   7.070   9.455  0.4779 -2.2435  0.1882
 4568TIP3   OH237898   5.032   6.585   9.475 -0.3190 -0.2552 -0.5205
 4568TIP3    H137899   4.946   6.557   9.507  0.5318 -1.3379  0.9833
 4568TIP3    H237900   5.049   6.667   9.522 -0.7239  0.1936 -1.1605
 4569TIP3   OH237901   5.483   0.124   7.624 -0.4438 -0.0640 -0.6864
 4569TIP3    H137902   5.423   0.189   7.660  1.0477  2.1883 -1.9602
 4569TIP3    H237903   5.515   0.076   7.700 -1.4486  0.8636  0.3546
 4570TIP3   OH237904   5.115   4.437   9.274 -0.4560 -0.6892 -0.0436
 4570TIP3    H137905   5.034   4.488   9.276 -0.1629 -0.2312  0.1438
 4570TIP3    H237906   5.164   4.473   9.201 -0.4958 -1.0896 -0.2719
 4571TIP3   OH237907   2.471   5.097   9.358 -0.6664 -0.0650  0.1686
 4571TIP3    H137908   2.425   5.156   9.418 -0.2078 -1.2842  1.7779
 4571TIP3    H237909   2.549   5.146   9.332 -0.0309 -0.1021  1.8798
 4572TIP3   OH237910   3.139   2.616   9.322 -0.1430 -0.0370  0.2851
 4572TIP3    H137911   3.199   2.677   9.366 -0.5159  0.8663 -0.4206
 4572TIP3    H237912   3.186   2.533   9.321  1.5181  0.8547 -1.0472
 4573TIP3   OH237913   3.575   0.769   8.547 -0.3587 -0.4665  0.5374
 4573TIP3    H137914   3.611   0.808   8.627  1.9774  0.3739 -0.8235
 4573TIP3    H237915   3.637   0.699   8.525 -1.2213 -0.9862 -0.3278
 4574TIP3   OH237916   0.460   5.982   7.494 -0.1801 -0.0355  0.1211
 4574TIP3    H137917   0.439   5.889   7.490  2.1526 -0.5839 -1.5887
 4574TIP3    H237918   0.498   5.994   7.581  0.5961 -0.9930 -0.0657
 4575TIP3   OH237919   0.987   3.593   7.672  0.2669  0.4263 -0.1816
 4575TIP3    H137920   1.070   3.545   7.676  0.9039  1.3391 -1.7412
 4575TIP3    H237921   0.921   3.524   7.661  0.6702 -0.3777  1.8980
 4576TIP3   OH237922   1.010   6.470   9.375  0.0234  0.1832  0.1303
 4576TIP3    H137923   0.976   6.540   9.431 -1.7238  0.1764 -0.8493
 4576TIP3    H237924   0.995   6.502   9.286  1.7672 -0.2760 -0.3689
 4577TIP3   OH237925   1.441   0.418   8.308 -0.2920  0.0991 -0.3086
 4577TIP3    H137926   1.500   0.413   8.384 -0.7664  1.3320  0.1576
 4577TIP3    H237927   1.410   0.328   8.297  1.1809 -0.4446 -0.1727
 4578TIP3   OH237928   0.562   5.675   9.135  0.0647 -0.2731 -0.4030
 4578TIP3    H137929   0.570   5.762   9.174  1.4099 -0.0061 -1.2086
 4578TIP3    H237930   0.483   5.638   9.175 -0.7353  1.4331 -0.3006
 4579TIP3   OH237931   2.036   1.955   9.103  0.3580 -0.2088 -0.2563
 4579TIP3    H137932   2.057   2.029   9.160 -0.1855  0.2348 -0.6252
 4579TIP3    H237933   1.980   1.899   9.157  2.2858 -1.3339  0.6880
 4580TIP3   OH237934   1.615   5.556   7.702 -0.0399 -0.1599 -0.3774
 4580TIP3    H137935   1.710   5.545   7.699  0.3723  2.8746 -1.0833
 4580TIP3    H237936   1.597   5.592   7.789 -0.5706 -0.7090 -0.2501
 4581TIP3   OH237937   7.575   3.607   8.970  0.1552  0.2930  0.4369
 4581TIP3    H137938   7.515   3.617   8.896  2.5835 -1.8268 -2.0189
 4581TIP3    H237939   7.629   3.686   8.968 -0.1818  0.5224  0.3394
 4582TIP3   OH237940   6.088   6.323   8.366  0.2641 -0.3544 -0.5201
 4582TIP3    H137941   6.171   6.366   8.346  0.9869 -1.8220 -0.8345
 4582TIP3    H237942   6.050   6.303   8.280  0.0754 -0.5727 -0.3889
 4583TIP3   OH237943   1.012   7.192   8.539 -0.8235 -0.1149  0.3040
 4583TIP3    H137944   1.081   7.256   8.524  0.3526 -0.7269  2.5548
 4583TIP3    H237945   0.942   7.241   8.583 -0.4665 -0.0907  0.8600
 4584TIP3   OH237946   6.449   7.190   7.778  0.5011 -0.1672  0.2961
 4584TIP3    H137947   6.471   7.213   7.869  1.0164  2.2013 -0.3612
 4584TIP3    H237948   6.410   7.270   7.742 -0.5461 -1.3604 -1.3270
 4585TIP3   OH237949   7.186   7.638   8.836 -0.2588  0.2495 -0.7747
 4585TIP3    H137950   7.221   7.624   8.748  1.5862 -0.8714  0.0742
 4585TIP3    H237951   7.118   7.572   8.846  0.9302 -1.0090 -0.6839
 4586TIP3   OH237952   6.247   6.748   7.742 -0.1452  0.1323 -0.4450
 4586TIP3    H137953   6.234   6.834   7.704 -1.2968  0.7761  1.2952
 4586TIP3    H237954   6.305   6.763   7.817 -0.2725 -0.6105 -0.1820
 4587TIP3   OH237955   0.481   4.834   9.030  0.0088  0.6877  0.3077
 4587TIP3    H137956   0.539   4.904   9.060  0.7782 -0.1207  0.7556
 4587TIP3    H237957   0.481   4.771   9.102  1.8410 -1.2825 -1.2960
 4588TIP3   OH237958   3.466   2.905   8.529  0.2851 -0.0656 -0.1645
 4588TIP3    H137959   3.443   2.813   8.521 -2.5382  0.4054  1.3145
 4588TIP3    H237960   3.441   2.944   8.446 -0.0749 -0.3315 -0.1797
 4589TIP3   OH237961   4.223   6.450   9.501  0.0663 -0.2903  0.0322
 4589TIP3    H137962   4.318   6.441   9.508  0.4859  2.1035 -1.6097
 4589TIP3    H237963   4.200   6.403   9.421 -0.0051 -0.0365 -0.0952
 4590TIP3   OH237964   2.148   5.178   7.186  0.0548  0.0528 -0.2721
 4590TIP3    H137965   2.186   5.096   7.218  0.7395  0.2463 -0.5831
 4590TIP3    H237966   2.069   5.151   7.139 -1.2433 -0.2225  1.8988
 4591TIP3   OH237967   7.163   5.335   8.188 -0.1258 -0.0327 -0.3136
 4591TIP3    H137968   7.118   5.269   8.240  1.1118  1.2443  2.6468
 4591TIP3    H237969   7.093   5.391   8.154 -1.0359 -1.4593 -0.8505
 4592TIP3   OH237970   1.867   7.036   8.675 -0.2894  0.3338  0.5248
 4592TIP3    H137971   1.831   6.951   8.698  1.9540 -0.9542 -0.4752
 4592TIP3    H237972   1.814   7.064   8.600 -0.5372 -0.5507  0.3572
 4593TIP3   OH237973   4.263   7.622   7.071  0.2135  0.0509 -0.5216
 4593TIP3    H137974   4.331   7.575   7.118  0.4968  1.6740  0.7796
 4593TIP3    H237975   4.292   7.713   7.070 -2.0575  0.8866  0.4522
 4594TIP3   OH237976   3.121   5.687   7.192  0.0310 -0.1157  0.0199
 4594TIP3    H137977   3.122   5.682   7.287 -0.0564 -0.1323  0.0197
 4594TIP3    H237978   3.212   5.670   7.166 -0.1571 -1.2009  0.0410
 4595TIP3   OH237979   3.050   5.930   8.028 -0.4915  0.4862  0.0912
 4595TIP3    H137980   2.975   5.899   7.977 -0.5611  0.8373 -0.0216
 4595TIP3    H237981   3.040   6.025   8.030 -0.5576  0.4707  0.8599
 4596TIP3   OH237982   5.260   7.636   7.760  0.2973 -0.1447 -0.3652
 4596TIP3    H137983   5.285   7.721   7.796  0.2014  0.5050 -1.7647
 4596TIP3    H237984   5.247   7.581   7.837  0.6126  1.0270  0.5682
 4597TIP3   OH237985   3.060   4.865   6.413  0.1742 -0.0694 -0.4995
 4597TIP3    H137986   3.140   4.814   6.400  0.5689  0.4325 -0.0856
 4597TIP3    H237987   3.084   4.954   6.384 -0.0423  0.2207  0.1855
 4598TIP3   OH237988   4.177   4.561   8.404 -0.8002  0.1592 -0.7828
 4598TIP3    H137989   4.090   4.528   8.423 -0.8210  0.3398 -0.5658
 4598TIP3    H237990   4.204   4.514   8.325 -1.6471  1.1010 -1.6543
 4599TIP3   OH237991   6.062   1.089   9.097 -0.0965  0.2419 -0.5769
 4599TIP3    H137992   6.089   1.181   9.090 -1.0958  0.5384 -0.6779
 4599TIP3    H237993   6.051   1.074   9.191  1.0603 -0.0902 -0.4719
 4600TIP3   OH237994   1.141   0.963   7.396  0.1125 -0.1107 -0.2705
 4600TIP3    H137995   1.078   0.893   7.413  2.3641 -2.0967  0.3898
 4600TIP3    H237996   1.143   1.014   7.477  1.3519 -1.7461  0.7787
 4601TIP3   OH237997   0.276   5.267   9.621  1.1688 -0.7027 -0.3768
 4601TIP3    H137998   0.289   5.196   9.559  0.4692  1.0186 -2.6598
 4601TIP3    H237999   0.180   5.272   9.631  0.9928  1.4622 -2.3319
 4602TIP3   OH238000   4.644   6.766   6.433 -0.7766  0.3110  0.5652
 4602TIP3    H138001   4.719   6.707   6.428  0.4525  1.5790  2.5877
 4602TIP3    H238002   4.588   6.728   6.501 -1.5956 -0.1778 -0.3516
 4603TIP3   OH238003   7.523   0.303   7.899  0.4019 -0.1809  0.6736
 4603TIP3    H138004   7.603   0.347   7.927 -0.1070  0.7715  0.6476
 4603TIP3    H238005   7.452   0.350   7.942 -0.3449  0.6693 -1.3455
 4604TIP3   OH238006   2.885   0.695   7.876  0.0703  0.1784  0.6516
 4604TIP3    H138007   2.944   0.637   7.828 -0.6373  1.4808 -1.9470
 4604TIP3    H238008   2.929   0.710   7.960  2.2738 -0.7399 -0.2738
 4605TIP3   OH238009   3.454   6.035   8.708 -0.2008 -0.5957  0.5584
 4605TIP3    H138010   3.428   5.958   8.659 -1.1062 -0.6421  1.0854
 4605TIP3    H238011   3.465   6.104   8.642 -0.3691 -0.9200  0.1927
 4606TIP3   OH238012   7.583   1.644   7.320  0.6436 -0.3831 -0.4395
 4606TIP3    H138013   7.524   1.687   7.259  1.1749 -0.1546 -0.8041
 4606TIP3    H238014   7.628   1.716   7.364  0.6863 -0.5532 -0.2017
 4607TIP3   OH238015   1.639   1.150   7.915  0.1076  0.0531  0.0521
 4607TIP3    H138016   1.638   1.176   8.007 -2.5253  0.4353 -0.0053
 4607TIP3    H238017   1.598   1.063   7.915 -2.5120  1.2065 -0.9645
 4608TIP3   OH238018   2.407   4.516   7.025 -0.1918 -0.0454 -0.2852
 4608TIP3    H138019   2.491   4.538   7.065 -0.3323 -0.5873  0.3410
 4608TIP3    H238020   2.367   4.600   7.004  0.2972  0.2263 -0.1523
 4609TIP3   OH238021   6.810   4.058   8.263  0.3065  0.0802 -0.7838
 4609TIP3    H138022   6.745   4.051   8.193 -1.7451  0.4820  0.9644
 4609TIP3    H238023   6.823   3.967   8.292 -1.0565  0.1742  0.1818
 4610TIP3   OH238024   5.003   5.909   7.238 -0.0023  0.5060  0.5728
 4610TIP3    H138025   4.950   5.829   7.237 -0.6487  0.9219  0.6002
 4610TIP3    H238026   5.005   5.938   7.147  1.2961 -0.2159  0.3563
 4611TIP3   OH238027   4.345   6.586   7.525 -0.0242  0.5300 -0.1151
 4611TIP3    H138028   4.322   6.598   7.617 -0.8128  1.6320 -0.4410
 4611TIP3    H238029   4.441   6.590   7.524  0.3017 -2.9153  1.0930
 4612TIP3   OH238030   0.302   4.419   8.559  0.2234 -0.3576  0.1005
 4612TIP3    H138031   0.325   4.327   8.549  1.7170 -0.2220  1.7602
 4612TIP3    H238032   0.372   4.466   8.513  1.0556 -0.0400  1.5985
 4613TIP3   OH238033   7.321   5.447   9.559  0.1231 -0.8983  0.7063
 4613TIP3    H138034   7.295   5.537   9.539  1.7383 -0.7900 -1.2645
 4613TIP3    H238035   7.278   5.427   9.642 -2.0868  0.8919  0.0856
 4614TIP3   OH238036   5.222   6.428   9.090  0.0094  0.4465 -0.6468
 4614TIP3    H138037   5.264   6.473   9.163 -0.4120 -2.6283  1.6692
 4614TIP3    H238038   5.173   6.356   9.130 -1.8925 -0.2491 -3.8225
 4615TIP3   OH238039   4.593   1.255   7.734 -0.1192  0.4043 -0.2728
 4615TIP3    H138040   4.521   1.203   7.769  0.7148  0.0656  1.0327
 4615TIP3    H238041   4.585   1.248   7.639 -2.4584  1.2953 -0.2117
 4616TIP3   OH238042   3.278   5.684   8.220  0.2062 -0.5083  0.2072
 4616TIP3    H138043   3.295   5.595   8.189  1.9879 -0.1228  0.0096
 4616TIP3    H238044   3.343   5.738   8.177 -0.3858  0.7993  0.8876
 4617TIP3   OH238045   6.896   7.500   8.624 -0.0092  0.5866 -0.0804
 4617TIP3    H138046   6.802   7.480   8.617 -0.1404  1.5078 -1.3144
 4617TIP3    H238047   6.913   7.560   8.551  1.6741 -0.0350 -0.2409
 4618TIP3   OH238048   6.158   6.162   8.042  0.6509 -0.5341 -0.2686
 4618TIP3    H138049   6.161   6.257   8.036 -1.5294 -0.1655  2.3486
 4618TIP3    H238050   6.218   6.131   7.973  1.3451  2.6697 -1.2682
 4619TIP3   OH238051   3.709   0.940   7.872  0.6393  0.4465  0.2842
 4619TIP3    H138052   3.665   0.944   7.957  1.0357  3.2890  0.4490
 4619TIP3    H238053   3.646   0.978   7.810  1.1563  0.3842 -0.2907
 4620TIP3   OH238054   3.279   0.911   6.839  0.3667  0.0469  0.2382
 4620TIP3    H138055   3.344   0.976   6.813 -0.6278  0.0840 -2.4227
 4620TIP3    H238056   3.307   0.830   6.796 -1.0922 -0.0221 -0.6544
 4621TIP3   OH238057   4.333   6.063   8.340  0.1373  0.0012  0.2864
 4621TIP3    H138058   4.424   6.095   8.339 -0.3207  1.4306  0.8076
 4621TIP3    H238059   4.281   6.142   8.356 -1.0151 -1.1775  2.9489
 4622TIP3   OH238060   0.042   1.198   7.119  0.3949 -0.1489 -0.2446
 4622TIP3    H138061   0.114   1.249   7.156 -0.4141  0.6285  0.3087
 4622TIP3    H238062   0.012   1.144   7.192 -1.3737  1.5698  0.3879
 4623TIP3   OH238063   3.634   5.867   7.679 -0.5984 -0.5684 -0.4607
 4623TIP3    H138064   3.677   5.950   7.659 -1.1829 -0.9117 -3.7683
 4623TIP3    H238065   3.705   5.805   7.691 -0.1787  0.1537  1.1048
 4624TIP3   OH238066   7.475   6.668   7.813 -0.0092 -0.0797 -0.2456
 4624TIP3    H138067   7.512   6.706   7.733 -2.1342 -0.0759 -1.2801
 4624TIP3    H238068   7.401   6.724   7.834  0.1251 -0.4749  1.3738
 4625TIP3   OH238069   4.393   3.891   7.184  0.0403 -0.3285 -0.5498
 4625TIP3    H138070   4.316   3.882   7.127  0.4285  3.0624 -1.8757
 4625TIP3    H238071   4.464   3.851   7.134  0.4621  2.9281 -2.9435
 4626TIP3   OH238072   4.350   6.301   8.842  0.2607  0.3764 -0.1038
 4626TIP3    H138073   4.272   6.247   8.830 -0.8682  1.8826  0.1550
 4626TIP3    H238074   4.338   6.375   8.782  2.6983 -0.5448 -1.9103
 4627TIP3   OH238075   2.480   5.868   9.407  0.3533 -0.1362  0.0035
 4627TIP3    H138076   2.522   5.929   9.468  1.1303 -0.6618  0.0035
 4627TIP3    H238077   2.386   5.889   9.413  0.6760  1.6531 -0.6516
 4628TIP3   OH238078   0.683   5.548   9.535  0.1404 -0.6023  0.3106
 4628TIP3    H138079   0.706   5.598   9.613 -0.2244 -0.0484  0.0622
 4628TIP3    H238080   0.589   5.534   9.541  0.1663 -0.8619  0.1455
 4629TIP3   OH238081   7.475   2.276   9.336  0.0917 -0.2310  0.2283
 4629TIP3    H138082   7.454   2.354   9.389  1.6502 -0.0808  0.6724
 4629TIP3    H238083   7.500   2.311   9.251  1.8152 -0.1391  0.7459
 4630TIP3   OH238084   5.979   1.228   7.243  0.0436 -0.4462 -0.0719
 4630TIP3    H138085   5.984   1.135   7.268  1.2346 -0.0290  1.4767
 4630TIP3    H238086   6.068   1.261   7.260  0.0891  0.6243 -2.1698
 4631TIP3   OH238087   2.793   1.812   8.090 -0.0648  0.0702  0.0052
 4631TIP3    H138088   2.793   1.889   8.148  0.3101  0.0091  0.0846
 4631TIP3    H238089   2.709   1.818   8.044 -0.2825  0.2233  0.4138
 4632TIP3   OH238090   2.807   1.008   6.611  0.1590 -0.1197 -0.6292
 4632TIP3    H138091   2.770   1.097   6.611 -0.0078 -0.1771  0.3602
 4632TIP3    H238092   2.730   0.951   6.614  0.2836 -0.2767 -0.4326
 4633TIP3   OH238093   3.272   1.038   9.288  0.5109  0.0449 -0.3625
 4633TIP3    H138094   3.189   1.069   9.324  1.0946  1.6911 -0.3394
 4633TIP3    H238095   3.257   0.946   9.267 -0.9375  0.0015  0.7586
 4634TIP3   OH238096   6.146   3.314   7.166 -0.0340  0.4628  0.4527
 4634TIP3    H138097   6.212   3.334   7.099 -1.5180  0.2675 -1.1369
 4634TIP3    H238098   6.104   3.398   7.184 -0.1428  0.3823  0.5700
 4635TIP3   OH238099   1.224   3.921   8.536  0.2800  0.3523 -0.2095
 4635TIP3    H138100   1.183   3.957   8.458  1.0032 -1.0478 -1.2771
 4635TIP3    H238101   1.160   3.858   8.570  0.4313  0.1294 -0.3355
 4636TIP3   OH238102   6.446   1.858   7.592  0.2722  0.0453  0.2547
 4636TIP3    H138103   6.529   1.825   7.626  0.8744  0.1991 -1.0335
 4636TIP3    H238104   6.397   1.779   7.568  0.0494 -0.0418  0.9583
 4637TIP3   OH238105   6.047   0.239   9.254 -0.1407 -0.7696  0.3262
 4637TIP3    H138106   6.056   0.333   9.242 -1.1339 -0.6919  0.0842
 4637TIP3    H238107   6.030   0.205   9.167 -0.4015 -1.0972  0.5029
 4638TIP3   OH238108   5.026   4.301   8.054 -0.5268 -0.5531 -0.2185
 4638TIP3    H138109   5.031   4.394   8.029  0.3769 -0.6335 -0.3719
 4638TIP3    H238110   5.034   4.302   8.149 -0.9473 -0.4430 -0.1848
 4639TIP3   OH238111   2.117   4.660   7.124  0.4375 -0.0295  0.5444
 4639TIP3    H138112   2.071   4.580   7.102  0.8100  0.0789 -0.6939
 4639TIP3    H238113   2.151   4.692   7.041  1.2263  0.8328  1.1748
 4640TIP3   OH238114   6.021   0.519   7.594 -0.4122  0.1132 -0.6552
 4640TIP3    H138115   6.061   0.599   7.559  1.4354 -0.7531 -0.6868
 4640TIP3    H238116   5.949   0.549   7.648  1.0223  1.8862  0.3756
 4641TIP3   OH238117   0.506   2.499   9.136  0.0977  0.0495 -0.1564
 4641TIP3    H138118   0.499   2.455   9.051 -1.7186  0.8401 -0.4636
 4641TIP3    H238119   0.600   2.515   9.147  0.5599 -1.6987 -1.1374
 4642TIP3   OH238120   1.656   6.315   9.268  0.2509  0.0488 -0.1587
 4642TIP3    H138121   1.619   6.403   9.274  0.8119  0.3456 -0.8279
 4642TIP3    H238122   1.587   6.258   9.301 -1.5845  0.3911 -3.0734
 4643TIP3   OH238123   2.799   0.251   6.608  0.1396 -0.8294  0.3776
 4643TIP3    H138124   2.739   0.217   6.542  1.9881 -0.7316 -1.4487
 4643TIP3    H238125   2.845   0.174   6.640 -0.1724 -0.7790  0.9491
 4644TIP3   OH238126   1.244   6.224   8.411 -0.1618 -0.2157  0.2899
 4644TIP3    H138127   1.168   6.221   8.470 -0.3912 -1.5971 -0.0492
 4644TIP3    H238128   1.207   6.244   8.325  0.1858  1.9264  0.5735
 4645TIP3   OH238129   6.615   1.782   8.898 -0.2674  0.1558 -0.2312
 4645TIP3    H138130   6.628   1.840   8.823  1.5988  0.0225 -0.0506
 4645TIP3    H238131   6.621   1.694   8.860 -0.8384  0.0792 -0.1496
 4646TIP3   OH238132   7.632   5.556   8.310  0.8388 -0.4396 -0.1320
 4646TIP3    H138133   7.537   5.551   8.323  0.6764  0.4714 -0.8968
 4646TIP3    H238134   7.642   5.585   8.219  1.8698 -1.4652 -0.3682
 4647TIP3   OH238135   2.026   2.827   8.738 -0.1536  0.0556 -0.8001
 4647TIP3    H138136   2.065   2.756   8.686  0.3795 -0.6161  0.4760
 4647TIP3    H238137   2.002   2.785   8.821  1.1173  1.5809  0.3875
 4648TIP3   OH238138   1.952   0.815   7.641  0.0868  0.2123  0.1570
 4648TIP3    H138139   1.964   0.865   7.722 -0.9939  2.2304 -0.8448
 4648TIP3    H238140   2.038   0.819   7.597  1.3117 -2.6366  2.0072
 4649TIP3   OH238141   3.452   5.328   7.941 -0.3824  0.0251 -0.4555
 4649TIP3    H138142   3.494   5.361   8.021  0.6492 -1.4953 -0.3197
 4649TIP3    H238143   3.362   5.359   7.946 -0.2127  0.3388  1.0920
 4650TIP3   OH238144   5.255   6.584   9.307 -0.3162 -0.1721 -0.1118
 4650TIP3    H138145   5.324   6.609   9.369 -0.7992 -0.9781  0.7707
 4650TIP3    H238146   5.174   6.594   9.357 -0.8547  0.7489 -1.1369
 4651TIP3   OH238147   7.082   3.677   8.257  0.3170  0.2150 -0.3934
 4651TIP3    H138148   7.023   3.612   8.294 -0.4201  0.2121 -1.5103
 4651TIP3    H238149   7.143   3.626   8.203  0.7325  0.3156 -0.0301
 4652TIP3   OH238150   2.801   6.037   9.264  0.2834 -0.6192 -0.1358
 4652TIP3    H138151   2.764   6.037   9.353 -0.6352  0.6165 -0.4930
 4652TIP3    H238152   2.894   6.052   9.277  0.0690  0.1447  0.6037
 4653TIP3   OH238153   7.055   6.047   8.784  0.5840 -0.1224 -0.0576
 4653TIP3    H138154   7.076   6.140   8.789 -2.0671  0.6095 -1.1864
 4653TIP3    H238155   7.069   6.015   8.873  1.7250  1.2752  0.3095
 4654TIP3   OH238156   0.772   4.266   7.245 -0.2866  0.0270 -0.0462
 4654TIP3    H138157   0.726   4.316   7.177 -1.9950  0.0954  1.0861
 4654TIP3    H238158   0.758   4.174   7.220  2.0290  0.0282 -1.5996
 4655TIP3   OH238159   6.850   6.658   7.591  0.2904 -0.0900  0.1301
 4655TIP3    H138160   6.778   6.659   7.529 -1.1965 -1.6380  1.7106
 4655TIP3    H238161   6.814   6.699   7.670  1.1346 -0.8032  0.9117
 4656TIP3   OH238162   3.215   3.434   8.773  0.1969  0.6023  0.0810
 4656TIP3    H138163   3.220   3.338   8.773  3.2420  0.6655 -1.3890
 4656TIP3    H238164   3.237   3.459   8.863 -0.4856 -0.0421  0.4416
 4657TIP3   OH238165   7.634   0.885   7.697  0.0779  0.3971 -0.2292
 4657TIP3    H138166   7.547   0.872   7.658 -0.5687  1.3298  0.8285
 4657TIP3    H238167   7.693   0.834   7.642 -1.5509 -2.9531  0.8233
 4658TIP3   OH238168   4.207   5.953   9.043  0.2635 -0.4937  0.2238
 4658TIP3    H138169   4.287   5.906   9.067  0.2918  0.0121  1.2000
 4658TIP3    H238170   4.236   6.042   9.024  0.2046 -0.8240 -1.5646
 4659TIP3   OH238171   6.755   1.434   7.074 -0.2120 -0.3884 -0.1750
 4659TIP3    H138172   6.706   1.508   7.038  0.7651 -0.4207 -1.6296
 4659TIP3    H238173   6.806   1.471   7.146 -0.5204  0.1238 -0.2192
 4660TIP3   OH238174   0.710   2.140   7.386 -0.4801 -0.7315 -0.2209
 4660TIP3    H138175   0.784   2.083   7.407  0.9414  1.3739  0.7859
 4660TIP3    H238176   0.689   2.119   7.295  2.4324 -0.3267 -1.0837
 4661TIP3   OH238177   7.575   4.524   7.178  0.9707 -0.5899  0.3636
 4661TIP3    H138178   7.658   4.571   7.185  0.5308  0.0553  1.6112
 4661TIP3    H238179   7.590   4.458   7.111  2.0551  0.4205 -0.4426
 4662TIP3   OH238180   2.466   7.522   7.559 -0.0595  0.5523  0.2434
 4662TIP3    H138181   2.450   7.447   7.617  0.8914 -0.5569 -0.8710
 4662TIP3    H238182   2.457   7.486   7.470 -0.1770  1.9099 -0.3286
 4663TIP3   OH238183   0.558   0.115   7.862  0.5072  0.3222 -0.0982
 4663TIP3    H138184   0.503   0.038   7.874  0.7593 -0.0158 -0.9953
 4663TIP3    H238185   0.497   0.188   7.851  0.2727  0.4144  1.6479
 4664TIP3   OH238186   5.181   6.035   8.546  0.6008  0.5364 -0.1627
 4664TIP3    H138187   5.186   6.130   8.531 -2.0744  0.9839  1.1160
 4664TIP3    H238188   5.139   6.001   8.467  0.6780  0.5777 -0.2211
 4665TIP3   OH238189   1.073   4.779   7.947  0.7518  0.1213  0.3955
 4665TIP3    H138190   1.161   4.756   7.917  0.9706  1.5434 -0.1333
 4665TIP3    H238191   1.026   4.804   7.868 -0.3778 -1.3190  0.5808
 4666TIP3   OH238192   1.222   3.731   8.203 -0.3440  0.3279  0.2972
 4666TIP3    H138193   1.132   3.701   8.218  0.0899  0.1594  3.0208
 4666TIP3    H238194   1.275   3.652   8.207 -0.1037  0.2261 -2.6534
 4667TIP3   OH238195   2.087   4.473   7.747  0.0579  0.3229  0.3139
 4667TIP3    H138196   2.048   4.533   7.683  1.1763  0.7372 -0.0013
 4667TIP3    H238197   2.156   4.427   7.699  0.4690  0.1506  1.0453
 4668TIP3   OH238198   6.767   6.849   7.783  0.0402 -0.1421 -0.1135
 4668TIP3    H138199   6.774   6.904   7.861 -0.1521 -0.7298  0.3267
 4668TIP3    H238200   6.739   6.910   7.714 -3.7471 -0.1931  1.1004
 4669TIP3   OH238201   7.173   3.889   8.776 -0.0675  0.5077  0.4192
 4669TIP3    H138202   7.142   3.874   8.687  0.1097  2.6236 -0.0349
 4669TIP3    H238203   7.146   3.810   8.824 -0.6662 -0.4204 -1.3496
 4670TIP3   OH238204   0.934   4.501   8.961  0.0144 -0.1184 -0.1263
 4670TIP3    H138205   0.959   4.513   9.053 -2.4389  1.2182  0.4372
 4670TIP3    H238206   1.004   4.447   8.925  2.5882  1.6807  1.7770
 4671TIP3   OH238207   1.952   5.052   9.731  0.0479 -0.3802  0.0602
 4671TIP3    H138208   1.896   4.999   9.674 -1.1339 -0.5764  1.3590
 4671TIP3    H238209   1.976   5.128   9.678 -1.3127 -0.3791 -0.5785
 4672TIP3   OH238210   0.476   5.058   8.173  0.3046 -0.4057  1.0058
 4672TIP3    H138211   0.556   5.098   8.140 -0.5203  0.4188 -0.0653
 4672TIP3    H238212   0.465   5.093   8.261  0.6859  0.1150  0.8491
 4673TIP3   OH238213   7.331   4.444   9.546  0.2482 -0.1863 -0.0574
 4673TIP3    H138214   7.350   4.479   9.459  0.3811 -0.3528 -0.0948
 4673TIP3    H238215   7.415   4.442   9.591  0.3537 -1.0725 -0.2788
 4674TIP3   OH238216   0.167   1.212   8.096 -0.1387 -0.6250  0.0007
 4674TIP3    H138217   0.153   1.189   8.005 -2.1336 -0.3950  0.1933
 4674TIP3    H238218   0.079   1.220   8.132  0.5178  1.9245  1.2839
 4675TIP3   OH238219   5.109   3.286   8.794 -0.5359  0.1683  0.2773
 4675TIP3    H138220   5.129   3.197   8.766 -1.5653 -0.2326  0.7463
 4675TIP3    H238221   5.049   3.318   8.726  1.5993  1.3786 -1.1654
 4676TIP3   OH238222   6.751   5.771   9.665  0.1000 -0.1631 -0.0968
 4676TIP3    H138223   6.668   5.723   9.663  0.8730 -1.5632  0.4912
 4676TIP3    H238224   6.760   5.800   9.755  0.0984  0.2709 -0.2348
 4677TIP3   OH238225   3.116   7.421   8.389  0.1119  0.1895 -0.1366
 4677TIP3    H138226   3.055   7.416   8.315 -0.9803  0.1233  0.7543
 4677TIP3    H238227   3.170   7.498   8.369 -0.9174  0.8553 -0.4600
 4678TIP3   OH238228   2.455   0.025   7.263  0.1811  0.5564  0.5829
 4678TIP3    H138229   2.457   0.116   7.236 -1.8273  0.6141  0.4860
 4678TIP3    H238230   2.395  -0.017   7.201  2.2620 -1.2088 -0.3806
 4679TIP3   OH238231   3.296   6.856   8.660  0.1643  0.4061  0.5086
 4679TIP3    H138232   3.212   6.882   8.624  0.5513  1.9531  0.6693
 4679TIP3    H238233   3.275   6.785   8.721 -0.8114 -0.3304 -0.6442
 4680TIP3   OH238234   1.228   1.461   8.604 -0.4355 -0.0122 -0.2767
 4680TIP3    H138235   1.221   1.396   8.534 -0.7686  0.8871 -1.1037
 4680TIP3    H238236   1.307   1.436   8.652  1.2363  0.7223 -2.4679
 4681TIP3   OH238237   7.126   0.781   7.674 -0.3450  0.0089 -0.5185
 4681TIP3    H138238   7.152   0.853   7.617  1.2504  0.6209  0.8938
 4681TIP3    H238239   7.199   0.770   7.734 -1.4650 -1.3723  0.6831
 4682TIP3   OH238240   2.807   3.641   7.900  0.0388 -0.5042 -0.3367
 4682TIP3    H138241   2.738   3.629   7.965 -0.1082 -0.4302 -0.4778
 4682TIP3    H238242   2.760   3.654   7.818  0.2412 -1.5283 -0.6226
 4683TIP3   OH238243   7.114   2.685   7.609 -0.4183 -0.4374  0.5725
 4683TIP3    H138244   7.131   2.679   7.515 -0.4337  1.3110  0.4216
 4683TIP3    H238245   7.019   2.688   7.617 -0.4289 -1.0392  0.6819
 4684TIP3   OH238246   1.504   1.508   8.024  0.0332  0.3768 -0.2332
 4684TIP3    H138247   1.428   1.475   7.977  0.1357 -1.1563  0.6107
 4684TIP3    H238248   1.577   1.497   7.963 -0.1261  0.1463 -0.3831
 4685TIP3   OH238249   6.391   3.478   7.185 -0.2485 -0.1803  0.0710
 4685TIP3    H138250   6.396   3.395   7.137  0.7381 -0.2353  0.2607
 4685TIP3    H238251   6.457   3.534   7.144 -0.8365  0.4855  0.0100
 4686TIP3   OH238252   6.612   1.433   9.113  0.1001 -0.5160  0.2510
 4686TIP3    H138253   6.638   1.512   9.160  1.3415 -0.0456 -1.1432
 4686TIP3    H238254   6.688   1.375   9.120 -0.5716 -1.3642  0.7391
 4687TIP3   OH238255   0.651   6.124   7.381 -0.1977 -0.5296  0.1379
 4687TIP3    H138256   0.597   6.102   7.457 -0.1507 -2.8397 -0.3952
 4687TIP3    H238257   0.588   6.146   7.312 -0.2582  0.9878  0.6444
 4688TIP3   OH238258   4.281   0.625   9.111 -0.1688 -0.0747 -0.3670
 4688TIP3    H138259   4.320   0.552   9.160  0.2707  0.4787  0.1403
 4688TIP3    H238260   4.344   0.696   9.123  0.7843 -0.3560 -3.1021
 4689TIP3   OH238261   2.155   3.094   7.968  1.0077  0.3552 -0.0886
 4689TIP3    H138262   2.124   3.166   8.023  0.9690  1.2559 -1.2279
 4689TIP3    H238263   2.208   3.137   7.901  1.1184 -0.6991 -0.7019
 4690TIP3   OH238264   3.852   4.272   7.005 -0.5557  0.2224 -0.2830
 4690TIP3    H138265   3.883   4.356   6.971 -1.1764  0.8479  0.6413
 4690TIP3    H238266   3.756   4.277   6.999 -0.6453  0.0373  0.7933
 4691TIP3   OH238267   4.179   2.652   8.613  0.5270  0.2025 -0.1468
 4691TIP3    H138268   4.252   2.709   8.589 -0.2409  0.8611 -1.0003
 4691TIP3    H238269   4.219   2.580   8.661  1.7114  0.6556 -0.4256
 4692TIP3   OH238270   2.663   0.818   7.595  0.0974 -0.2726 -0.0520
 4692TIP3    H138271   2.599   0.886   7.615  0.7852 -0.4638  3.3657
 4692TIP3    H238272   2.737   0.866   7.557 -1.2229  0.1831 -2.2099
 4693TIP3   OH238273   3.276   7.174   8.522 -0.1506  0.4392  0.4069
 4693TIP3    H138274   3.273   7.147   8.614 -0.3156  1.5254  0.7332
 4693TIP3    H238275   3.197   7.227   8.510 -0.5277 -0.3048 -0.5706
 4694TIP3   OH238276   2.487   1.471   8.728  0.3576  0.0757 -0.5105
 4694TIP3    H138277   2.561   1.445   8.673 -0.6292 -2.5955 -0.7122
 4694TIP3    H238278   2.498   1.420   8.808 -2.0834 -1.6745 -1.1979
 4695TIP3   OH238279   5.226   5.645   8.332  0.3161 -0.4287 -0.8126
 4695TIP3    H138280   5.290   5.716   8.326  0.5652 -0.5514  0.1719
 4695TIP3    H238281   5.142   5.689   8.321  0.5583 -0.3425 -2.6718
 4696TIP3   OH238282   3.682   7.271   8.823  0.3015  0.0008  0.3481
 4696TIP3    H138283   3.628   7.350   8.826 -0.3301 -0.3711 -0.6390
 4696TIP3    H238284   3.639   7.215   8.758  2.0927 -0.1618 -0.7567
 4697TIP3   OH238285   2.133   1.578   8.138 -0.2291  0.1106  0.0807
 4697TIP3    H138286   2.139   1.595   8.043  1.1396  0.5729  0.2292
 4697TIP3    H238287   2.123   1.483   8.145  0.4571 -0.0123 -0.5101
 4698TIP3   OH238288   4.490   4.845   7.484 -0.8220 -0.0469  0.1759
 4698TIP3    H138289   4.509   4.801   7.567  1.9729  1.9247  0.7438
 4698TIP3    H238290   4.455   4.930   7.510 -1.3259  0.0398 -0.7441
 4699TIP3   OH238291   4.859   0.741   8.924  0.6329  0.1366  0.2178
 4699TIP3    H138292   4.946   0.753   8.962  1.0164  0.9504 -0.8471
 4699TIP3    H238293   4.806   0.811   8.962  1.0485  1.0280 -0.7680
 4700TIP3   OH238294   7.281   3.869   7.464  0.0936 -0.0598 -0.3630
 4700TIP3    H138295   7.246   3.867   7.553  1.0261 -0.9488  0.0009
 4700TIP3    H238296   7.207   3.847   7.408  0.0089 -1.7317  0.3725
 4701TIP3   OH238297   0.588   7.448   9.700  0.4362  0.2449 -0.4586
 4701TIP3    H138298   0.631   7.363   9.693  0.3646  0.1874 -0.1986
 4701TIP3    H238299   0.496   7.430   9.680  0.2566  0.1047  0.4789
 4702TIP3   OH238300   6.172   5.695   8.647  0.8364  0.1082  0.0138
 4702TIP3    H138301   6.224   5.648   8.712  0.3109  0.6694  0.8594
 4702TIP3    H238302   6.207   5.784   8.647  0.1107  0.4042  0.3500
 4703TIP3   OH238303   0.221   3.474   8.452 -0.1189 -0.2889 -0.0635
 4703TIP3    H138304   0.259   3.390   8.425  0.7867  0.1126 -0.0605
 4703TIP3    H238305   0.181   3.508   8.372  0.3569 -0.2726 -0.2953
 4704TIP3   OH238306   4.156   0.519   7.271  0.2782 -0.2812  0.1911
 4704TIP3    H138307   4.220   0.574   7.224 -0.0873 -1.3510 -1.6460
 4704TIP3    H238308   4.096   0.489   7.203 -0.3156 -1.8750  1.3676
 4705TIP3   OH238309   0.665   1.646   7.988 -0.1613  0.8065  0.8307
 4705TIP3    H138310   0.616   1.638   8.070 -1.9765  1.7132 -0.1244
 4705TIP3    H238311   0.700   1.558   7.973  1.7741  1.0018  3.4530
 4706TIP3   OH238312   0.206   4.450   6.530  0.3848 -0.3350 -0.0552
 4706TIP3    H138313   0.148   4.472   6.602  1.2859  0.4262  0.4652
 4706TIP3    H238314   0.211   4.531   6.478  0.7150 -0.4927 -0.2733
 4707TIP3   OH238315   6.397   0.157   8.925 -0.3897 -0.2367  0.6029
 4707TIP3    H138316   6.487   0.143   8.953 -0.4824  0.8614  1.4757
 4707TIP3    H238317   6.399   0.240   8.877 -1.0019 -0.0148  0.9512
 4708TIP3   OH238318   7.008   3.900   7.691 -0.6790 -0.1956  0.3322
 4708TIP3    H138319   7.033   3.869   7.778  1.2076  0.4111  0.0649
 4708TIP3    H238320   7.010   3.822   7.636  0.8903 -0.1797  0.3083
 4709TIP3   OH238321   2.590   7.506   9.244 -0.1787  0.5225 -0.0325
 4709TIP3    H138322   2.636   7.423   9.230 -0.8922  0.4570 -2.3446
 4709TIP3    H238323   2.549   7.497   9.330  0.3676 -1.2080  0.0771
 4710TIP3   OH238324   7.100   2.404   7.724 -0.8074  0.4607 -0.4217
 4710TIP3    H138325   7.162   2.367   7.786 -1.1198  1.5040  0.5509
 4710TIP3    H238326   7.121   2.497   7.721 -0.9501  0.4703 -1.7162
 4711TIP3   OH238327   1.610   3.141   8.970 -0.0965  0.3577  0.4831
 4711TIP3    H138328   1.522   3.178   8.972  0.0760  0.7478  1.2192
 4711TIP3    H238329   1.633   3.129   9.062  0.7608  0.6071  0.3103
 4712TIP3   OH238330   2.185   4.027   8.896 -0.2048  0.5159 -0.4207
 4712TIP3    H138331   2.119   4.031   8.965 -1.3125  0.3405 -1.4317
 4712TIP3    H238332   2.226   3.941   8.908 -0.6492  0.3274 -0.2014
 4713TIP3   OH238333   6.835   2.380   7.082  0.0939  0.2657  0.1543
 4713TIP3    H138334   6.861   2.454   7.027  2.0099 -0.2555  0.2970
 4713TIP3    H238335   6.848   2.303   7.027 -1.8302 -0.0218  0.0296
 4714TIP3   OH238336   5.547   5.189   8.289 -0.5154 -0.0515  0.2775
 4714TIP3    H138337   5.486   5.124   8.323  1.1717 -2.1460 -0.4415
 4714TIP3    H238338   5.503   5.224   8.211 -0.9406 -1.3493 -0.1000
 4715TIP3   OH238339   5.585   7.024   9.646  0.1551  0.4395  0.0324
 4715TIP3    H138340   5.659   7.055   9.593 -0.1786 -0.8169 -1.2273
 4715TIP3    H238341   5.616   6.942   9.685  0.3563  1.2821  1.7746
 4716TIP3   OH238342   3.990   7.069   6.975  0.5474 -0.0285 -0.3738
 4716TIP3    H138343   3.901   7.048   7.002  0.7459 -1.1098 -0.5308
 4716TIP3    H238344   4.044   7.001   7.015  1.1364 -0.2203 -1.4562
 4717TIP3   OH238345   1.748   0.512   6.639  0.4548  0.7394  0.2896
 4717TIP3    H138346   1.690   0.441   6.667  1.6010 -0.6110 -0.6341
 4717TIP3    H238347   1.697   0.592   6.655 -0.8624 -0.2657  1.3792
 4718TIP3   OH238348   5.383   1.360   7.188 -0.2492 -0.6015 -0.0485
 4718TIP3    H138349   5.309   1.399   7.234  0.0060 -0.1789  0.0055
 4718TIP3    H238350   5.354   1.271   7.166 -0.0751 -1.1345  1.6967
 4719TIP3   OH238351   5.214   1.707   7.976 -0.5346  0.2702  0.3972
 4719TIP3    H138352   5.144   1.664   8.025 -0.4154 -1.2785 -0.7132
 4719TIP3    H238353   5.288   1.709   8.037 -0.9458  0.0900  0.9124
 4720TIP3   OH238354   6.647   5.551   8.298  0.4250  0.0665 -0.0812
 4720TIP3    H138355   6.555   5.568   8.279  0.1892 -0.6013  0.4020
 4720TIP3    H238356   6.677   5.629   8.345  0.0005  0.1256  0.0966
 4721TIP3   OH238357   0.933   2.592   7.249 -0.3905 -0.0128  0.5124
 4721TIP3    H138358   0.897   2.578   7.161 -1.3110  1.5360  0.6171
 4721TIP3    H238359   0.901   2.517   7.299  0.1597 -0.9291 -0.4476
 4722TIP3   OH238360   4.634   3.625   7.541  0.3473  0.1145 -0.3977
 4722TIP3    H138361   4.627   3.570   7.462 -0.0283 -0.9902  0.3749
 4722TIP3    H238362   4.561   3.687   7.533  0.2087 -0.0995 -0.8433
 4723TIP3   OH238363   4.332   4.342   7.678  0.4785  0.0180  0.1949
 4723TIP3    H138364   4.404   4.404   7.667  0.4881 -0.1556 -0.8503
 4723TIP3    H238365   4.326   4.298   7.593 -0.6108 -0.2403  0.3977
 4724TIP3   OH238366   1.348   7.427   8.139  0.2068 -0.1831 -0.1182
 4724TIP3    H138367   1.281   7.377   8.093  0.4666 -1.2864  0.6672
 4724TIP3    H238368   1.383   7.487   8.072  0.3244 -1.4839 -1.2715
 4725TIP3   OH238369   4.436   6.914   9.051 -0.6526  0.1714 -0.0116
 4725TIP3    H138370   4.451   6.976   8.980 -1.5119  1.5461  0.9764
 4725TIP3    H238371   4.369   6.854   9.018 -0.9868  0.7552 -0.3898
 4726TIP3   OH238372   4.007   5.800   9.158  0.5701 -0.1317  0.0486
 4726TIP3    H138373   4.072   5.870   9.145  0.1571  0.1098 -0.7529
 4726TIP3    H238374   3.939   5.818   9.094 -1.3522  0.8197  2.2109
 4727TIP3   OH238375   0.241   6.439   9.153  0.1189 -0.4097  0.3879
 4727TIP3    H138376   0.272   6.348   9.146  0.0707 -0.4405  0.5812
 4727TIP3    H238377   0.227   6.453   9.246 -0.7011 -0.4761  0.2792
 4728TIP3   OH238378   2.246   1.751   9.039  0.0249  0.4720  0.0934
 4728TIP3    H138379   2.185   1.685   9.004  0.4292 -0.8112  1.7361
 4728TIP3    H238380   2.189   1.814   9.083 -0.2164 -0.2029  0.7792
 4729TIP3   OH238381   7.433   6.637   8.497  0.0311  0.6646  0.5203
 4729TIP3    H138382   7.515   6.606   8.533 -0.0137  0.4957  0.4804
 4729TIP3    H238383   7.368   6.618   8.564 -0.6635 -2.8490 -0.9182
 4730TIP3   OH238384   2.631   6.871   9.336 -0.5125 -0.3049 -0.0129
 4730TIP3    H138385   2.649   6.959   9.368  2.6368 -1.1098  0.7313
 4730TIP3    H238386   2.666   6.813   9.403 -0.6041 -2.1184 -1.4426
 4731TIP3   OH238387   0.725   5.163   8.137 -0.2826  0.0273  0.4462
 4731TIP3    H138388   0.765   5.204   8.060 -0.8520  0.7137  0.5013
 4731TIP3    H238389   0.785   5.092   8.160 -0.5940 -0.8355 -1.2238
 4732TIP3   OH238390   4.514   2.091   7.039 -0.1418 -0.4368  0.7588
 4732TIP3    H138391   4.460   2.102   6.962 -0.2487  0.0216  0.8952
 4732TIP3    H238392   4.452   2.070   7.109 -0.1653  0.1854  0.9356
 4733TIP3   OH238393   4.733   6.264   9.019  0.2779 -0.3592 -0.0897
 4733TIP3    H138394   4.706   6.235   9.106  0.9567  1.3648  0.7271
 4733TIP3    H238395   4.743   6.182   8.969 -2.4002 -1.2706  0.7082
 4734TIP3   OH238396   2.633   4.111   7.705 -0.0156  0.3484 -0.0071
 4734TIP3    H138397   2.620   4.196   7.662  2.3885  0.1551 -1.2668
 4734TIP3    H238398   2.656   4.051   7.634  0.4880 -0.8624  1.1400
 4735TIP3   OH238399   5.930   2.845   6.895  0.3514  0.2457 -0.0828
 4735TIP3    H138400   5.965   2.922   6.939  0.6972 -1.0195  2.0172
 4735TIP3    H238401   6.006   2.790   6.877  0.0648  0.1733 -1.1378
 4736TIP3   OH238402   1.772   2.341   8.533  0.4873  0.0736 -0.3284
 4736TIP3    H138403   1.815   2.421   8.504  0.8726  0.3214  0.8951
 4736TIP3    H238404   1.843   2.282   8.558  0.2117 -0.6976 -1.2645
 4737TIP3   OH238405   1.266   0.603   9.220  0.0066 -0.1804 -0.3625
 4737TIP3    H138406   1.271   0.680   9.276 -0.9447 -0.9670  0.8874
 4737TIP3    H238407   1.333   0.544   9.255  0.8927  0.1436 -1.4617
 4738TIP3   OH238408   6.053   5.978   9.811  0.1321  0.2332 -0.1873
 4738TIP3    H138409   6.030   6.070   9.813 -0.1952  0.1560  2.4716
 4738TIP3    H238410   5.998   5.941   9.741 -0.8541  1.7740 -0.2666
 4739TIP3   OH238411   3.895   2.102   8.001  0.0201 -0.2173  0.0710
 4739TIP3    H138412   3.980   2.070   7.970  0.3596 -0.1674  0.9068
 4739TIP3    H238413   3.865   2.034   8.062 -0.5753 -0.2625 -0.2658
 4740TIP3   OH238414   5.638   0.685   6.978 -0.0341  0.0689  0.2055
 4740TIP3    H138415   5.632   0.623   6.905  0.0035  1.1757 -0.7701
 4740TIP3    H238416   5.610   0.635   7.054  0.9678 -1.4434 -0.3716
 4741TIP3   OH238417   0.151   6.799   8.797 -0.5806  0.1483  0.4775
 4741TIP3    H138418   0.115   6.766   8.879  0.3880  2.9223  2.1370
 4741TIP3    H238419   0.240   6.764   8.793 -1.3369 -1.7646 -0.5589
 4742TIP3   OH238420   1.882   0.048   7.808  0.0048 -0.2365  0.5683
 4742TIP3    H138421   1.875  -0.023   7.872 -0.3804  1.0980  2.0624
 4742TIP3    H238422   1.973   0.044   7.778  0.2887 -0.6613  1.4588
 4743TIP3   OH238423   1.147   6.977   8.681 -0.2264  0.6415  0.5126
 4743TIP3    H138424   1.081   7.036   8.645 -0.4112  1.2043  1.7279
 4743TIP3    H238425   1.102   6.932   8.753  0.0509 -0.6533 -0.0977
 4744TIP3   OH238426   7.307   5.080   9.175 -0.3120  0.3575 -0.0277
 4744TIP3    H138427   7.395   5.041   9.170 -1.6086 -2.8917  0.1368
 4744TIP3    H238428   7.298   5.105   9.267 -0.0311 -0.5875  0.2691
 4745TIP3   OH238429   6.809   0.019   8.803  0.4736  0.5107 -0.0591
 4745TIP3    H138430   6.859  -0.046   8.753  0.0068 -0.6881  0.9586
 4745TIP3    H238431   6.834   0.002   8.894 -2.4967 -0.8712  0.6226
 4746TIP3   OH238432   4.070   1.110   6.872  0.0588 -0.5639  0.3036
 4746TIP3    H138433   4.108   1.172   6.934 -0.2053  0.1963 -0.2905
 4746TIP3    H238434   4.140   1.094   6.808  0.0975 -0.8179  0.4074
 4747TIP3   OH238435   1.977   5.124   8.112 -0.2180  0.7348 -0.0466
 4747TIP3    H138436   1.909   5.156   8.053 -1.9762 -0.3688  1.2763
 4747TIP3    H238437   1.993   5.034   8.082 -1.1301  0.1651  1.1154
 4748TIP3   OH238438   0.586   7.303   7.638 -0.0923 -0.0139  0.6772
 4748TIP3    H138439   0.667   7.312   7.688  0.0385  1.2905  0.2759
 4748TIP3    H238440   0.599   7.359   7.561 -1.1956 -0.1544  0.3706
 4749TIP3   OH238441   1.546   7.644   9.559  0.0007  0.4474 -0.2897
 4749TIP3    H138442   1.588   7.702   9.623 -0.9400 -0.1211  0.8726
 4749TIP3    H238443   1.604   7.648   9.483  0.1569  2.6223 -0.1265
 4750TIP3   OH238444   1.238   1.362   9.305 -0.5111  0.4613 -0.2244
 4750TIP3    H138445   1.149   1.344   9.274 -0.3390  0.3611 -0.6614
 4750TIP3    H238446   1.226   1.428   9.373 -0.9827 -0.0294  0.1851
 4751TIP3   OH238447   6.395   2.781   8.485 -0.3043  0.2095  0.3771
 4751TIP3    H138448   6.381   2.693   8.517 -0.7258 -0.2439 -0.9582
 4751TIP3    H238449   6.308   2.821   8.484 -0.1497  0.5657  0.7542
 4752TIP3   OH238450   5.908   3.562   9.488  0.2027  0.2431 -0.1105
 4752TIP3    H138451   5.932   3.504   9.560  0.7298 -0.7933 -1.0967
 4752TIP3    H238452   5.816   3.540   9.469  0.0877  0.4619  0.1840
 4753TIP3   OH238453   5.701   2.860   9.581  0.0792  0.4558  0.2928
 4753TIP3    H138454   5.716   2.862   9.486 -1.9870  1.1759 -0.0681
 4753TIP3    H238455   5.730   2.773   9.608 -1.5353 -0.7112 -1.4582
 4754TIP3   OH238456   5.933   7.001   9.164  0.1718 -0.3492  0.5580
 4754TIP3    H138457   5.891   7.086   9.176 -0.3896 -0.5318 -0.1120
 4754TIP3    H238458   6.008   7.004   9.224  1.5331  1.5273 -1.1120
 4755TIP3   OH238459   7.598   0.656   7.347  0.1664 -0.6903 -0.2957
 4755TIP3    H138460   7.546   0.583   7.313 -0.1853 -1.6119  1.9936
 4755TIP3    H238461   7.616   0.631   7.438  0.8494  1.6575  0.2690
 4756TIP3   OH238462   1.359   4.108   7.506 -0.2915  0.1410 -0.2391
 4756TIP3    H138463   1.398   4.193   7.484 -1.3651  0.6009 -0.3956
 4756TIP3    H238464   1.418   4.044   7.465  1.2813  0.7240  0.9832
 4757TIP3   OH238465   6.796   1.144   8.921  0.0046  0.2532  0.5266
 4757TIP3    H138466   6.787   1.073   8.984 -1.6744  0.2953  0.3672
 4757TIP3    H238467   6.715   1.141   8.870  0.7805  1.0132 -0.8077
 4758TIP3   OH238468   5.159   7.243   8.577 -0.3581 -0.0561  0.3037
 4758TIP3    H138469   5.163   7.259   8.483 -1.9770 -0.7134  0.0929
 4758TIP3    H238470   5.165   7.148   8.585 -1.1459 -0.0725  0.7863
 4759TIP3   OH238471   2.305   3.661   7.281 -0.2197  0.3433 -0.0183
 4759TIP3    H138472   2.397   3.679   7.265 -0.4541  0.4977 -1.3523
 4759TIP3    H238473   2.303   3.613   7.364  1.0285  0.5498  0.1381
 4760TIP3   OH238474   2.371   5.320   7.473  0.0499 -0.2842  0.0416
 4760TIP3    H138475   2.464   5.330   7.496 -0.3496 -0.8344  2.0815
 4760TIP3    H238476   2.369   5.243   7.415  0.8517 -0.3049  0.0230
 4761TIP3   OH238477   4.332   2.385   8.661  0.1018  0.2139 -0.5545
 4761TIP3    H138478   4.402   2.448   8.643  0.1660  0.5563  0.7360
 4761TIP3    H238479   4.374   2.299   8.658  0.7232  0.4488  0.7092
 4762TIP3   OH238480   1.668   3.209   9.565  0.1279  0.4208 -0.5414
 4762TIP3    H138481   1.716   3.180   9.642 -0.0304 -0.2324 -0.6832
 4762TIP3    H238482   1.622   3.131   9.534 -1.1814  1.0631 -0.3067
 4763TIP3   OH238483   3.131   0.794   9.281  0.5372  0.3703 -0.2366
 4763TIP3    H138484   3.172   0.713   9.251 -0.0501  0.5429 -1.5818
 4763TIP3    H238485   3.068   0.816   9.212 -1.6173  0.2967  1.5983
 4764TIP3   OH238486   2.218   6.842   6.996 -0.1360  0.2795 -0.6343
 4764TIP3    H138487   2.134   6.839   6.952  1.6626 -0.0024 -4.4136
 4764TIP3    H238488   2.247   6.933   6.989  1.0046 -0.1391 -1.9365
 4765TIP3   OH238489   3.810   0.216   6.860  0.0785  0.0791 -0.9544
 4765TIP3    H138490   3.864   0.206   6.938  0.8057 -0.3969 -1.5066
 4765TIP3    H238491   3.732   0.164   6.877 -0.0366  0.4592 -0.3082
 4766TIP3   OH238492   4.005   4.523   8.823 -0.3821 -0.1173 -0.1814
 4766TIP3    H138493   4.022   4.469   8.900 -1.6124 -1.4311 -0.7715
 4766TIP3    H238494   3.921   4.565   8.841 -0.8224 -0.6616 -0.9008
 4767TIP3   OH238495   2.916   6.302   9.651  0.4272 -0.0589  0.3366
 4767TIP3    H138496   2.902   6.215   9.689 -0.7612 -0.4496 -0.8737
 4767TIP3    H238497   2.864   6.300   9.570  2.4629  0.8726 -1.0659
 4768TIP3   OH238498   1.170   3.115   7.610 -1.0214  0.3350 -0.0491
 4768TIP3    H138499   1.127   3.052   7.551 -0.0286 -0.7658  0.3724
 4768TIP3    H238500   1.107   3.128   7.681 -0.8692 -0.8856  0.3174
 4769TIP3   OH238501   2.485   4.436   8.741 -0.6554  0.1696 -0.2868
 4769TIP3    H138502   2.446   4.367   8.794  0.6545 -0.0363  0.4446
 4769TIP3    H238503   2.491   4.512   8.799 -0.6355  0.4157 -0.6054
 4770TIP3   OH238504   1.107   3.156   7.233 -0.3216  0.1765 -0.0711
 4770TIP3    H138505   1.175   3.221   7.251  1.3824 -1.7852  1.1825
 4770TIP3    H238506   1.099   3.155   7.138  0.1800  1.6316 -0.1508
 4771TIP3   OH238507   7.298   7.415   7.558  0.0738 -0.4535 -0.2465
 4771TIP3    H138508   7.230   7.348   7.546 -1.5111  0.5794  2.1661
 4771TIP3    H238509   7.378   7.366   7.572  0.2422 -1.7294 -4.2909
 4772TIP3   OH238510   2.502   6.209   9.334  0.7365  0.3492 -0.7358
 4772TIP3    H138511   2.448   6.170   9.265 -0.4781 -0.2183  0.4789
 4772TIP3    H238512   2.519   6.137   9.395  1.2973  0.9500 -0.1636
 4773TIP3   OH238513   5.279   3.310   8.324 -0.0196 -0.0468  0.2196
 4773TIP3    H138514   5.342   3.281   8.391 -0.2208  0.5889  0.6919
 4773TIP3    H238515   5.234   3.384   8.364  0.8662  1.2903 -1.1571
 4774TIP3   OH238516   0.489   4.817   7.693 -0.1640  0.3495  0.9070
 4774TIP3    H138517   0.423   4.781   7.633 -1.1706 -0.8308  2.6304
 4774TIP3    H238518   0.536   4.740   7.725  0.5266  0.9803  1.4371
 4775TIP3   OH238519   6.456   1.567   8.443  0.1450 -0.0294 -0.2621
 4775TIP3    H138520   6.471   1.478   8.475  1.2337  0.5931  1.0397
 4775TIP3    H238521   6.515   1.575   8.368  0.7869 -0.0902  0.2275
 4776TIP3   OH238522   4.520   6.971   8.389  0.1485  0.4043  0.3510
 4776TIP3    H138523   4.575   6.899   8.419  1.0690  1.7675  2.0805
 4776TIP3    H238524   4.431   6.940   8.402  0.5268 -0.0747  2.0092
 4777TIP3   OH238525   4.239   4.676   7.174 -0.0706 -0.5506  0.2860
 4777TIP3    H138526   4.245   4.728   7.094  1.1936  0.1944  0.8330
 4777TIP3    H238527   4.185   4.729   7.233  1.4989  0.3691  0.9648
 4778TIP3   OH238528   3.392   1.539   8.800 -0.0751 -0.2010 -0.1500
 4778TIP3    H138529   3.415   1.459   8.848  1.2413  0.5771  0.5854
 4778TIP3    H238530   3.445   1.535   8.721 -0.2094 -0.1739 -0.2417
 4779TIP3   OH238531   5.381   3.994   7.695 -0.1708  0.3933  0.0110
 4779TIP3    H138532   5.345   3.952   7.617  1.2386  0.6154 -0.7986
 4779TIP3    H238533   5.469   4.023   7.668  0.6526 -0.2007  1.8960
 4780TIP3   OH238534   4.902   3.816   6.993 -0.3633 -0.1227  1.0543
 4780TIP3    H138535   4.928   3.905   6.968 -1.3652 -0.4616 -1.4034
 4780TIP3    H238536   4.961   3.759   6.945 -1.2591 -0.7981  0.7242
 4781TIP3   OH238537   4.411   2.728   7.530 -0.1433 -0.2061  0.7732
 4781TIP3    H138538   4.458   2.791   7.585 -1.4976 -0.3708  2.1895
 4781TIP3    H238539   4.342   2.780   7.489  0.2440 -0.2979 -0.0217
 4782TIP3   OH238540   4.480   5.435   7.230  0.1905  0.0897  0.4401
 4782TIP3    H138541   4.553   5.386   7.268  1.2556  0.6137 -0.8453
 4782TIP3    H238542   4.506   5.527   7.240  0.5417  0.2443 -1.5440
 4783TIP3   OH238543   0.535   2.128   7.595  0.7233  0.3741 -0.0108
 4783TIP3    H138544   0.516   2.034   7.599 -0.0514  0.4670 -1.0832
 4783TIP3    H238545   0.596   2.137   7.522  0.4236  0.7549 -0.2162
 4784TIP3   OH238546   1.307   3.809   7.949 -0.5450  0.0142 -0.0834
 4784TIP3    H138547   1.326   3.891   7.994  0.5575 -1.2015  1.8175
 4784TIP3    H238548   1.244   3.765   8.005  0.6254 -1.4234  0.1633
 4785TIP3   OH238549   0.374   5.734   7.711 -0.0924  0.4314  0.2234
 4785TIP3    H138550   0.308   5.735   7.780  0.5621  2.6399  0.9250
 4785TIP3    H238551   0.456   5.714   7.757  0.1047  0.3139 -0.1798
 4786TIP3   OH238552   5.822   1.272   6.744  0.0152  0.4922 -0.3793
 4786TIP3    H138553   5.843   1.281   6.836  0.3145 -0.9928 -0.2691
 4786TIP3    H238554   5.780   1.354   6.720 -0.5305  0.6988  1.2016
 4787TIP3   OH238555   3.764   7.501   8.322 -0.1455  0.5289 -0.1671
 4787TIP3    H138556   3.854   7.512   8.290 -0.6807 -0.1882 -2.0799
 4787TIP3    H238557   3.735   7.419   8.282 -1.6174  0.6891  0.5131
 4788TIP3   OH238558   2.646   2.407   8.567 -0.2542  0.4538  0.0223
 4788TIP3    H138559   2.692   2.376   8.489  1.3151 -1.4240  1.5778
 4788TIP3    H238560   2.556   2.379   8.554 -0.3376  1.4060 -1.7030
 4789TIP3   OH238561   4.105   6.554   7.151 -0.3361  0.3447 -0.1103
 4789TIP3    H138562   4.029   6.566   7.095 -1.2684  0.5448  1.1656
 4789TIP3    H238563   4.074   6.572   7.239  1.2140  0.5301  0.4385
 4790TIP3   OH238564   0.777   0.236   7.764 -0.4154  0.3223  0.2648
 4790TIP3    H138565   0.742   0.312   7.716  1.7463  0.2268 -1.6368
 4790TIP3    H238566   0.705   0.173   7.765 -0.7639  0.5702 -2.4294
 4791TIP3   OH238567   7.097   6.674   7.150 -0.9354  0.0247 -0.5868
 4791TIP3    H138568   7.015   6.672   7.200 -0.4103 -0.9977  0.2388
 4791TIP3    H238569   7.145   6.597   7.178 -0.1774 -0.0202 -1.9286
 4792TIP3   OH238570   4.532   7.322   8.962 -0.0369  0.3929 -0.9073
 4792TIP3    H138571   4.518   7.268   8.885  0.7669  3.4073 -3.4018
 4792TIP3    H238572   4.459   7.384   8.962 -1.3620 -0.9467  2.2807
 4793TIP3   OH238573   4.754   0.136   7.308 -0.2834  0.1188 -0.4221
 4793TIP3    H138574   4.698   0.085   7.251 -2.3223  1.5390  0.2189
 4793TIP3    H238575   4.696   0.168   7.377  1.9790 -1.2424  2.3350
 4794TIP3   OH238576   5.489   2.955   7.264 -0.1176  0.7921 -0.6431
 4794TIP3    H138577   5.576   2.996   7.269  0.8809 -1.2973  0.9280
 4794TIP3    H238578   5.433   3.011   7.318  0.9392  0.7254  0.5661
 4795TIP3   OH238579   1.466   1.284   8.665 -0.4554  0.3511 -0.1306
 4795TIP3    H138580   1.414   1.234   8.602  0.7504 -0.7180 -0.3182
 4795TIP3    H238581   1.531   1.329   8.611  0.2898 -0.1975  0.3008
 4796TIP3   OH238582   1.640   3.849   6.840  0.5115 -0.3770  0.0724
 4796TIP3    H138583   1.581   3.848   6.765 -0.4687  1.6231  0.7599
 4796TIP3    H238584   1.699   3.922   6.824  1.0161 -0.6268  0.7221
 4797TIP3   OH238585   4.251   3.104   7.170 -0.1926  0.4372 -0.0829
 4797TIP3    H138586   4.190   3.031   7.176  0.2273  0.0929  0.0534
 4797TIP3    H238587   4.310   3.093   7.244  0.9998 -0.1307 -1.0784
 4798TIP3   OH238588   5.196   4.917   9.686 -0.2887 -0.3840  0.4596
 4798TIP3    H138589   5.130   4.910   9.616 -0.9020  2.6859  0.5826
 4798TIP3    H238590   5.272   4.957   9.644 -0.6269  1.4027  1.4026
 4799TIP3   OH238591   3.730   3.834   7.735 -0.2707 -0.1402  0.5536
 4799TIP3    H138592   3.779   3.777   7.795 -1.1912 -0.9264  0.5814
 4799TIP3    H238593   3.735   3.921   7.775  0.7852 -0.2722  0.7428
 4800TIP3   OH238594   7.577   5.718   8.041 -0.3798 -0.4776  0.8749
 4800TIP3    H138595   7.526   5.796   8.062  0.5304  0.1708  0.7686
 4800TIP3    H238596   7.520   5.666   7.985 -1.6180 -0.6965  2.2924
 4801TIP3   OH238597   2.224   5.419   7.141  0.1490  0.4094 -0.4300
 4801TIP3    H138598   2.229   5.326   7.165 -0.4884  0.3699 -0.4429
 4801TIP3    H238599   2.131   5.441   7.147  0.2986  1.0570 -0.3987
 4802TIP3   OH238600   2.524   6.458   9.408 -1.0041  0.0409 -0.2427
 4802TIP3    H138601   2.509   6.504   9.325 -0.9741 -0.5638 -0.5960
 4802TIP3    H238602   2.487   6.371   9.393  0.0718 -0.4698 -0.0556
 4803TIP3   OH238603   0.395   3.553   7.501 -0.2078 -0.0688 -0.2735
 4803TIP3    H138604   0.415   3.482   7.561 -1.4147  0.0713  0.3378
 4803TIP3    H238605   0.466   3.552   7.437 -1.4804 -3.5408 -1.9069
 4804TIP3   OH238606   2.087   0.327   8.778  0.4064  0.2768  0.0882
 4804TIP3    H138607   2.091   0.362   8.688  0.0921  0.5942  0.1941
 4804TIP3    H238608   2.031   0.389   8.825 -1.1787 -1.0106 -0.0071
 4805TIP3   OH238609   1.855   7.428   9.328  0.4506  0.1907  0.1145
 4805TIP3    H138610   1.936   7.378   9.341  0.3476  0.2585  1.0861
 4805TIP3    H238611   1.786   7.362   9.330  0.5467 -0.0030 -1.8091
 4806TIP3   OH238612   2.251   3.943   9.222 -0.1190  0.0926 -0.3808
 4806TIP3    H138613   2.181   3.877   9.218  0.2394 -0.2740 -0.5968
 4806TIP3    H238614   2.208   4.020   9.260 -0.5778 -0.2126 -0.2676
 4807TIP3   OH238615   3.694   6.793   9.514  0.3510 -0.0027 -0.5263
 4807TIP3    H138616   3.654   6.748   9.588 -0.4703  0.3598 -0.7253
 4807TIP3    H238617   3.761   6.733   9.482  0.5939 -0.2348  0.3975
 4808TIP3   OH238618   5.775   6.804   8.764 -0.0244  0.3000  0.0772
 4808TIP3    H138619   5.861   6.765   8.780 -0.2623 -0.2482  0.0037
 4808TIP3    H238620   5.779   6.889   8.809  0.9304  0.7525 -0.7971
 4809TIP3   OH238621   4.336   5.646   7.548 -0.0457 -0.3312 -0.3823
 4809TIP3    H138622   4.366   5.737   7.553 -0.9195 -0.0964  1.8531
 4809TIP3    H238623   4.308   5.635   7.458  1.0279  1.2919 -0.9656
 4810TIP3   OH238624   4.095   4.236   9.479  0.3903  0.1259  0.0310
 4810TIP3    H138625   4.035   4.180   9.527 -0.0122 -0.2067 -0.8315
 4810TIP3    H238626   4.121   4.184   9.403 -0.1599  1.1552 -0.8965
 4811TIP3   OH238627   3.164   4.017   8.522 -0.7368 -0.0007  0.1466
 4811TIP3    H138628   3.195   4.104   8.546  0.3637 -0.7004  1.4073
 4811TIP3    H238629   3.182   4.010   8.428  1.1716  0.3702  0.4420
 4812TIP3   OH238630   1.795   0.341   7.522 -0.1840  0.8048 -0.0556
 4812TIP3    H138631   1.881   0.365   7.558 -1.1133  1.8633  1.6020
 4812TIP3    H238632   1.755   0.288   7.592 -0.9078  0.3698 -0.7901
 4813TIP3   OH238633   7.212   0.359   6.843  0.3224 -0.4197  0.0852
 4813TIP3    H138634   7.243   0.335   6.755  0.9377  1.3105 -0.2074
 4813TIP3    H238635   7.229   0.282   6.896  0.8670 -1.1518 -1.1065
 4814TIP3   OH238636   4.460   3.756   7.829 -0.4299 -0.0430  0.2196
 4814TIP3    H138637   4.422   3.722   7.910  2.0931 -2.4490  0.5311
 4814TIP3    H238638   4.549   3.781   7.853  0.3469 -0.7385 -1.7582
 4815TIP3   OH238639   5.946   5.783   7.801 -0.3734 -0.4867  0.8112
 4815TIP3    H138640   5.932   5.871   7.834 -0.7937  0.3198 -1.3284
 4815TIP3    H238641   5.859   5.743   7.802  0.0651 -1.5717  3.4010
 4816TIP3   OH238642   6.708   4.058   6.873  0.1928  0.1863 -0.0130
 4816TIP3    H138643   6.710   4.079   6.966 -0.0578 -0.3075  0.1084
 4816TIP3    H238644   6.703   4.143   6.829  0.5164  0.4276  0.4143
 4817TIP3   OH238645   4.057   0.700   7.867  0.3167 -0.4365 -0.3534
 4817TIP3    H138646   3.970   0.661   7.877  0.4981 -0.6829  0.2783
 4817TIP3    H238647   4.040   0.794   7.857 -0.0100 -0.4675 -0.0812
 4818TIP3   OH238648   7.230   4.810   8.601  0.2830  0.3117  0.7280
 4818TIP3    H138649   7.253   4.898   8.571 -1.1074  0.0097 -1.4711
 4818TIP3    H238650   7.137   4.817   8.624 -0.3419 -0.9052 -1.1572
 4819TIP3   OH238651   5.717   4.145   8.122 -0.2677 -0.0087 -0.2504
 4819TIP3    H138652   5.693   4.052   8.129  0.6377 -0.2114  0.2342
 4819TIP3    H238653   5.733   4.158   8.028 -1.2983 -0.1037 -0.4525
 4820TIP3   OH238654   1.541   5.283   7.741  0.2676 -0.2437 -0.5807
 4820TIP3    H138655   1.573   5.373   7.737  0.5608 -0.3370 -0.4220
 4820TIP3    H238656   1.577   5.242   7.663  2.6282 -1.0018  0.7968
 4821TIP3   OH238657   5.217   1.136   8.501 -0.3434 -0.1387  0.7738
 4821TIP3    H138658   5.208   1.178   8.416  0.8347  1.1565  1.2629
 4821TIP3    H238659   5.304   1.096   8.499 -0.4293 -0.3590  1.2700
 4822TIP3   OH238660   5.895   6.178   9.447 -0.1113 -0.0928 -0.3441
 4822TIP3    H138661   5.838   6.229   9.390  0.3402 -0.1503 -0.8462
 4822TIP3    H238662   5.974   6.161   9.395 -0.7963 -2.5105 -0.7311
 4823TIP3   OH238663   1.865   0.388   8.315  0.5450 -0.1102 -0.7500
 4823TIP3    H138664   1.800   0.371   8.247  0.2213 -3.8633  0.2673
 4823TIP3    H238665   1.949   0.383   8.269  0.2520  0.4562 -1.3552
 4824TIP3   OH238666   2.123   3.382   9.461 -0.5595  0.7717  0.2589
 4824TIP3    H138667   2.213   3.413   9.453  0.0006  0.0173  2.8426
 4824TIP3    H238668   2.129   3.287   9.448 -1.0346  0.7533  0.1349
 4825TIP3   OH238669   4.921   7.396   8.570  0.4318  0.5009 -0.1841
 4825TIP3    H138670   4.869   7.392   8.650 -0.6333  1.6583 -0.7916
 4825TIP3    H238671   4.973   7.315   8.571  0.3001  0.4012  1.5636
 4826TIP3   OH238672   3.849   4.693   9.313  0.1270  0.2471  0.2750
 4826TIP3    H138673   3.791   4.660   9.245 -0.1290  2.3897 -0.6353
 4826TIP3    H238674   3.836   4.634   9.387 -0.2833 -1.5883 -1.2024
 4827TIP3   OH238675   6.312   7.494   7.982  0.0773 -0.3360 -0.3348
 4827TIP3    H138676   6.262   7.413   7.973  1.7921 -1.5466  0.6358
 4827TIP3    H238677   6.286   7.528   8.068 -0.6580  0.2035 -0.7509
 4828TIP3   OH238678   4.302   3.114   9.593  0.0541  0.5493 -0.2707
 4828TIP3    H138679   4.254   3.190   9.626 -0.5092  0.9953 -1.9851
 4828TIP3    H238680   4.317   3.134   9.500  3.0962  0.1998  0.0265
 4829TIP3   OH238681   0.977   5.045   6.683  0.6917  0.4319  0.8143
 4829TIP3    H138682   0.894   5.046   6.634  1.1644  2.3279 -0.0186
 4829TIP3    H238683   0.967   5.114   6.748  1.5303  0.4840  0.8900
 4830TIP3   OH238684   4.891   5.667   7.217  0.2873  0.2931 -0.2096
 4830TIP3    H138685   4.798   5.687   7.211  0.0826 -0.7265 -0.6837
 4830TIP3    H238686   4.912   5.622   7.135  1.2855  0.8266 -0.2696
 4831TIP3   OH238687   7.324   7.499   7.845  0.2256 -0.3249  0.5189
 4831TIP3    H138688   7.335   7.592   7.824  0.8487 -0.6072 -0.4327
 4831TIP3    H238689   7.338   7.454   7.762  0.9572 -1.3495  1.1828
 4832TIP3   OH238690   7.584   4.366   9.641  0.7260 -0.7017 -0.2856
 4832TIP3    H138691   7.657   4.340   9.585  1.4015 -0.2360  0.3549
 4832TIP3    H238692   7.622   4.376   9.728 -0.0132 -0.0455 -0.0170
 4833TIP3   OH238693   5.319   2.927   8.449  0.4579  0.1199  0.2070
 4833TIP3    H138694   5.405   2.934   8.489 -0.0827 -1.4719  1.7721
 4833TIP3    H238695   5.315   2.836   8.417 -0.3581  0.4051 -0.5627
 4834TIP3   OH238696   5.720   1.856   6.870 -0.2948 -0.2749  0.4050
 4834TIP3    H138697   5.631   1.892   6.875  0.5076  1.8184  0.1408
 4834TIP3    H238698   5.748   1.874   6.781  0.1336 -1.6792  0.2252
 4835TIP3   OH238699   6.498   5.713   9.650  0.1539  0.4527 -0.5397
 4835TIP3    H138700   6.486   5.625   9.615  1.6415  0.3013 -0.7553
 4835TIP3    H238701   6.410   5.745   9.667 -0.4367 -0.8193 -1.0991
 4836TIP3   OH238702   2.356   5.911   6.820  0.0378 -0.7428 -0.3739
 4836TIP3    H138703   2.342   5.845   6.752  2.1961 -0.6587 -0.9654
 4836TIP3    H238704   2.402   5.865   6.890 -1.2626 -0.5806  0.6319
 4837TIP3   OH238705   4.929   5.307   9.359  0.1657 -0.1555 -0.3112
 4837TIP3    H138706   4.999   5.249   9.327  0.6421  0.0291  0.3632
 4837TIP3    H238707   4.851   5.278   9.312  0.6860 -0.3895 -1.0589
 4838TIP3   OH238708   1.061   5.543   8.419  0.0345 -0.1573  0.2930
 4838TIP3    H138709   1.018   5.567   8.501 -1.2727 -0.7616 -0.1893
 4838TIP3    H238710   1.146   5.507   8.445  0.4455  1.4126  1.2471
 4839TIP3   OH238711   2.697   1.323   8.929  0.2048  0.4109 -0.3211
 4839TIP3    H138712   2.606   1.296   8.944  0.2871  0.0319 -0.5139
 4839TIP3    H238713   2.712   1.307   8.836  0.6982 -0.2021 -0.1327
 4840TIP3   OH238714   7.367   7.119   8.913 -0.0047 -0.4853 -0.4383
 4840TIP3    H138715   7.411   7.066   8.847  3.3141 -0.6990  1.7525
 4840TIP3    H238716   7.294   7.065   8.942  0.3503 -1.6972 -1.7033
 4841TIP3   OH238717   3.606   0.244   8.004  0.1924 -0.6955 -0.2581
 4841TIP3    H138718   3.522   0.276   8.038 -0.2440 -1.7710 -0.2642
 4841TIP3    H238719   3.665   0.248   8.079  0.1903  0.2236 -0.2949
 4842TIP3   OH238720   4.408   1.089   9.200 -0.6307 -0.2984 -0.2232
 4842TIP3    H138721   4.334   1.149   9.202  0.2383  0.8109 -0.5122
 4842TIP3    H238722   4.457   1.108   9.280 -0.5635 -0.9295 -0.1026
 4843TIP3   OH238723   1.706   4.039   8.933  0.0634 -0.1499  0.3200
 4843TIP3    H138724   1.796   4.007   8.941  0.1720 -1.4418 -3.7963
 4843TIP3    H238725   1.715   4.119   8.881 -1.1636 -0.1939  0.0302
 4844TIP3   OH238726   2.899   3.460   8.842  0.4408 -0.8987 -0.4865
 4844TIP3    H138727   2.984   3.504   8.836  1.1751 -2.3546 -1.3042
 4844TIP3    H238728   2.848   3.496   8.770 -0.0856  0.8594  0.7286
 4845TIP3   OH238729   4.229   2.520   9.249 -0.1085 -0.6408 -0.2093
 4845TIP3    H138730   4.142   2.544   9.217 -0.9417 -3.0870 -0.0335
 4845TIP3    H238731   4.229   2.424   9.248  1.6896 -0.7690  2.1507
 4846TIP3   OH238732   5.985   0.324   8.791 -0.1752  0.5574  0.1845
 4846TIP3    H138733   5.936   0.380   8.851 -0.3314 -2.2083  2.9036
 4846TIP3    H238734   6.065   0.303   8.839  0.5290 -0.3706 -1.3530
 4847TIP3   OH238735   1.424   2.093   8.667 -0.1984 -0.6590 -0.2954
 4847TIP3    H138736   1.464   2.155   8.605 -0.8072 -0.9450 -0.9859
 4847TIP3    H238737   1.346   2.061   8.622 -1.7708  0.5712  1.3817
 4848TIP3   OH238738   5.598   1.521   8.780 -0.2821  0.0862 -0.5503
 4848TIP3    H138739   5.533   1.568   8.728  0.8423  1.9657 -0.3580
 4848TIP3    H238740   5.633   1.586   8.840  1.8462 -0.8217 -0.7129
 4849TIP3   OH238741   4.698   2.197   7.211 -0.1438 -0.6905  0.2478
 4849TIP3    H138742   4.641   2.222   7.284 -1.7908 -2.9324 -0.1342
 4849TIP3    H238743   4.638   2.165   7.144  1.4692 -1.0380 -1.0901
 4850TIP3   OH238744   5.153   5.212   9.798  0.0997  0.4298  0.2259
 4850TIP3    H138745   5.091   5.202   9.726  0.5456  0.3754 -0.1566
 4850TIP3    H238746   5.163   5.124   9.833 -1.2730  0.6833  1.3483
 4851TIP3   OH238747   0.679   1.697   6.856  0.2681  0.7687 -0.0196
 4851TIP3    H138748   0.700   1.786   6.885  0.9585  0.6671 -0.2130
 4851TIP3    H238749   0.763   1.652   6.852  0.0088  0.3321 -0.6987
 4852TIP3   OH238750   6.456   7.208   8.957  0.1742  0.1621 -0.2288
 4852TIP3    H138751   6.461   7.303   8.946  0.4024  0.0045 -1.5911
 4852TIP3    H238752   6.410   7.177   8.880  0.7457 -0.9157 -0.1585
 4853TIP3   OH238753   6.246   7.001   8.998  0.2712  0.7675 -0.2925
 4853TIP3    H138754   6.265   6.926   9.054  0.4681  1.0487  0.0209
 4853TIP3    H238755   6.321   7.059   9.009 -1.1787  2.4207  1.8568
 4854TIP3   OH238756   6.509   4.706   9.491 -0.4601 -0.2399  0.1308
 4854TIP3    H138757   6.460   4.788   9.493  0.1572  0.1245  0.7218
 4854TIP3    H238758   6.533   4.696   9.399  0.5214  0.9106  0.2238
 4855TIP3   OH238759   0.812   1.047   9.265 -0.4529  0.4255 -0.6548
 4855TIP3    H138760   0.734   1.000   9.294  0.0557 -1.4079 -2.0797
 4855TIP3    H238761   0.778   1.128   9.226 -1.6182 -0.2209 -1.0110
 4856TIP3   OH238762   4.039   3.401   7.881  0.1840  0.4366  0.5268
 4856TIP3    H138763   4.103   3.455   7.927  0.8895 -2.1374  2.8288
 4856TIP3    H238764   3.974   3.378   7.948  0.4412 -2.2645 -0.0405
 4857TIP3   OH238765   4.003   2.493   6.872  0.9190  0.5224  0.5445
 4857TIP3    H138766   4.031   2.581   6.847 -0.9302  1.2080  0.6994
 4857TIP3    H238767   3.933   2.508   6.935  1.3147 -1.0999  1.4172
 4858TIP3   OH238768   1.620   4.765   9.081  0.2035 -0.1023 -0.3914
 4858TIP3    H138769   1.713   4.768   9.106 -0.0988  0.3443  0.7148
 4858TIP3    H238770   1.587   4.853   9.098 -0.6721 -0.5350  0.2070
 4859TIP3   OH238771   3.163   0.278   6.958 -0.2220  0.1687 -0.5049
 4859TIP3    H138772   3.150   0.309   7.048  1.7386 -0.1524 -0.0703
 4859TIP3    H238773   3.255   0.294   6.941 -0.2852 -0.9588 -2.0186
 4860TIP3   OH238774   6.832   1.285   8.227 -0.1585 -0.2067  0.1089
 4860TIP3    H138775   6.742   1.252   8.238 -0.2924  0.1077 -0.0292
 4860TIP3    H238776   6.853   1.326   8.311 -0.9226  1.5667 -0.5000
 4861TIP3   OH238777   6.216   6.446   7.991  0.0805 -0.3740 -1.1193
 4861TIP3    H138778   6.303   6.424   7.956  0.5544 -0.8102  0.2729
 4861TIP3    H238779   6.231   6.524   8.045 -0.3555 -0.5920 -0.6819
 4862TIP3   OH238780   6.914   3.161   8.378  0.4044  0.3245  0.9529
 4862TIP3    H138781   6.890   3.098   8.310  1.3759 -0.5791  1.4129
 4862TIP3    H238782   6.984   3.213   8.338 -1.5807  2.3890 -0.0808
 4863TIP3   OH238783   3.622   7.617   9.201 -0.3257 -0.9625 -0.2209
 4863TIP3    H138784   3.585   7.534   9.231 -2.0462  0.4425  1.8699
 4863TIP3    H238785   3.552   7.656   9.149  0.4465 -0.7650 -1.1306
 4864TIP3   OH238786   4.546   4.997   8.132  0.0880 -0.0812  0.1417
 4864TIP3    H138787   4.568   5.012   8.224 -0.6766  0.8688  0.1885
 4864TIP3    H238788   4.451   5.007   8.129  0.0690 -0.4594 -0.7007
 4865TIP3   OH238789   3.034   3.739   9.398  0.2382 -0.1477 -0.2545
 4865TIP3    H138790   3.062   3.657   9.357  0.1987 -0.1546 -0.2683
 4865TIP3    H238791   3.080   3.807   9.349  0.8371 -0.1984  0.2220
 4866TIP3   OH238792   5.132   1.217   8.760  0.1594 -0.3399  0.2715
 4866TIP3    H138793   5.119   1.171   8.677  0.6190 -0.1926  0.1143
 4866TIP3    H238794   5.093   1.160   8.826 -1.5505  0.2330 -0.2037
 4867TIP3   OH238795   6.361   5.892   8.497 -0.0131 -0.1244 -0.2973
 4867TIP3    H138796   6.324   5.924   8.415  1.3022  0.3163 -0.7308
 4867TIP3    H238797   6.313   5.941   8.565 -1.7664 -1.1696 -0.7211
 4868TIP3   OH238798   5.327   1.099   7.097 -0.4168  0.5121  0.3018
 4868TIP3    H138799   5.235   1.116   7.077 -1.1577 -0.4252  2.5157
 4868TIP3    H238800   5.332   1.004   7.106  0.8871  0.5097 -0.2756
 4869TIP3   OH238801   7.050   5.393   9.689 -0.3880 -0.0498  0.0062
 4869TIP3    H138802   7.052   5.298   9.699 -0.7303  0.1273  2.2200
 4869TIP3    H238803   6.967   5.412   9.646 -0.9470 -0.6879  0.7811
 4870TIP3   OH238804   5.868   7.512   8.373  0.3768  0.1348 -0.0952
 4870TIP3    H138805   5.790   7.522   8.319  0.4075  2.2441  0.1501
 4870TIP3    H238806   5.844   7.445   8.437 -0.1698 -1.3363 -1.7722
 4871TIP3   OH238807   4.957   1.980   8.646 -0.1084 -0.1605  0.1699
 4871TIP3    H138808   4.893   1.967   8.576  2.5293 -0.1375 -2.4295
 4871TIP3    H238809   4.985   1.892   8.669 -0.3914 -0.1260  0.6670
 4872TIP3   OH238810   5.645   0.481   8.133  0.1817 -0.4974  0.6297
 4872TIP3    H138811   5.656   0.438   8.047  0.2898 -2.2923  1.4875
 4872TIP3    H238812   5.620   0.571   8.112 -1.3288 -1.2903 -1.3075
 4873TIP3   OH238813   7.084   7.587   7.660 -0.1879 -0.1590  0.2255
 4873TIP3    H138814   7.160   7.558   7.609 -0.2275 -1.2625  0.7828
 4873TIP3    H238815   7.073   7.520   7.727 -1.9200 -0.2477 -0.1123
 4874TIP3   OH238816   5.054   3.548   9.419  0.1869  0.8831 -0.2303
 4874TIP3    H138817   5.044   3.637   9.453 -0.6415  0.6477  0.1655
 4874TIP3    H238818   5.103   3.559   9.337 -0.2305  1.7338 -0.3743
 4875TIP3   OH238819   1.342   4.059   8.037  0.3883  0.2071 -0.3022
 4875TIP3    H138820   1.332   4.141   8.086  1.1437 -0.0922  0.3708
 4875TIP3    H238821   1.275   4.064   7.968  0.0536  1.1343  0.0742
 4876TIP3   OH238822   5.178   1.475   8.884  0.0630  0.3735  0.2154
 4876TIP3    H138823   5.150   1.523   8.806  2.0959 -1.0043 -1.5149
 4876TIP3    H238824   5.195   1.386   8.852 -0.9565 -0.8038  2.6958
 4877TIP3   OH238825   5.010   3.796   8.968 -0.0557  0.1824  0.1695
 4877TIP3    H138826   4.920   3.766   8.962  0.3969 -1.3077  0.3806
 4877TIP3    H238827   5.021   3.822   9.060 -0.1091 -0.2408  0.3009
 4878TIP3   OH238828   2.789   6.359   9.413 -0.4118  0.0098 -0.1359
 4878TIP3    H138829   2.727   6.422   9.449 -0.4651 -0.7404  1.1167
 4878TIP3    H238830   2.748   6.330   9.331 -0.7089  1.0662 -0.3791
 4879TIP3   OH238831   4.981   2.958   7.562 -0.4028  0.8256 -0.1180
 4879TIP3    H138832   4.897   2.912   7.552  0.6075 -1.2490  0.2922
 4879TIP3    H238833   4.997   2.997   7.477 -1.0518 -0.1064 -0.6917
 4880TIP3   OH238834   2.257   1.714   7.154 -0.3219  0.1231  0.0776
 4880TIP3    H138835   2.329   1.774   7.174 -0.2250  0.3387 -0.8332
 4880TIP3    H238836   2.300   1.641   7.108 -0.7524  0.5914 -1.1139
 4881TIP3   OH238837   0.058   1.893   8.402  0.2632 -0.0616  0.1778
 4881TIP3    H138838   0.002   1.959   8.443  0.5993 -0.1978  0.8874
 4881TIP3    H238839   0.131   1.882   8.464  0.2268 -1.0771  0.0572
 4882TIP3   OH238840   0.522   1.293   6.586 -0.0134  0.2839  0.2695
 4882TIP3    H138841   0.444   1.270   6.636 -0.8210 -0.1220 -1.1252
 4882TIP3    H238842   0.533   1.387   6.601  0.6896 -0.1017  2.4305
 4883TIP3   OH238843   1.431   4.871   7.303  0.1386 -0.3293 -0.1513
 4883TIP3    H138844   1.347   4.911   7.283  0.1850  0.1483  0.5813
 4883TIP3    H238845   1.456   4.825   7.223 -0.1471  0.7038 -0.8480
 4884TIP3   OH238846   5.038   0.019   7.239  0.5540 -0.7686  0.2039
 4884TIP3    H138847   5.012  -0.057   7.188  0.1754 -0.0486 -0.6964
 4884TIP3    H238848   5.107   0.060   7.188 -0.3077  0.3513 -0.1104
 4885TIP3   OH238849   5.581   6.183   7.539  0.3620 -0.2711 -0.6432
 4885TIP3    H138850   5.621   6.113   7.590  0.3809  0.4163  0.3007
 4885TIP3    H238851   5.618   6.172   7.451 -1.5127 -2.9892 -1.2467
 4886TIP3   OH238852   7.228   5.681   8.150 -0.0419  0.3042  0.2304
 4886TIP3    H138853   7.232   5.642   8.237  1.2400  1.7791  0.8688
 4886TIP3    H238854   7.268   5.616   8.092 -1.4499 -0.9501  0.5951
 4887TIP3   OH238855   6.994   6.942   7.445 -0.2448  0.7427  0.0875
 4887TIP3    H138856   7.088   6.959   7.444  0.1777 -1.3627 -1.1021
 4887TIP3    H238857   6.979   6.896   7.527  0.3029 -1.3953 -0.9628
 4888TIP3   OH238858   2.291   2.530   7.452 -0.1079 -0.6604  0.1822
 4888TIP3    H138859   2.309   2.588   7.377 -0.2411  0.1061  0.7315
 4888TIP3    H238860   2.197   2.513   7.447  0.0306 -1.3300 -0.3232
 4889TIP3   OH238861   0.250   6.709   9.056  0.3790 -0.5844 -0.2653
 4889TIP3    H138862   0.159   6.708   9.088  0.5205  0.0236  0.1656
 4889TIP3    H238863   0.276   6.616   9.058  0.6744 -0.5345  2.2962
 4890TIP3   OH238864   4.889   3.607   8.587 -0.5243 -0.3554  0.5011
 4890TIP3    H138865   4.941   3.669   8.536 -1.7688 -0.1147 -0.5239
 4890TIP3    H238866   4.803   3.648   8.594 -1.4419 -2.0429 -0.3774
 4891TIP3   OH238867   1.930   6.829   8.349  0.1792 -0.4755 -0.2355
 4891TIP3    H138868   1.963   6.846   8.261  1.1581 -0.4564  0.1214
 4891TIP3    H238869   1.999   6.778   8.391 -0.5988 -1.1156  0.2861
 4892TIP3   OH238870   3.637   2.892   8.205 -0.8099 -0.2709  0.0027
 4892TIP3    H138871   3.646   2.902   8.110  3.0720  0.0863  0.2569
 4892TIP3    H238872   3.624   2.799   8.218  0.1468 -0.5435 -0.8545
 4893TIP3   OH238873   3.893   3.730   7.930  0.0985 -0.1326 -0.3920
 4893TIP3    H138874   3.875   3.761   8.018 -1.7584  0.0128 -0.7863
 4893TIP3    H238875   3.961   3.664   7.941  0.7108  0.6941  0.9922
 4894TIP3   OH238876   1.943   6.531   8.042 -0.1150  0.2888 -0.4244
 4894TIP3    H138877   2.034   6.552   8.067 -0.1883 -0.2505  0.3373
 4894TIP3    H238878   1.895   6.612   8.058  0.1614  0.4587 -0.4365
 4895TIP3   OH238879   3.008   2.060   7.092 -0.0215  0.3627  0.2270
 4895TIP3    H138880   3.065   2.074   7.168  1.1283 -1.4963 -0.2131
 4895TIP3    H238881   3.047   2.111   7.022  1.5790 -1.4098 -0.2477
 4896TIP3   OH238882   6.081   7.597   7.627 -0.0081  0.0245 -0.0961
 4896TIP3    H138883   6.070   7.503   7.643 -0.9712  0.0526 -0.5278
 4896TIP3    H238884   5.993   7.628   7.607  0.5194  0.7694 -1.3177
 4897TIP3   OH238885   2.848   6.050   8.977 -0.8446  0.2513  0.1568
 4897TIP3    H138886   2.943   6.050   8.988 -0.6261 -1.4182 -1.1975
 4897TIP3    H238887   2.814   6.013   9.058 -0.2651 -0.0213  0.2786
 4898TIP3   OH238888   1.239   2.495   9.172  0.4517 -0.1398 -0.0003
 4898TIP3    H138889   1.156   2.512   9.216  1.3956  1.2799  1.3887
 4898TIP3    H238890   1.251   2.400   9.176 -1.6702 -0.5223 -1.4174
 4899TIP3   OH238891   0.021   6.113   8.159  0.0785  0.1307  0.0293
 4899TIP3    H138892   0.050   6.204   8.162 -0.2940  0.2342  1.2177
 4899TIP3    H238893   0.080   6.066   8.219  1.1424 -0.7020 -1.5992
 4900TIP3   OH238894   5.536   4.038   7.329 -0.0809 -0.2933 -0.1278
 4900TIP3    H138895   5.624   4.068   7.308  0.0885 -1.3204 -0.9422
 4900TIP3    H238896   5.498   4.013   7.244 -0.4619 -1.6694  0.4165
 4901TIP3   OH238897   6.189   1.489   9.083  0.5666  0.1697 -0.2117
 4901TIP3    H138898   6.110   1.533   9.051  0.8097 -0.0626 -1.1577
 4901TIP3    H238899   6.201   1.523   9.172 -1.6493 -1.1743  0.6738
 4902TIP3   OH238900   0.779   5.745   7.649  0.4269  0.0682  0.2141
 4902TIP3    H138901   0.687   5.773   7.645  0.5680  0.6537  0.7833
 4902TIP3    H238902   0.776   5.662   7.697  0.2399  0.3460  0.6947
 4903TIP3   OH238903   6.342   2.298   7.065 -0.0812 -0.2084 -0.3547
 4903TIP3    H138904   6.295   2.282   7.146  0.5333 -0.8370 -0.1143
 4903TIP3    H238905   6.337   2.393   7.052 -2.2278 -0.3373 -0.8465
 4904TIP3   OH238906   5.063   0.714   7.601 -0.2337 -0.3118  0.1892
 4904TIP3    H138907   5.074   0.773   7.675  0.9884  1.9373 -1.6592
 4904TIP3    H238908   4.977   0.736   7.565  0.1494  0.2762 -0.3971
 4905TIP3   OH238909   4.699   4.665   8.774  0.5782 -0.1835 -0.1100
 4905TIP3    H138910   4.618   4.625   8.806  0.4400 -0.1066 -0.3689
 4905TIP3    H238911   4.726   4.611   8.700  0.7487 -0.1895 -0.0461
 4906TIP3   OH238912   2.740   2.723   8.283  0.1613  0.1837  0.0808
 4906TIP3    H138913   2.761   2.788   8.349  1.4730  0.7025 -0.8063
 4906TIP3    H238914   2.657   2.752   8.245  0.5287  1.1187 -0.0251
 4907TIP3   OH238915   4.034   6.068   9.901  0.6134 -0.3822  0.0256
 4907TIP3    H138916   4.044   5.990   9.846 -0.7076 -0.2408 -0.4463
 4907TIP3    H238917   4.049   6.036   9.991  0.3931 -1.1139 -0.1902
 4908TIP3   OH238918   0.496   4.363   6.838 -0.2745  0.2671 -0.1556
 4908TIP3    H138919   0.492   4.439   6.779  0.1148  0.1012 -0.3968
 4908TIP3    H238920   0.469   4.289   6.783 -1.9666  0.4190  0.4261
 4909TIP3   OH238921   3.979   4.880   8.690 -0.2895 -0.3666  0.1507
 4909TIP3    H138922   3.897   4.855   8.647 -0.9164 -0.6753  1.4596
 4909TIP3    H238923   3.955   4.889   8.782  1.1657 -0.4925  0.5620
 4910TIP3   OH238924   5.003   6.540   8.546  0.1287  0.6963 -0.6046
 4910TIP3    H138925   5.079   6.598   8.541  1.4225 -0.5327  2.4570
 4910TIP3    H238926   4.947   6.579   8.613  0.2083 -0.6448  0.2870
 4911TIP3   OH238927   0.351   2.221   8.033 -0.1768 -0.4219  0.0007
 4911TIP3    H138928   0.318   2.310   8.028 -1.3869 -0.9188 -1.4662
 4911TIP3    H238929   0.310   2.184   8.111  0.4267  0.3153  0.6817
 4912TIP3   OH238930   3.749   6.068   8.738  0.0663 -0.0839  0.1082
 4912TIP3    H138931   3.673   6.010   8.728  0.2010 -0.6354  1.9143
 4912TIP3    H238932   3.732   6.140   8.679 -0.8783 -1.1988 -1.0319
 4913TIP3   OH238933   4.787   7.396   8.315  0.7686  0.2623  0.0904
 4913TIP3    H138934   4.814   7.400   8.407  0.5650  0.4833  0.1423
 4913TIP3    H238935   4.745   7.311   8.306  2.7884 -0.7415 -0.3557
 4914TIP3   OH238936   4.274   5.728   8.151  0.4465  0.0977  0.0011
 4914TIP3    H138937   4.227   5.698   8.228  1.5429 -3.2383 -0.4657
 4914TIP3    H238938   4.213   5.714   8.078  0.6404 -0.0612 -0.1310
 4915TIP3   OH238939   5.484   0.546   7.688  0.7681  0.0486  0.0699
 4915TIP3    H138940   5.392   0.549   7.713  0.5556  1.1096 -0.7680
 4915TIP3    H238941   5.485   0.570   7.595  1.9541  0.7173  0.2303
 4916TIP3   OH238942   3.874   6.921   7.806  0.3305  1.0750 -0.1897
 4916TIP3    H138943   3.916   6.940   7.889 -0.5536 -0.7637  0.7335
 4916TIP3    H238944   3.843   7.006   7.775 -1.5151  1.5416  2.6090
 4917TIP3   OH238945   0.996   6.593   8.610  0.4275 -0.2010  0.0404
 4917TIP3    H138946   1.063   6.658   8.589  0.7612 -0.1476  1.2023
 4917TIP3    H238947   0.959   6.568   8.525  0.8769  0.8772 -0.4893
 4918TIP3   OH238948   5.043   1.052   8.954 -0.3485 -0.0600 -0.2580
 4918TIP3    H138949   5.084   0.973   8.989 -0.1306  0.2762  0.2581
 4918TIP3    H238950   5.033   1.109   9.030 -1.4647  0.0019 -0.4351
 4919TIP3   OH238951   6.398   5.157   9.052  0.0596  0.9081  0.0984
 4919TIP3    H138952   6.366   5.237   9.093  2.9204  3.2016 -1.8003
 4919TIP3    H238953   6.379   5.167   8.959  0.7714 -0.4774 -0.2349
 4920TIP3   OH238954   2.910   3.887   8.996 -0.0403 -0.2903  0.5758
 4920TIP3    H138955   2.959   3.903   9.076  0.8295 -0.6057  0.1122
 4920TIP3    H238956   2.945   3.949   8.933 -0.5516 -0.2151  0.3594
 4921TIP3   OH238957   6.997   6.502   8.879 -0.3613 -0.3549  0.2828
 4921TIP3    H138958   7.050   6.423   8.879 -1.5043 -1.1389  0.4524
 4921TIP3    H238959   7.052   6.567   8.835 -0.5061 -1.9838 -2.5467
 4922TIP3   OH238960   4.353   3.449   8.356 -0.0783 -0.3161 -0.0884
 4922TIP3    H138961   4.409   3.524   8.373 -0.4411 -0.4854  2.1508
 4922TIP3    H238962   4.411   3.383   8.319  0.4985  0.6085 -0.8664
 4923TIP3   OH238963   2.297   4.235   9.315  0.2597 -0.0491  0.0939
 4923TIP3    H138964   2.309   4.326   9.287  1.9995 -0.8901 -2.1506
 4923TIP3    H238965   2.382   4.209   9.350  0.2260 -1.2309 -0.6568
 4924TIP3   OH238966   2.136   3.762   7.573 -0.1515  0.3405 -0.6091
 4924TIP3    H138967   2.122   3.807   7.657  0.2158  1.6323 -1.2138
 4924TIP3    H238968   2.217   3.713   7.585 -0.1912  0.3777 -0.1600
 4925TIP3   OH238969   2.349   4.258   8.891  0.2104 -0.4869  0.2691
 4925TIP3    H138970   2.306   4.175   8.913 -0.7099  0.1018  0.7534
 4925TIP3    H238971   2.372   4.297   8.975 -0.4456  0.2998  0.0983
 4926TIP3   OH238972   5.992   6.753   8.313 -0.3283 -0.4792  0.5155
 4926TIP3    H138973   5.946   6.669   8.309 -0.0631 -0.6485  0.9618
 4926TIP3    H238974   5.922   6.819   8.309 -0.7906 -0.7350  2.8085
 4927TIP3   OH238975   1.940   4.086   7.876 -0.3142  0.2917  0.1483
 4927TIP3    H138976   1.845   4.088   7.874 -0.3165  0.0775 -1.0670
 4927TIP3    H238977   1.966   4.092   7.783  0.8941  2.0913  0.5512
 4928TIP3   OH238978   5.453   1.904   7.928  0.1865 -0.8634 -0.5473
 4928TIP3    H138979   5.382   1.895   7.864 -2.1250 -2.7710  2.0481
 4928TIP3    H238980   5.451   1.997   7.952 -2.8318 -1.1701  0.8117
 4929TIP3   OH238981   6.553   6.719   8.576 -0.0613 -0.4879 -0.5437
 4929TIP3    H138982   6.519   6.643   8.623  0.2519  0.7942  1.9095
 4929TIP3    H238983   6.502   6.793   8.608  0.1773  0.4928 -2.2748
 4930TIP3   OH238984   6.962   3.579   9.345 -0.0665 -0.3926  0.0085
 4930TIP3    H138985   7.054   3.567   9.324 -0.2409  0.0832 -1.0539
 4930TIP3    H238986   6.941   3.668   9.318 -0.3222  0.2942  2.2337
 4931TIP3   OH238987   4.454   3.227   8.849 -0.6427 -0.6985 -0.3730
 4931TIP3    H138988   4.409   3.152   8.889 -0.2838  0.0610  1.5797
 4931TIP3    H238989   4.420   3.231   8.760 -1.4235 -2.5627 -0.2013
 4932TIP3   OH238990   1.084   6.781   8.228  0.1811 -0.2251 -0.2910
 4932TIP3    H138991   1.066   6.724   8.153 -0.6614 -0.4206  0.0484
 4932TIP3    H238992   1.000   6.825   8.245  0.5552  0.3632  0.0837
 4933TIP3   OH238993   5.677   6.935   7.840 -0.4361  0.2870 -0.4153
 4933TIP3    H138994   5.764   6.903   7.862 -1.5795 -1.4222  2.0475
 4933TIP3    H238995   5.688   7.030   7.827  1.7919  0.0664 -0.4161
 4934TIP3   OH238996   1.088   1.410   8.999  0.3730 -0.3658  0.1162
 4934TIP3    H138997   1.087   1.492   8.950 -1.1566 -1.3763 -1.6783
 4934TIP3    H238998   1.037   1.428   9.078 -1.7876 -0.0911 -1.2572
 4935TIP3   OH238999   0.605   0.855   8.859  0.1294  0.1464  0.1662
 4935TIP3    H139000   0.674   0.831   8.797  1.2076  0.4353  1.2298
 4935TIP3    H239001   0.563   0.932   8.820  2.9943  2.4715  1.2856
 4936TIP3   OH239002   1.195   5.130   9.513  0.0813  0.3220 -0.0918
 4936TIP3    H139003   1.136   5.204   9.510  1.2540  1.2597 -1.0967
 4936TIP3    H239004   1.276   5.164   9.552  0.0878 -0.8547  1.0021
 4937TIP3   OH239005   7.491   6.585   6.979 -0.2715  0.1077 -0.1204
 4937TIP3    H139006   7.514   6.586   6.886 -1.1178 -1.8753 -0.3866
 4937TIP3    H239007   7.508   6.496   7.008 -0.2440  0.6252  1.6082
 4938TIP3   OH239008   0.355   1.475   6.915 -0.0307  0.4826 -0.2777
 4938TIP3    H139009   0.307   1.558   6.905 -0.7860  0.0852  0.0270
 4938TIP3    H239010   0.376   1.449   6.825  2.8705  2.5022 -0.3277
 4939TIP3   OH239011   0.612   7.269   8.625  0.2024 -0.6360 -0.0260
 4939TIP3    H139012   0.652   7.223   8.699  1.1074  0.4926  0.2140
 4939TIP3    H239013   0.681   7.327   8.593  0.0047 -1.4336 -2.0769
 4940TIP3   OH239014   0.825   3.965   8.009 -0.0203 -0.3844  0.6901
 4940TIP3    H139015   0.787   4.019   8.078  3.0819 -0.5835  2.7623
 4940TIP3    H239016   0.894   4.019   7.972  1.8366 -2.1202  1.4412
 4941TIP3   OH239017   1.586   1.847   7.121 -0.2591 -0.3694 -0.2290
 4941TIP3    H139018   1.635   1.927   7.099  1.0636 -0.4403  2.1543
 4941TIP3    H239019   1.654   1.782   7.138 -1.2778 -1.3904  0.0361
 4942TIP3   OH239020   0.144   3.524   8.188  0.3429  0.0983  0.3210
 4942TIP3    H139021   0.236   3.522   8.163  0.5952  2.1257  0.9176
 4942TIP3    H239022   0.098   3.554   8.110  0.0234 -1.7382 -0.2539
 4943TIP3   OH239023   7.312   6.869   7.844  0.8357  0.3954 -0.0437
 4943TIP3    H139024   7.310   6.908   7.931  2.6453 -1.3155  0.8405
 4943TIP3    H239025   7.222   6.878   7.812 -0.0946  0.3666  2.3234
 4944TIP3   OH239026   0.049   3.093   9.517  0.2629  0.0428  0.1345
 4944TIP3    H139027  -0.015   3.162   9.497  0.2424 -0.5257 -2.0395
 4944TIP3    H239028   0.133   3.129   9.487  0.5589 -0.1699  0.6952
 4945TIP3   OH239029   5.141   4.846   8.895  0.3686  0.3815 -0.0096
 4945TIP3    H139030   5.060   4.796   8.903  0.7380 -0.0858  0.9308
 4945TIP3    H239031   5.138   4.908   8.967  0.5090  0.8714 -0.4198
 4946TIP3   OH239032   1.053   7.059   7.859  0.1429  0.0363  0.9429
 4946TIP3    H139033   0.969   7.021   7.835 -0.1333  0.1417  1.7172
 4946TIP3    H239034   1.110   6.984   7.877  0.5456 -0.0603 -0.6278
 4947TIP3   OH239035   2.457   1.076   6.866 -0.1419  0.7554  0.0737
 4947TIP3    H139036   2.527   1.110   6.921  0.7253 -1.3038  0.3621
 4947TIP3    H239037   2.396   1.149   6.856  0.8334  1.8860  1.8207
 4948TIP3   OH239038   4.232   5.102   9.312 -0.1760  0.8371  0.0349
 4948TIP3    H139039   4.163   5.036   9.313 -0.0128  0.6638  0.5200
 4948TIP3    H239040   4.307   5.058   9.273 -0.7065  1.4268 -1.7316
 4949TIP3   OH239041   4.873   2.061   8.351  0.0562 -0.2601 -0.0563
 4949TIP3    H139042   4.937   1.997   8.322  1.5804  1.3373 -0.3875
 4949TIP3    H239043   4.798   2.009   8.380 -0.1920 -2.1239 -3.4763
 4950TIP3   OH239044   7.030   7.508   8.079 -0.3264 -0.0087  0.5850
 4950TIP3    H139045   7.055   7.597   8.055  1.2830 -0.0361  1.9728
 4950TIP3    H239046   7.057   7.455   8.005 -0.4827  0.5286  0.1315
 4951TIP3   OH239047   3.637   5.122   6.827  0.0106 -0.1966 -0.0063
 4951TIP3    H139048   3.557   5.111   6.776  0.1918 -2.2375  0.0584
 4951TIP3    H239049   3.606   5.128   6.918 -0.1322  0.0049 -0.0685
 4952TIP3   OH239050   4.980   7.360   8.132  0.6579  0.0101  0.4268
 4952TIP3    H139051   4.923   7.315   8.069  0.0814  0.7808  0.3784
 4952TIP3    H239052   4.923   7.378   8.207  1.1081 -0.1081  0.7975
 4953TIP3   OH239053   2.100   6.673   8.478 -0.3168  0.9893  0.4366
 4953TIP3    H139054   2.063   6.696   8.563  1.3596  0.3958  1.3776
 4953TIP3    H239055   2.190   6.706   8.481 -0.3252  1.2598 -1.2551
 4954TIP3   OH239056   5.878   6.109   8.788  0.0178 -0.4239 -0.2863
 4954TIP3    H139057   5.956   6.157   8.761  0.1750  0.5839  1.7862
 4954TIP3    H239058   5.805   6.166   8.764 -0.1093 -1.1483 -1.7708
 4955TIP3   OH239059   1.908   5.022   9.041 -0.0941  0.3464 -0.0749
 4955TIP3    H139060   1.838   5.042   9.103 -0.2705  2.5733 -0.8883
 4955TIP3    H239061   1.980   5.080   9.066  0.2093  0.5257 -1.2785
 4956TIP3   OH239062   0.787   6.934   7.502 -0.3258  0.0659 -0.0234
 4956TIP3    H139063   0.722   7.002   7.487 -1.3211 -0.9750 -0.5576
 4956TIP3    H239064   0.761   6.862   7.444  2.3578  0.3013 -1.6723
 4957TIP3   OH239065   0.023   2.707   8.776  0.7080  0.2816  0.1390
 4957TIP3    H139066   0.009   2.641   8.709 -0.6034  2.9870 -2.4816
 4957TIP3    H239067  -0.051   2.767   8.766  1.2057  1.5809  3.1355
 4958TIP3   OH239068   6.481   6.479   8.094 -0.3087 -0.1519  0.4512
 4958TIP3    H139069   6.499   6.464   8.001  2.4036 -0.1520  0.8946
 4958TIP3    H239070   6.496   6.572   8.107  1.5036 -0.5014  1.2336
 4959TIP3   OH239071   5.643   3.972   8.956 -0.1726 -0.1069  0.0186
 4959TIP3    H139072   5.675   3.942   9.041 -0.6637 -2.0084 -0.4202
 4959TIP3    H239073   5.721   4.004   8.911  0.7958 -2.5127 -0.1641
 4960TIP3   OH239074   3.250   6.309   9.263  0.1149 -0.8008  0.5232
 4960TIP3    H139075   3.295   6.355   9.334  1.1561  0.0853 -0.6845
 4960TIP3    H239076   3.314   6.247   9.229 -0.5121 -1.5120  0.5910
 4961TIP3   OH239077   1.136   0.852   8.546 -0.5047  0.2129  0.0907
 4961TIP3    H139078   1.044   0.855   8.519  0.1839  0.4281 -2.4659
 4961TIP3    H239079   1.170   0.772   8.505  1.1057  1.6179 -1.4904
 4962TIP3   OH239080   1.191   2.738   7.349  0.3504 -0.0499 -0.3157
 4962TIP3    H139081   1.117   2.682   7.328 -0.6264  1.3883 -0.8758
 4962TIP3    H239082   1.242   2.688   7.412 -0.3393 -1.6425 -0.9856
 4963TIP3   OH239083   2.180   2.404   9.189  0.0737  0.1537  0.4447
 4963TIP3    H139084   2.177   2.447   9.104  2.1448 -1.3758 -0.5117
 4963TIP3    H239085   2.094   2.363   9.199 -0.2147  0.4040 -0.8979
 4964TIP3   OH239086   6.273   1.333   8.685 -0.3270 -0.0843  0.9164
 4964TIP3    H139087   6.218   1.264   8.721 -0.4318 -0.5659 -0.1378
 4964TIP3    H239088   6.337   1.351   8.754  0.0809 -1.6617  0.9855
 4965TIP3   OH239089   3.910   0.498   7.443  0.4517  0.1990  1.1776
 4965TIP3    H139090   3.999   0.509   7.410  0.2408 -0.1042  0.4828
 4965TIP3    H239091   3.888   0.407   7.426 -0.1702  0.3940  0.8630
 4966TIP3   OH239092   1.967   0.854   8.773  0.2579 -0.6820 -0.1247
 4966TIP3    H139093   1.935   0.769   8.804  1.0278 -0.7635  0.4796
 4966TIP3    H239094   2.055   0.835   8.739  1.1868  0.1480  1.6577
 4967TIP3   OH239095   5.027   4.539   7.929 -0.8342 -0.3649 -0.0398
 4967TIP3    H139096   4.954   4.507   7.877 -1.9868  2.1462 -0.0947
 4967TIP3    H239097   5.095   4.560   7.865 -0.2084 -2.2050 -0.0299
 4968TIP3   OH239098   0.060   7.101   8.890 -0.1498  0.2598  0.1114
 4968TIP3    H139099   0.065   7.034   8.957 -0.5362  0.7667  0.6576
 4968TIP3    H239100  -0.025   7.088   8.849 -0.0498  0.1523 -0.0607
 4969TIP3   OH239101   0.207   4.518   6.953  0.4055  0.5149  0.0730
 4969TIP3    H139102   0.152   4.594   6.975 -1.2805 -0.5181 -0.3704
 4969TIP3    H239103   0.199   4.510   6.858  0.3814 -0.3604  0.1468
 4970TIP3   OH239104   5.312   6.332   8.287  0.0086 -0.3106  0.2350
 4970TIP3    H139105   5.247   6.309   8.353 -0.5997  0.6896  0.0089
 4970TIP3    H239106   5.265   6.391   8.227  1.0690  0.2882 -0.0289
 4971TIP3   OH239107   4.884   6.203   8.449  0.7187 -0.1086 -0.3523
 4971TIP3    H139108   4.852   6.197   8.539 -0.5350  1.2052 -0.6782
 4971TIP3    H239109   4.946   6.130   8.441  2.2122  0.7535  2.0850
 4972TIP3   OH239110   6.762   2.875   6.936 -0.2255 -0.4208  0.3819
 4972TIP3    H139111   6.737   2.927   7.013  2.9568  1.4277  0.3276
 4972TIP3    H239112   6.762   2.938   6.864 -1.1740 -1.6829 -0.7608
 4973TIP3   OH239113   1.195   0.001   8.384  0.5315 -0.0953  0.1317
 4973TIP3    H139114   1.101  -0.016   8.384  0.3698  0.7309  0.6854
 4973TIP3    H239115   1.204   0.087   8.343  0.9094  0.4435  1.2939
 4974TIP3   OH239116   5.355   4.212   8.351  0.6069 -0.1045  0.1233
 4974TIP3    H139117   5.370   4.117   8.358  1.9403  0.2019  1.8735
 4974TIP3    H239118   5.438   4.252   8.374  0.0182  1.5262 -0.4458
 4975TIP3   OH239119   7.602   6.478   7.997  0.2109  0.4807 -0.4735
 4975TIP3    H139120   7.602   6.512   8.087 -1.0603  1.5376 -0.8513
 4975TIP3    H239121   7.584   6.554   7.942 -1.1889 -0.5063 -1.4650
 4976TIP3   OH239122   0.255   3.301   9.454  0.0480 -0.3455  0.6323
 4976TIP3    H139123   0.349   3.279   9.456  0.2768  0.5171  0.0759
 4976TIP3    H239124   0.247   3.377   9.512 -0.3301 -0.4932  0.7749
 4977TIP3   OH239125   3.186   4.645   9.085 -0.5444 -0.7161 -0.2588
 4977TIP3    H139126   3.247   4.580   9.048  0.9321  0.1672  0.5415
 4977TIP3    H239127   3.232   4.728   9.077 -1.8627  0.0550 -0.0426
 4978TIP3   OH239128   6.881   5.185   9.118  0.3685  0.1530  0.1207
 4978TIP3    H139129   6.905   5.106   9.165 -0.7031  0.9946  2.1971
 4978TIP3    H239130   6.824   5.154   9.048  1.4890 -1.0650 -0.3052
 4979TIP3   OH239131   3.866   0.950   9.434 -0.4262 -0.2114 -0.0212
 4979TIP3    H139132   3.778   0.980   9.456  0.0661  0.0549  1.7662
 4979TIP3    H239133   3.853   0.883   9.366 -1.9821 -0.1041  0.1450
 4980TIP3   OH239134   0.111   4.178   8.882 -0.1891  0.1164 -0.0662
 4980TIP3    H139135   0.206   4.189   8.884 -0.1100 -0.3226 -0.9502
 4980TIP3    H239136   0.086   4.198   8.792 -1.1757  2.0008  0.5779
 4981TIP3   OH239137   4.701   4.803   8.028 -0.1936 -0.1322 -0.2351
 4981TIP3    H139138   4.636   4.870   8.048  0.2734  0.3065 -0.1542
 4981TIP3    H239139   4.774   4.851   7.988 -0.1529 -0.6931 -0.8420
 4982TIP3   OH239140   6.467   6.212   8.645 -0.3819  0.0262  0.8812
 4982TIP3    H139141   6.462   6.171   8.731  1.2879 -0.5254  0.7623
 4982TIP3    H239142   6.542   6.169   8.602 -0.3707  1.1877 -0.3428
 4983TIP3   OH239143   6.484   2.134   7.690 -0.8011  0.3495  0.5612
 4983TIP3    H139144   6.458   2.120   7.599  0.6239  0.7276  0.0638
 4983TIP3    H239145   6.493   2.046   7.726 -1.4430  0.1980  0.3703
 4984TIP3   OH239146   7.391   5.002   8.830  0.6315 -0.1050 -0.3078
 4984TIP3    H139147   7.299   4.995   8.855  0.5096 -2.2938 -1.1464
 4984TIP3    H239148   7.437   4.939   8.886  1.6470  0.9899  0.1344
 4985TIP3   OH239149   2.268   4.773   8.448  0.5833 -0.2976  0.2382
 4985TIP3    H139150   2.205   4.709   8.480  1.5694 -0.4537  2.0492
 4985TIP3    H239151   2.234   4.802   8.364  0.1261 -3.2514 -0.7062
 4986TIP3   OH239152   3.548   0.706   7.786 -0.0683  0.2165  0.2500
 4986TIP3    H139153   3.629   0.756   7.794  0.4930 -0.5075 -0.6227
 4986TIP3    H239154   3.571   0.632   7.729 -2.0018  1.4618 -2.3538
 4987TIP3   OH239155   1.331   4.642   7.998 -0.3153  0.2426  0.3899
 4987TIP3    H139156   1.417   4.657   8.037 -0.9142  2.2020  1.1203
 4987TIP3    H239157   1.287   4.583   8.060  0.2021 -0.0645  0.4672
 4988TIP3   OH239158   0.058   2.893   8.235  0.0115  1.2399  0.0931
 4988TIP3    H139159   0.061   2.804   8.198 -0.9210  0.3298  2.0995
 4988TIP3    H239160   0.034   2.948   8.161 -1.0127 -0.3986 -0.8698
 4989TIP3   OH239161   4.217   7.193   9.441  0.2483  0.6059 -0.4053
 4989TIP3    H139162   4.186   7.116   9.489  0.0374  0.8286 -0.1851
 4989TIP3    H239163   4.257   7.157   9.362 -2.8463  0.4186 -1.9999
 4990TIP3   OH239164   0.586   6.144   8.442 -0.0319 -0.1916 -0.1958
 4990TIP3    H139165   0.544   6.229   8.427 -0.9456 -0.6620 -0.3962
 4990TIP3    H239166   0.575   6.129   8.536 -0.3406 -0.3242 -0.2518
 4991TIP3   OH239167   1.731   5.451   8.153 -0.4918 -0.2023 -0.4197
 4991TIP3    H139168   1.774   5.453   8.238 -1.2576 -1.2397  0.0120
 4991TIP3    H239169   1.801   5.467   8.090  0.1575  0.1337  0.3808
 4992TIP3   OH239170   5.856   0.324   6.670 -0.1185 -0.4195  0.1548
 4992TIP3    H139171   5.890   0.236   6.655 -0.3645 -0.5830  0.5477
 4992TIP3    H239172   5.794   0.314   6.742 -0.0759  0.0922  0.2687
 4993TIP3   OH239173   7.436   0.721   8.308 -0.1016 -0.0051 -0.4005
 4993TIP3    H139174   7.341   0.728   8.318 -0.2665  0.2036 -1.8438
 4993TIP3    H239175   7.461   0.799   8.260  1.1734  1.1269  1.9312
 4994TIP3   OH239176   6.744   2.685   7.283 -0.2615  0.4766  0.6597
 4994TIP3    H139177   6.682   2.613   7.285 -0.6240  0.6036 -2.1358
 4994TIP3    H239178   6.829   2.644   7.265 -0.4438  0.6839 -0.7885
 4995TIP3   OH239179   1.824   1.062   8.185 -0.3984  0.3843  0.3689
 4995TIP3    H139180   1.855   1.143   8.226 -1.5177 -0.2801  2.7439
 4995TIP3    H239181   1.750   1.035   8.240 -1.0312 -1.4463 -1.2736
 4996TIP3   OH239182   1.718   4.866   7.968  0.3162 -0.6638  0.1241
 4996TIP3    H139183   1.659   4.898   7.900  0.3148  1.0610  0.8697
 4996TIP3    H239184   1.704   4.772   7.971 -2.1514 -0.3574  0.0481
 4997TIP3   OH239185   5.927   5.319   8.246 -0.3294 -0.4007 -0.0911
 4997TIP3    H139186   5.914   5.393   8.186 -0.7465 -0.3924  0.0072
 4997TIP3    H239187   5.900   5.352   8.331 -2.0363 -1.1268 -0.3090
 4998TIP3   OH239188   3.992   6.953   8.073  0.3661  0.1023 -0.0376
 4998TIP3    H139189   3.912   6.912   8.104  1.2420 -1.5152  0.2094
 4998TIP3    H239190   3.967   7.042   8.052 -1.6832 -0.5824 -0.7370
 4999TIP3   OH239191   6.111   5.767   8.044 -0.3831 -0.2927 -0.3588
 4999TIP3    H139192   6.190   5.806   8.007 -0.4124  1.9960  1.7655
 4999TIP3    H239193   6.054   5.751   7.969  1.8783 -1.6367 -1.8963
 5000TIP3   OH239194   1.948   7.189   8.198  0.0878  0.2862  0.6596
 5000TIP3    H139195   2.018   7.147   8.246  0.3326  0.5595  0.5504
 5000TIP3    H239196   1.980   7.194   8.108 -0.3434 -0.1771  0.4715
 5001TIP3   OH239197   5.713   5.481   9.673 -0.0916  0.5213  0.4294
 5001TIP3    H139198   5.662   5.516   9.600 -1.6013 -1.0545  0.6687
 5001TIP3    H239199   5.685   5.533   9.749 -2.1720 -0.9404  0.7450
 5002TIP3   OH239200   6.194   3.629   8.383  0.4293 -0.2982  0.0318
 5002TIP3    H139201   6.246   3.552   8.362 -0.9218 -1.6018  1.2183
 5002TIP3    H239202   6.131   3.599   8.448 -1.2088  1.4117 -0.6475
 5003TIP3   OH239203   3.652   6.184   9.573  0.4258  0.1540 -0.0080
 5003TIP3    H139204   3.710   6.136   9.513  0.0060  0.0259 -0.3173
 5003TIP3    H239205   3.608   6.248   9.517 -0.2458 -0.2149  0.0910
 5004TIP3   OH239206   1.432   0.169   7.496  0.2309 -0.0203 -0.3988
 5004TIP3    H139207   1.446   0.112   7.421  0.6813  2.1274 -2.0571
 5004TIP3    H239208   1.447   0.113   7.572 -0.5836 -2.3684 -1.8657
 5005TIP3   OH239209   5.748   3.028   7.290 -0.2736 -0.4297 -0.3805
 5005TIP3    H139210   5.791   3.101   7.247 -0.2513  2.3202  3.7962
 5005TIP3    H239211   5.815   2.960   7.294  1.2163  0.9713 -0.5188
 5006TIP3   OH239212   3.037   0.510   6.872  0.4799  0.2411  0.2788
 5006TIP3    H139213   3.063   0.591   6.915  0.7122  0.8956 -1.0296
 5006TIP3    H239214   3.055   0.441   6.936  1.4730  1.1032  0.9579
 5007TIP3   OH239215   2.347   4.831   9.645  0.0321  0.5351  0.0261
 5007TIP3    H139216   2.331   4.920   9.674 -1.5203  0.3189 -0.1188
 5007TIP3    H239217   2.375   4.784   9.724 -2.8336  0.2711  1.0069
 5008TIP3   OH239218   6.500   3.519   8.121 -0.0941  0.0353 -0.2050
 5008TIP3    H139219   6.414   3.492   8.154 -0.3684 -2.1855 -2.4637
 5008TIP3    H239220   6.550   3.541   8.199 -2.0325 -0.7102  1.3263
 5009TIP3   OH239221   3.302   4.528   8.812 -0.2049 -0.0774  0.5311
 5009TIP3    H139222   3.222   4.543   8.761 -0.6742  1.3485  1.6106
 5009TIP3    H239223   3.325   4.437   8.795 -2.3588 -0.6892  0.6185
 5010TIP3   OH239224   1.865   7.313   8.795  0.4720  0.3562  0.3201
 5010TIP3    H139225   1.859   7.218   8.791  2.0861  0.2405  0.1381
 5010TIP3    H239226   1.940   7.330   8.852  0.8384  1.4985 -0.4835
 5011TIP3   OH239227   4.217   4.487   9.491 -0.0167 -0.0567  0.6980
 5011TIP3    H139228   4.129   4.525   9.487  0.5175  1.1505 -1.6419
 5011TIP3    H239229   4.202   4.392   9.497 -1.4401  0.1794  1.3706
 5012TIP3   OH239230   1.582   6.244   8.963 -0.1118 -0.1447 -0.1913
 5012TIP3    H139231   1.549   6.155   8.959  0.0153 -0.2520  0.8864
 5012TIP3    H239232   1.576   6.268   9.055 -1.7355  1.5695 -0.6700
 5013TIP3   OH239233   0.266   0.769   8.793 -0.0064  0.6624 -0.3671
 5013TIP3    H139234   0.338   0.830   8.790  0.2094  0.4221 -0.1602
 5013TIP3    H239235   0.307   0.684   8.809 -0.2752  0.4157 -0.9510
 5014TIP3   OH239236   2.542   2.991   7.871 -0.0475 -0.0121 -0.1364
 5014TIP3    H139237   2.539   3.079   7.910 -0.3638  0.0726 -0.3505
 5014TIP3    H239238   2.621   2.991   7.818  0.6187 -0.2656  0.8324
 5015TIP3   OH239239   7.394   5.282   7.631 -0.4169  0.2993  0.2941
 5015TIP3    H139240   7.404   5.341   7.706  0.7874 -0.8538  1.0939
 5015TIP3    H239241   7.428   5.331   7.557  0.3975  0.6843  0.9090
 5016TIP3   OH239242   3.961   6.210   8.331 -0.2993  0.1085 -0.1371
 5016TIP3    H139243   3.993   6.284   8.279  2.4788 -0.2540  0.9005
 5016TIP3    H239244   3.927   6.149   8.265  0.0740  1.0497 -1.2485
 5017TIP3   OH239245   4.924   4.724   8.962 -0.5586 -0.3733  0.4183
 5017TIP3    H139246   4.872   4.737   9.042 -1.5326 -2.5727  0.2122
 5017TIP3    H239247   4.860   4.721   8.892 -0.0285 -1.5641 -0.0417
 5018TIP3   OH239248   0.147   1.571   8.471  0.0910  0.1025 -0.3455
 5018TIP3    H139249   0.097   1.590   8.550  0.9330  2.1725 -0.2650
 5018TIP3    H239250   0.237   1.561   8.501  0.4237  0.9385 -1.0318
 5019TIP3   OH239251   4.349   5.282   7.037  0.1987  0.1199  0.0653
 5019TIP3    H139252   4.364   5.370   7.002  2.8838 -0.3391 -0.1135
 5019TIP3    H239253   4.407   5.275   7.112  0.1363 -1.5537 -0.0089
 5020TIP3   OH239254   4.942   1.679   7.104 -0.0309 -0.2807  0.0589
 5020TIP3    H139255   4.866   1.633   7.139 -0.3198  0.4164  0.3700
 5020TIP3    H239256   4.926   1.686   7.010 -1.5481  1.9502  0.3899
 5021TIP3   OH239257   6.859   3.880   8.962  0.0979 -0.1219 -0.3646
 5021TIP3    H139258   6.902   3.926   8.890  0.1737  0.9465  0.3414
 5021TIP3    H239259   6.772   3.920   8.967  0.4870  0.6470  0.8536
 5022TIP3   OH239260   4.052   6.316   9.798  0.4039  0.0107  0.5275
 5022TIP3    H139261   4.062   6.222   9.811  0.7135  0.0427  0.5388
 5022TIP3    H239262   4.125   6.355   9.847  0.2204  0.2602  0.6028
 5023TIP3   OH239263   2.797   6.614   8.129  0.0425  0.2529  0.0410
 5023TIP3    H139264   2.829   6.614   8.219 -0.3033  0.4034  0.1692
 5023TIP3    H239265   2.707   6.580   8.136 -0.1282  0.6491 -0.1909
 5024TIP3   OH239266   6.838   5.664   9.434 -0.9311 -0.3899  0.4440
 5024TIP3    H139267   6.832   5.571   9.452 -0.6727 -0.6156 -0.5900
 5024TIP3    H239268   6.832   5.706   9.520  0.0192 -1.4051  1.0274
 5025TIP3   OH239269   1.993   6.335   6.739 -0.0331  0.3577 -0.3472
 5025TIP3    H139270   2.059   6.299   6.679 -0.2257 -0.7862  0.1004
 5025TIP3    H239271   2.026   6.422   6.760  2.5055 -0.8613  1.4441
 5026TIP3   OH239272   2.039   6.112   8.467 -0.1462 -0.3574  0.2569
 5026TIP3    H139273   1.990   6.108   8.385 -1.8912 -4.1765  1.2463
 5026TIP3    H239274   2.118   6.061   8.450  0.2779  0.2212  0.4899
 5027TIP3   OH239275   6.171   2.667   8.120 -0.6465  0.1556  0.0959
 5027TIP3    H139276   6.218   2.612   8.057  0.6913 -0.3217  1.4459
 5027TIP3    H239277   6.142   2.606   8.187  0.6639  1.0104  1.5071
 5028TIP3   OH239278   7.541   5.588   7.420  0.2804 -0.3182  0.3672
 5028TIP3    H139279   7.450   5.593   7.448 -0.1032  0.1222 -0.8946
 5028TIP3    H239280   7.538   5.603   7.326  1.6180 -0.7599  0.2333
 5029TIP3   OH239281   1.626   1.294   7.059  0.0683  0.0770 -0.1471
 5029TIP3    H139282   1.676   1.218   7.028 -0.1037  0.6435 -1.9426
 5029TIP3    H239283   1.623   1.353   6.983  0.4133  2.0124  1.2753
 5030TIP3   OH239284   2.896   3.271   9.025 -0.2184  0.2923  0.0105
 5030TIP3    H139285   2.831   3.299   9.090 -1.6551 -2.4525 -0.0912
 5030TIP3    H239286   2.909   3.347   8.969  0.7923  2.6934  3.1603
 5031TIP3   OH239287   2.345   6.824   9.219  0.3961 -0.0497 -0.4580
 5031TIP3    H139288   2.438   6.803   9.226  0.1617 -0.5417  2.3479
 5031TIP3    H239289   2.309   6.756   9.163  1.5409 -0.5480 -0.6076
 5032TIP3   OH239290   6.783   0.776   8.329 -0.3450  0.2355  0.3053
 5032TIP3    H139291   6.851   0.833   8.293 -2.1975  2.3895 -0.0197
 5032TIP3    H239292   6.780   0.799   8.422  1.9729 -2.7318  1.2656
 5033TIP3   OH239293   7.217   5.569   7.316 -0.2024  0.7689 -0.0817
 5033TIP3    H139294   7.192   5.502   7.252 -1.2341  2.8429 -1.9946
 5033TIP3    H239295   7.285   5.619   7.272  0.1143  1.3593  1.0594
 5034TIP3   OH239296   0.593   0.281   8.543 -0.0905  1.0408  0.0556
 5034TIP3    H139297   0.578   0.203   8.597  1.1315  1.4333  1.0103
 5034TIP3    H239298   0.660   0.254   8.481 -0.8580  0.8556 -0.7050
 5035TIP3   OH239299   7.205   3.461   9.054 -0.0682 -0.1928 -0.3356
 5035TIP3    H139300   7.169   3.543   9.021 -0.5705  0.2577  1.2567
 5035TIP3    H239301   7.251   3.485   9.134 -0.8209 -1.5490  0.5417
 5036TIP3   OH239302   2.168   6.478   7.424 -0.1494 -0.1324  0.8502
 5036TIP3    H139303   2.200   6.536   7.355  0.2801 -2.3286 -0.8905
 5036TIP3    H239304   2.075   6.500   7.433  0.0345  0.9085  0.3629
 5037TIP3   OH239305   2.959   0.211  22.908  0.1227  0.2413  0.2502
 5037TIP3    H139306   3.003   0.265  22.974  1.1520  1.0435 -1.0390
 5037TIP3    H239307   2.865   0.221  22.928  0.2738  2.4929  0.0933
 5038TIP3   OH239308   0.680   6.697   8.646 -0.8005 -0.2971  0.0741
 5038TIP3    H139309   0.747   6.664   8.707 -0.1103  1.9225  0.6172
 5038TIP3    H239310   0.597   6.665   8.681 -0.3337  0.1894  1.7008
 5039TIP3   OH239311   7.524   2.870   9.141 -0.2339 -0.0050  0.8227
 5039TIP3    H139312   7.480   2.805   9.196  0.2810 -0.5115  0.6509
 5039TIP3    H239313   7.463   2.887   9.070  0.7393 -2.4735 -0.7345
 5040TIP3   OH239314   4.628   6.432   8.068 -0.7698  0.3073  0.4569
 5040TIP3    H139315   4.534   6.419   8.078 -0.8971 -0.7356 -1.6923
 5040TIP3    H239316   4.667   6.355   8.108 -0.9447 -0.3545 -0.6265
 5041TIP3   OH239317   5.479   1.212   7.523 -0.5361 -0.2012 -0.3734
 5041TIP3    H139318   5.410   1.149   7.503 -0.7899 -0.6492  1.7117
 5041TIP3    H239319   5.457   1.246   7.609  0.8191  1.0988 -0.4974
 5042TIP3   OH239320   0.207   6.729   6.667  0.0979  0.3474 -0.1993
 5042TIP3    H139321   0.239   6.810   6.628  2.2540 -0.7658 -0.9126
 5042TIP3    H239322   0.221   6.741   6.761 -0.0884  0.9990 -0.2519
 5043TIP3   OH239323   1.263   4.281   8.191  0.2017 -0.0450  0.1857
 5043TIP3    H139324   1.193   4.347   8.195 -0.9225 -1.2395  1.4266
 5043TIP3    H239325   1.338   4.324   8.232 -0.3617  0.6566  0.5130
 5044TIP3   OH239326   4.430   6.644   9.268  0.3294  0.3678  0.1075
 5044TIP3    H139327   4.484   6.607   9.338  1.1779 -0.9669 -1.1880
 5044TIP3    H239328   4.430   6.577   9.200  0.3180  1.9827 -1.5699
 5045TIP3   OH239329   5.179   5.934   7.968 -0.2570  0.3742 -0.5896
 5045TIP3    H139330   5.140   5.936   8.055 -0.3511  1.2439 -0.6478
 5045TIP3    H239331   5.109   5.904   7.911 -0.1437 -0.3723 -0.3449
 5046TIP3   OH239332   0.043   0.479   8.557  0.3184 -0.1529 -0.6943
 5046TIP3    H139333   0.096   0.559   8.556  0.2274 -0.0307  1.2640
 5046TIP3    H239334   0.106   0.408   8.544  0.4463  0.1780 -2.0786
 5047TIP3   OH239335   0.065   3.901   8.906  0.0589  0.0184 -0.6853
 5047TIP3    H139336   0.097   3.991   8.916 -0.3099 -0.0996  2.8705
 5047TIP3    H239337  -0.022   3.911   8.867  0.2247  1.1663 -0.8057
 5048TIP3   OH239338   0.703   5.001   7.692  0.0929  0.3699  0.2104
 5048TIP3    H139339   0.767   4.931   7.689 -1.3276 -1.2830  3.5087
 5048TIP3    H239340   0.618   4.958   7.680 -0.6471  2.2207 -2.1431
 5049TIP3   OH239341   3.414   0.028   9.050 -0.2885 -0.4998 -0.0806
 5049TIP3    H139342   3.344   0.084   9.016 -0.9665 -0.2121  1.6830
 5049TIP3    H239343   3.404  -0.054   9.002 -1.1104 -0.0891 -0.6462
 5050TIP3   OH239344   0.748   2.980   9.184  0.0899  0.3205  0.3182
 5050TIP3    H139345   0.767   3.039   9.257 -0.7950  0.8155  0.1498
 5050TIP3    H239346   0.724   3.038   9.112 -1.1140 -0.2470  0.2460
 5051TIP3   OH239347   1.116   0.351   6.715  0.4005 -0.1628 -0.3222
 5051TIP3    H139348   1.085   0.423   6.770 -0.0900 -0.1415 -0.6168
 5051TIP3    H239349   1.206   0.374   6.694  0.7259 -0.3745  0.7999
 5052TIP3   OH239350   2.952   5.254   9.537 -0.0824  0.1884 -0.6615
 5052TIP3    H139351   2.975   5.340   9.574  1.7967 -0.3030 -0.6207
 5052TIP3    H239352   2.865   5.268   9.498 -0.5983  1.6400  0.8656
 5053TIP3   OH239353   6.080   5.794   9.295  0.2665  0.1482  0.2045
 5053TIP3    H139354   6.146   5.857   9.266 -0.8676  0.9957 -0.6426
 5053TIP3    H239355   6.071   5.734   9.221 -0.2434  0.3122  0.1351
 5054TIP3   OH239356   3.997   3.289   8.272 -0.8080 -0.2142 -0.4131
 5054TIP3    H139357   4.060   3.229   8.232 -0.3423  0.3089 -0.4666
 5054TIP3    H239358   3.955   3.332   8.198 -1.3724 -0.7033 -0.3829
 5055TIP3   OH239359   5.862   6.012   8.392 -0.1578 -0.2784  0.3960
 5055TIP3    H139360   5.918   6.035   8.318 -0.2166 -1.2484  0.0364
 5055TIP3    H239361   5.893   5.926   8.419  0.7540  0.6196  2.3809
 5056TIP3   OH239362   5.754   4.095   9.498 -0.3734 -0.0453  0.4399
 5056TIP3    H139363   5.804   4.051   9.567 -0.3564  0.8146  0.9917
 5056TIP3    H239364   5.682   4.034   9.478  0.9178 -1.3535 -0.4516
 5057TIP3   OH239365   1.236   4.285   9.291 -0.2731  0.3245 -0.0675
 5057TIP3    H139366   1.281   4.202   9.308  0.0553  0.4580 -0.2879
 5057TIP3    H239367   1.277   4.319   9.212 -1.2721  0.0881 -0.7104
 5058TIP3   OH239368   6.677   3.259   9.390  0.0728  0.1175 -0.0290
 5058TIP3    H139369   6.680   3.307   9.307  1.4900 -1.7111 -1.1369
 5058TIP3    H239370   6.736   3.306   9.448  1.3895 -0.1979 -1.0703
 5059TIP3   OH239371   4.625   7.505   8.766 -0.1669  0.2116  0.1430
 5059TIP3    H139372   4.626   7.600   8.757  1.0160  0.0922 -1.3155
 5059TIP3    H239373   4.582   7.490   8.851 -1.1439  1.9867  0.0199
 5060TIP3   OH239374   7.638   5.345   7.504 -0.8288 -0.4990 -0.1904
 5060TIP3    H139375   7.614   5.426   7.459  0.2935 -0.0750 -0.0842
 5060TIP3    H239376   7.675   5.375   7.588 -0.9252 -1.1561  0.0942
 5061TIP3   OH239377   5.965   5.186   8.876  0.1473  0.0019 -1.0844
 5061TIP3    H139378   5.922   5.182   8.791  0.8204 -0.6160 -1.4060
 5061TIP3    H239379   5.966   5.279   8.898 -3.5073 -0.0990  0.0800
 5062TIP3   OH239380   0.679   0.979   8.593  0.1696 -0.4228 -0.2800
 5062TIP3    H139381   0.649   0.900   8.549 -0.8830  0.0975 -0.5417
 5062TIP3    H239382   0.599   1.020   8.627  0.6872  0.5022 -0.1227
 5063TIP3   OH239383   5.021   1.751   9.214 -0.3978 -0.3685  0.1303
 5063TIP3    H139384   4.985   1.789   9.134  0.2212 -0.3380 -0.1409
 5063TIP3    H239385   5.051   1.664   9.187  1.1519  0.1792 -0.0531
 5064TIP3   OH239386   5.808   2.250   8.158  0.3126  0.7163  0.1868
 5064TIP3    H139387   5.837   2.200   8.082  0.4771  0.4683  0.4103
 5064TIP3    H239388   5.853   2.210   8.232 -1.1850 -0.1864  0.6605
 5065TIP3   OH239389   0.289   6.346   6.838  0.2453 -0.2326 -0.0520
 5065TIP3    H139390   0.305   6.255   6.863  0.2931  0.2312  1.6998
 5065TIP3    H239391   0.254   6.340   6.749 -2.1651 -2.1687  0.9108
 5066TIP3   OH239392   6.143   0.109   8.976 -0.7932 -0.0171  0.3913
 5066TIP3    H139393   6.237   0.125   8.983 -0.7327 -0.1324 -0.1445
 5066TIP3    H239394   6.127   0.095   8.883 -1.2970 -0.2898  0.5123
 5067TIP3   OH239395   1.388   7.506   8.395  0.7095 -0.6388 -0.3202
 5067TIP3    H139396   1.394   7.492   8.300  1.4961 -0.6037 -0.2840
 5067TIP3    H239397   1.321   7.572   8.406 -0.5544 -1.8037 -0.7433
 5068TIP3   OH239398   2.095   0.825   7.098  0.4417 -0.3072  0.4198
 5068TIP3    H139399   2.002   0.841   7.082  0.4436 -1.2080 -0.5816
 5068TIP3    H239400   2.115   0.745   7.049  2.1340  0.7949 -0.8095
 5069TIP3   OH239401   2.097   5.023   7.587 -0.0297 -0.2874 -0.2382
 5069TIP3    H139402   2.086   5.096   7.525 -3.6597  0.1736  0.6851
 5069TIP3    H239403   2.019   5.027   7.642  1.7969 -2.2328  2.7829
 5070TIP3   OH239404   0.443   6.384   7.370  0.3048  0.8715  0.1684
 5070TIP3    H139405   0.485   6.311   7.416 -1.0916 -0.9311 -1.2553
 5070TIP3    H239406   0.372   6.411   7.428  0.6487  0.9055  0.5783
 5071TIP3   OH239407   5.504   1.412   9.116  0.0099 -0.0848  0.1729
 5071TIP3    H139408   5.503   1.354   9.040  1.6906 -0.6529  0.5465
 5071TIP3    H239409   5.595   1.412   9.146 -0.2386  1.5933  1.0783
 5072TIP3   OH239410   0.491   2.764   8.060  0.3002 -0.3056 -0.1734
 5072TIP3    H139411   0.573   2.723   8.086 -0.0191 -1.9992 -1.6860
 5072TIP3    H239412   0.481   2.743   7.967 -1.8055 -0.0886 -0.0511
 5073TIP3   OH239413   0.615   2.246   9.408 -0.1614  0.3620 -0.1645
 5073TIP3    H139414   0.613   2.341   9.394 -1.7731  0.4432  0.3413
 5073TIP3    H239415   0.549   2.231   9.476  0.7989 -1.0270  0.5099
 5074TIP3   OH239416   0.858   4.790   7.667  0.2057  0.2915  0.3195
 5074TIP3    H139417   0.816   4.705   7.654 -2.3030  1.4811 -0.0508
 5074TIP3    H239418   0.906   4.806   7.586  1.1564 -0.9751  0.6050
 5075TIP3   OH239419   3.904   1.462   8.475  0.2912  0.6357 -0.0214
 5075TIP3    H139420   3.864   1.375   8.478 -2.4894  1.7113 -1.9539
 5075TIP3    H239421   3.927   1.475   8.383 -1.3817  2.6922 -0.2327
 5076TIP3   OH239422   0.055   3.869   7.727  0.1077 -0.4713  0.1242
 5076TIP3    H139423   0.069   3.963   7.720  0.8606 -0.7057 -2.1695
 5076TIP3    H239424  -0.035   3.861   7.758 -0.2313  1.0058 -0.3905
 5077TIP3   OH239425   4.271   4.682   7.594  0.0588  0.3128  0.3518
 5077TIP3    H139426   4.254   4.726   7.511  0.8364 -1.4580 -0.8151
 5077TIP3    H239427   4.207   4.612   7.598  1.7620 -1.3673 -0.1746
 5078TIP3   OH239428   7.219   6.425   7.198 -0.0396  0.0266  0.1596
 5078TIP3    H139429   7.153   6.364   7.163 -1.5769  0.0234  2.8196
 5078TIP3    H239430   7.301   6.376   7.193 -1.0309 -1.8284  1.0663
 5079TIP3   OH239431   1.785   3.141   8.209  0.1594  0.1884  0.0426
 5079TIP3    H139432   1.855   3.205   8.205 -1.1160  1.6311  0.0656
 5079TIP3    H239433   1.805   3.089   8.287 -0.1985  2.3263  1.6605
 5080TIP3   OH239434   4.688   0.765   8.229 -0.3721  0.1920  0.5698
 5080TIP3    H139435   4.709   0.710   8.154 -0.2677 -0.0218  0.7529
 5080TIP3    H239436   4.614   0.819   8.201 -0.5802 -0.1598  0.4460
 5081TIP3   OH239437   6.023   2.390   7.789  0.3972 -0.4436  0.4651
 5081TIP3    H139438   5.945   2.443   7.771  1.3836  1.8905  2.4388
 5081TIP3    H239439   6.060   2.372   7.702 -2.3768 -1.8356 -0.5393
 5082TIP3   OH239440   0.221   2.890   8.859 -0.0667 -0.3362  0.0229
 5082TIP3    H139441   0.211   2.901   8.954 -0.2156  0.1970 -0.0493
 5082TIP3    H239442   0.157   2.823   8.836 -1.1238  0.6138  0.0819
 5083TIP3   OH239443   2.103   3.982   8.272 -0.5827  0.8552  0.1630
 5083TIP3    H139444   2.068   3.930   8.200  0.9706 -0.2608  0.1517
 5083TIP3    H239445   2.151   4.053   8.230  1.8286 -0.7744 -0.0760
 5084TIP3   OH239446   2.703   6.759   7.783 -0.6199  0.3816  0.5734
 5084TIP3    H139447   2.701   6.827   7.715 -0.2699 -0.9679 -0.8566
 5084TIP3    H239448   2.794   6.757   7.812 -0.4698  0.0409  0.0913
 5085TIP3   OH239449   4.395   5.367   7.577  0.1176  0.4259 -0.3730
 5085TIP3    H139450   4.484   5.394   7.554 -0.7671  2.0016 -2.1682
 5085TIP3    H239451   4.346   5.448   7.588 -1.5761 -0.3716 -1.4810
 5086TIP3   OH239452   2.213   1.161   7.592 -0.0977  0.1557  0.9159
 5086TIP3    H139453   2.204   1.065   7.594 -0.3592 -0.0240 -2.4908
 5086TIP3    H239454   2.305   1.176   7.572 -0.1123  0.6174  1.1927
 5087TIP3   OH239455   6.367   3.046   8.159 -0.0439 -0.4354  0.3529
 5087TIP3    H139456   6.361   3.133   8.119 -2.3657 -0.7778 -0.1871
 5087TIP3    H239457   6.282   3.005   8.141  0.7909 -2.6346  1.0472
 5088TIP3   OH239458   3.587   0.013   8.208 -0.4592  0.1195  0.0479
 5088TIP3    H139459   3.566   0.001   8.115 -1.3023 -0.5443  0.3118
 5088TIP3    H239460   3.654  -0.052   8.226 -1.3079 -0.7259  0.2296
 5089TIP3   OH239461   5.448   5.230   8.025  0.0296  0.0077  0.0200
 5089TIP3    H139462   5.431   5.303   7.965 -1.1102  0.2944  0.6532
 5089TIP3    H239463   5.361   5.194   8.043  0.3715 -0.2032  1.3135
 5090TIP3   OH239464   3.075   6.441   8.652 -0.6729 -0.9483 -0.0756
 5090TIP3    H139465   3.163   6.454   8.687 -0.6031 -0.8199 -0.2979
 5090TIP3    H239466   3.081   6.359   8.602 -0.4443 -0.4718 -0.8449
 5091TIP3   OH239467   7.042   5.942   7.471  0.0704 -0.3742 -0.2831
 5091TIP3    H139468   6.971   5.878   7.477  0.3139 -0.8776 -2.0893
 5091TIP3    H239469   7.079   5.946   7.559 -2.0655 -0.2331  0.6699
 5092TIP3   OH239470   5.641   1.943   7.628  0.2143 -0.1377  0.7026
 5092TIP3    H139471   5.600   1.857   7.641  0.9629 -0.5006  0.6852
 5092TIP3    H239472   5.568   2.000   7.603  0.0471 -1.3535 -1.9237
 5093TIP3   OH239473   4.867   7.126   6.728  0.5734 -0.1865 -0.5373
 5093TIP3    H139474   4.830   7.056   6.674  0.9438  0.6664 -1.9443
 5093TIP3    H239475   4.882   7.198   6.667 -1.8466  1.9626  1.2078
 5094TIP3   OH239476   5.775   3.087   8.357 -0.2097  0.0375  0.0170
 5094TIP3    H139477   5.710   3.043   8.411 -1.0115  0.6964 -0.3980
 5094TIP3    H239478   5.774   3.039   8.274 -0.3063  0.1775 -0.0616
 5095TIP3   OH239479   3.725   4.257   7.500  0.0043 -0.6709 -0.5595
 5095TIP3    H139480   3.742   4.318   7.428  0.9879  0.2112  0.3681
 5095TIP3    H239481   3.768   4.297   7.576 -0.1292 -2.0717  0.3007
 5096TIP3   OH239482   6.644   4.486   7.871 -0.4444  0.5101 -0.7932
 5096TIP3    H139483   6.668   4.464   7.781  0.4878  0.7368 -0.6078
 5096TIP3    H239484   6.698   4.562   7.892  0.8689 -0.7807  0.6580
 5097TIP3   OH239485   3.450   6.010   9.625 -0.0009  0.3319  0.0006
 5097TIP3    H139486   3.498   6.093   9.627  0.2602  0.1843 -0.1375
 5097TIP3    H239487   3.518   5.943   9.620 -0.2357  0.1369 -0.5993
 5098TIP3   OH239488   1.601   6.473   7.809  0.1546 -0.0716 -0.2764
 5098TIP3    H139489   1.595   6.390   7.854 -2.6577 -0.6700 -1.5337
 5098TIP3    H239490   1.580   6.539   7.875 -0.3197 -0.6180  0.1202
 5099TIP3   OH239491   0.196   3.942   6.630 -0.0784 -0.0512  0.6199
 5099TIP3    H139492   0.114   3.930   6.583 -0.3185  1.3514  0.6500
 5099TIP3    H239493   0.260   3.891   6.580 -0.2572  1.6238 -1.4468
 5100TIP3   OH239494   5.024   3.326   9.077  0.1246 -0.3199 -0.1131
 5100TIP3    H139495   5.049   3.312   8.986 -0.3565  0.6826 -0.4079
 5100TIP3    H239496   4.929   3.333   9.076  0.1795  0.6320  0.3268
 5101TIP3   OH239497   6.110   1.129   6.600 -0.1838  0.0944  0.1425
 5101TIP3    H139498   6.076   1.183   6.672  0.6161 -1.3481  1.6535
 5101TIP3    H239499   6.127   1.044   6.639  1.9149 -0.2514 -1.3395
 5102TIP3   OH239500   5.953   5.186   6.867 -0.1420 -0.0062 -0.0093
 5102TIP3    H139501   6.003   5.110   6.898  0.5986  0.8218  0.8563
 5102TIP3    H239502   5.868   5.178   6.910  0.1491 -0.0187  0.5716
 5103TIP3   OH239503   4.509   5.898   9.414 -0.1296 -0.2940  0.7137
 5103TIP3    H139504   4.572   5.841   9.458  0.2513 -1.0952 -0.8006
 5103TIP3    H239505   4.554   5.929   9.336 -1.2587 -0.0901  0.1136
 5104TIP3   OH239506   1.331   2.768   9.260 -0.0012 -0.0297  0.4093
 5104TIP3    H139507   1.417   2.726   9.262 -0.2850 -0.6477  2.6843
 5104TIP3    H239508   1.276   2.710   9.207  0.3070 -1.1311  1.2645
 5105TIP3   OH239509   7.514   5.007   8.587  0.0429  0.2748  0.2865
 5105TIP3    H139510   7.460   4.957   8.648  2.2115 -0.5957  1.5870
 5105TIP3    H239511   7.453   5.069   8.547 -2.0327 -1.1018  1.1565
 5106TIP3   OH239512   3.473   3.277   7.791 -0.0531 -0.0741 -0.0353
 5106TIP3    H139513   3.467   3.188   7.755 -1.1070 -0.1104  0.2069
 5106TIP3    H239514   3.404   3.326   7.747 -0.5097  0.2201  0.9807
 5107TIP3   OH239515   7.418   3.323   8.983 -0.3703 -0.2804 -0.4173
 5107TIP3    H139516   7.438   3.387   8.915  0.3065  1.7001  1.5300
 5107TIP3    H239517   7.338   3.355   9.024  1.9782  1.8005  3.1570
 5108TIP3   OH239518   0.060   3.605   7.649 -0.2360  0.2123  0.0383
 5108TIP3    H139519   0.063   3.699   7.663 -1.2662  0.0802  1.4446
 5108TIP3    H239520   0.062   3.594   7.554 -2.3188  1.7717 -0.2485
 5109TIP3   OH239521   1.280   6.895   7.138 -0.2631 -0.7709 -0.4557
 5109TIP3    H139522   1.284   6.857   7.050  1.1829 -0.1443 -0.6891
 5109TIP3    H239523   1.361   6.867   7.180 -0.0549  0.4744  0.0152
 5110TIP3   OH239524   3.471   4.111   8.605  0.3455 -0.2970 -0.0941
 5110TIP3    H139525   3.409   4.182   8.594  0.0625 -0.5944 -0.4609
 5110TIP3    H239526   3.496   4.086   8.516  0.9234 -0.2417  0.0437
 5111TIP3   OH239527   1.402   3.582   7.439  0.2478  0.0076 -0.1063
 5111TIP3    H139528   1.333   3.634   7.481  1.2742  1.0497  0.3208
 5111TIP3    H239529   1.456   3.646   7.393 -1.0379 -1.1014 -3.4606
 5112TIP3   OH239530   4.012   0.039   7.812  0.3459  0.2803  0.0880
 5112TIP3    H139531   3.958   0.018   7.888 -0.6224  1.3495 -0.2828
 5112TIP3    H239532   4.025  -0.046   7.769 -0.1550 -0.1514  0.7549
 5113TIP3   OH239533   5.344   6.967   9.551 -0.0086 -0.2391  0.9425
 5113TIP3    H139534   5.368   6.892   9.497  1.7866  0.3342  0.8867
 5113TIP3    H239535   5.421   6.984   9.605  0.0134  2.1382  0.2674
 5114TIP3   OH239536   4.561   5.557   8.114  0.4154  0.3521 -0.3189
 5114TIP3    H139537   4.487   5.617   8.106  0.7830  0.8818  0.1521
 5114TIP3    H239538   4.541   5.504   8.191  0.3807  0.2840 -0.3743
 5115TIP3   OH239539   1.745   6.728   8.161  0.3025  0.5402 -0.4163
 5115TIP3    H139540   1.768   6.820   8.151  0.5664  0.4366 -0.8034
 5115TIP3    H239541   1.738   6.715   8.256  1.8584  0.5824 -0.2663
 5116TIP3   OH239542   0.330   2.397   8.806 -0.2641  0.0258  0.4496
 5116TIP3    H139543   0.422   2.404   8.782 -0.4827 -0.2622 -0.5052
 5116TIP3    H239544   0.286   2.368   8.726 -1.4553  1.9198  0.3458
 5117TIP3   OH239545   1.992   4.434   9.198  0.0328  0.6691  0.2262
 5117TIP3    H139546   1.926   4.475   9.254  0.5676 -0.6545  1.9107
 5117TIP3    H239547   2.073   4.481   9.217 -0.2910  2.1280 -1.6573
 5118TIP3   OH239548   1.254   5.009   9.254  0.0719 -0.0648 -0.0973
 5118TIP3    H139549   1.252   5.088   9.200 -1.2620  0.5588  0.8074
 5118TIP3    H239550   1.222   5.038   9.339  1.4182 -1.1774  0.8372
 5119TIP3   OH239551   7.003   4.255   9.095  0.0325  0.2900 -0.3154
 5119TIP3    H139552   6.912   4.243   9.069 -0.5052  1.2755  0.9663
 5119TIP3    H239553   7.005   4.342   9.135  1.7045  0.5939 -0.9985
 5120TIP3   OH239554   2.730   5.676   6.684 -0.0234  0.0793 -0.0526
 5120TIP3    H139555   2.785   5.684   6.606  0.1531  1.1864  0.1751
 5120TIP3    H239556   2.668   5.607   6.661  0.5741 -0.2178 -0.8407
 5121TIP3   OH239557   2.477   6.601   7.290 -0.6771 -0.6338  0.2163
 5121TIP3    H139558   2.484   6.527   7.231 -0.5946  0.0182 -0.6074
 5121TIP3    H239559   2.398   6.647   7.264 -1.5289 -1.2088  1.6534
 5122TIP3   OH239560   2.153   0.607   6.911  0.0630  0.1127 -0.3893
 5122TIP3    H139561   2.101   0.611   6.831  1.5946  1.9161 -1.3957
 5122TIP3    H239562   2.158   0.514   6.933 -2.0877 -0.2448 -1.2020
 5123TIP3   OH239563   1.128   2.597   8.015 -0.1870  0.0328 -0.1751
 5123TIP3    H139564   1.106   2.534   8.083 -1.3677  1.7696  1.1521
 5123TIP3    H239565   1.058   2.590   7.951  0.5042 -1.0489 -0.8327
 5124TIP3   OH239566   3.470   2.225   9.216 -0.1307 -0.2708  0.4996
 5124TIP3    H139567   3.424   2.143   9.232 -1.6608  0.6437  1.0069
 5124TIP3    H239568   3.544   2.201   9.161  0.5392 -2.2752  2.1335
 5125TIP3   OH239569   6.971   1.983   9.289  0.1550  0.2954 -0.2845
 5125TIP3    H139570   6.967   2.045   9.217  0.1018  0.8684  0.2029
 5125TIP3    H239571   6.880   1.967   9.312  0.1596 -0.1960 -0.6025
 5126TIP3   OH239572   5.341   3.318   7.930 -0.2987 -0.5392  0.0960
 5126TIP3    H139573   5.302   3.272   7.856 -0.0998 -0.3982 -0.0990
 5126TIP3    H239574   5.267   3.344   7.985 -0.4434 -0.6727 -0.0385
 5127TIP3   OH239575   7.562   0.031   8.582 -0.0642  0.1315  0.4622
 5127TIP3    H139576   7.496  -0.000   8.520 -0.9087 -1.2792  1.9901
 5127TIP3    H239577   7.622  -0.043   8.591  0.1679  0.4040  1.1692
 5128TIP3   OH239578   1.755   0.774   7.326  0.3572 -0.2421 -0.1842
 5128TIP3    H139579   1.782   0.788   7.235  1.4492 -0.1333  0.1406
 5128TIP3    H239580   1.745   0.679   7.334  0.5853 -0.2790 -0.3316
 5129TIP3   OH239581   2.098   0.403   7.911  0.5216 -0.5544  0.0140
 5129TIP3    H139582   2.049   0.451   7.845  0.6918  3.9220  2.7125
 5129TIP3    H239583   2.190   0.417   7.887  0.5714 -1.0891 -0.1219
 5130TIP3   OH239584   0.280   2.279   8.541  0.3115  0.0212  0.1902
 5130TIP3    H139585   0.184   2.277   8.542 -0.3262  1.6690 -6.4944
 5130TIP3    H239586   0.305   2.192   8.511  0.8725 -0.1683  1.1942
 5131TIP3   OH239587   6.949   1.815   7.485 -0.3626  0.1650  0.4178
 5131TIP3    H139588   6.967   1.849   7.398 -2.1088  1.3972  0.4910
 5131TIP3    H239589   7.013   1.745   7.497 -0.0171  0.0315 -1.8001
 5132TIP3   OH239590   2.648   5.693   7.689 -0.5356  0.6337 -0.4052
 5132TIP3    H139591   2.738   5.672   7.664 -0.7029 -0.2941 -0.2789
 5132TIP3    H239592   2.650   5.701   7.784 -0.7247 -0.1710 -0.3242
 5133TIP3   OH239593   4.583   6.562   7.626  0.6131  0.5226  0.2120
 5133TIP3    H139594   4.539   6.614   7.693  0.6614  0.1386  0.5504
 5133TIP3    H239595   4.651   6.514   7.674 -0.5545 -1.1938  0.2559
 5134TIP3   OH239596   0.948   7.204   7.504  0.3976  0.6174  0.1824
 5134TIP3    H139597   0.978   7.289   7.473  0.7849  0.0931 -0.8926
 5134TIP3    H239598   0.857   7.220   7.531  0.5402  1.4168  0.2139
 5135TIP3   OH239599   0.140   3.400   7.149  0.4366 -0.7688  0.3165
 5135TIP3    H139600   0.190   3.329   7.111 -0.8862 -2.0642  0.8994
 5135TIP3    H239601   0.070   3.418   7.086  0.9339  0.2431  0.0299
 5136TIP3   OH239602   3.440   5.157   8.164 -0.0890  0.1617  0.0705
 5136TIP3    H139603   3.406   5.228   8.218  0.9882  1.2367 -0.6117
 5136TIP3    H239604   3.525   5.136   8.202  0.6620  0.9016 -1.1536
 5137TIP3   OH239605   5.589   4.997   7.945 -0.9208 -0.3633 -0.2613
 5137TIP3    H139606   5.548   5.082   7.931 -1.5113 -0.3192  1.4865
 5137TIP3    H239607   5.683   5.014   7.939 -1.0204 -0.2290 -3.0164
 5138TIP3   OH239608   3.962   7.259   8.648 -0.1417  0.1937  0.0761
 5138TIP3    H139609   3.903   7.270   8.722  0.3007  0.1751  0.4298
 5138TIP3    H239610   3.992   7.348   8.627 -0.2925  0.2037 -0.1048
 5139TIP3   OH239611   3.569   4.582   7.981 -0.0262  0.3479  0.1530
 5139TIP3    H139612   3.488   4.554   7.939  1.2269  0.0181 -2.2359
 5139TIP3    H239613   3.564   4.678   7.981 -0.2201  0.3440 -0.4301
 5140TIP3   OH239614   5.567   1.442   7.929  1.0553  0.0516  0.3031
 5140TIP3    H139615   5.559   1.353   7.895 -0.2836  0.2730 -0.0221
 5140TIP3    H239616   5.564   1.498   7.851  0.9099  0.4218  0.5703
 5141TIP3   OH239617   5.507   2.374   7.208 -0.0924  0.0548  0.1403
 5141TIP3    H139618   5.497   2.285   7.172 -3.1247  0.2257  0.3267
 5141TIP3    H239619   5.549   2.423   7.137 -1.4581 -0.7768 -1.3190
 5142TIP3   OH239620   5.569   7.570   8.569  0.2343 -0.2318 -0.1454
 5142TIP3    H139621   5.594   7.563   8.477  0.5930  0.0974 -0.0768
 5142TIP3    H239622   5.478   7.543   8.571 -0.4839  1.9400 -0.9583
 5143TIP3   OH239623   4.020   1.429   7.236  0.0637  0.2966 -0.3378
 5143TIP3    H139624   4.005   1.393   7.323 -0.1188  1.3764  0.1009
 5143TIP3    H239625   3.942   1.407   7.186  0.7634 -1.5566 -0.6782
 5144TIP3   OH239626   1.527   5.004   9.235  0.2197 -0.0987 -0.2297
 5144TIP3    H139627   1.547   5.097   9.227  1.9330 -0.5031 -1.2335
 5144TIP3    H239628   1.436   5.001   9.264  0.2334  1.8781  0.1472
 5145TIP3   OH239629   6.844   5.245   8.720  0.5101  0.1299 -0.0857
 5145TIP3    H139630   6.825   5.241   8.814  2.0406  0.6747  0.2682
 5145TIP3    H239631   6.774   5.194   8.680  0.6245 -1.3403  1.4568
 5146TIP3   OH239632   5.606   1.465   6.872  0.0915  0.4331 -0.3482
 5146TIP3    H139633   5.577   1.376   6.889  0.7233  0.2179 -0.3982
 5146TIP3    H239634   5.662   1.487   6.946  0.9670  0.3287 -0.9720
 5147TIP3   OH239635   2.346   7.126   8.920  0.2623  0.3375  0.5502
 5147TIP3    H139636   2.406   7.184   8.966  0.3065  0.6454  0.1103
 5147TIP3    H239637   2.322   7.174   8.840 -0.9590  0.4425  0.9567
 5148TIP3   OH239638   2.428   1.542   7.608  0.2590  0.1094  0.3063
 5148TIP3    H139639   2.516   1.545   7.570 -0.1439  1.3474 -0.5843
 5148TIP3    H239640   2.380   1.612   7.564 -1.0878 -0.3258  1.0197
 5149TIP3   OH239641   1.437   5.657   8.928 -0.3835  0.4020  0.1466
 5149TIP3    H139642   1.404   5.584   8.877  1.7459 -0.1406 -0.5333
 5149TIP3    H239643   1.362   5.717   8.936 -2.0641 -1.6478  0.4225
 5150TIP3   OH239644   2.292   3.190   8.984 -0.1501 -0.1296 -0.2436
 5150TIP3    H139645   2.303   3.097   8.964 -1.3454 -0.5527  0.9120
 5150TIP3    H239646   2.230   3.222   8.917  1.3321  0.2142 -1.5113
 5151TIP3   OH239647   0.045   0.822   7.943 -0.5901 -0.5883  0.4906
 5151TIP3    H139648  -0.024   0.860   7.998 -1.6677 -2.1421  0.2720
 5151TIP3    H239649   0.031   0.861   7.857 -0.7545 -0.3763  0.6113
 5152TIP3   OH239650   2.134   2.213   7.977 -0.0111  0.2361  0.1103
 5152TIP3    H139651   2.219   2.230   8.017 -0.2956  0.7992  0.4908
 5152TIP3    H239652   2.092   2.299   7.972 -0.3547  0.0397 -0.5515
 5153TIP3   OH239653   0.108   2.437   8.240 -0.5455  0.3284  0.3365
 5153TIP3    H139654   0.095   2.361   8.297 -0.9570 -0.5371 -0.8650
 5153TIP3    H239655   0.097   2.402   8.151 -0.9310  1.8321 -0.2344
 5154TIP3   OH239656   7.426   5.294   8.896 -0.5517 -0.1091  0.0142
 5154TIP3    H139657   7.343   5.342   8.886 -0.8110 -0.2115  1.5104
 5154TIP3    H239658   7.407   5.208   8.859 -0.9434  0.0377 -0.1403
 5155TIP3   OH239659   5.884   6.016   7.912  0.3690 -0.0079  0.7218
 5155TIP3    H139660   5.811   6.068   7.877  0.6539  0.0323  0.1900
 5155TIP3    H239661   5.910   6.063   7.991 -0.2829 -0.1074  1.0066
 5156TIP3   OH239662   4.685   3.779   8.638  0.4592 -0.0642  0.0948
 5156TIP3    H139663   4.602   3.733   8.646  0.7271 -0.5655  0.0451
 5156TIP3    H239664   4.713   3.794   8.728  0.5002 -0.2401  0.1115
 5157TIP3   OH239665   6.768   2.449   9.201  0.1101  0.0879  0.1248
 5157TIP3    H139666   6.839   2.512   9.214 -0.0899  1.0650 -2.8223
 5157TIP3    H239667   6.694   2.501   9.169 -0.2445 -1.5037 -1.8744
 5158TIP3   OH239668   6.241   3.430   7.749  0.5718  0.1871  0.2148
 5158TIP3    H139669   6.317   3.485   7.729  0.4605 -0.0305 -0.8900
 5158TIP3    H239670   6.193   3.478   7.816  1.4661  0.5251  0.6216
 5159TIP3   OH239671   0.553   0.241   9.123 -0.3445  0.0697 -0.0907
 5159TIP3    H139672   0.602   0.266   9.045  1.2584 -0.9463  0.5410
 5159TIP3    H239673   0.496   0.170   9.094 -0.2140  0.1152 -0.4618
 5160TIP3   OH239674   5.241   3.764   8.826  0.2933  0.5640  0.2357
 5160TIP3    H139675   5.247   3.841   8.770  1.0212  0.9506  0.8280
 5160TIP3    H239676   5.157   3.774   8.871  0.4796  1.1447  0.4755
 5161TIP3   OH239677   6.748   2.164   7.668 -0.3968  0.6484 -0.2835
 5161TIP3    H139678   6.660   2.127   7.673  0.0492 -0.2700  1.6750
 5161TIP3    H239679   6.736   2.258   7.679 -1.1115  0.4901  0.3314
 5162TIP3   OH239680   6.703   4.447   7.351 -0.5884  0.5572 -0.0731
 5162TIP3    H139681   6.767   4.503   7.307  0.8685 -0.3103  0.8474
 5162TIP3    H239682   6.621   4.495   7.346  0.3774  2.2435 -0.3139
 5163TIP3   OH239683   7.546   2.563   8.101 -0.6027  0.2688  0.2998
 5163TIP3    H139684   7.642   2.557   8.099 -0.4933  1.4668  1.0955
 5163TIP3    H239685   7.522   2.584   8.011 -0.0818  0.4394  0.1949
 5164TIP3   OH239686   7.234   4.692   9.322 -0.0124  0.7085 -0.6230
 5164TIP3    H139687   7.281   4.608   9.323  0.7185  0.9431  3.6121
 5164TIP3    H239688   7.303   4.758   9.326 -0.6322  1.3801 -0.8829
 5165TIP3   OH239689   6.064   5.017   8.377 -0.0486 -0.1505 -0.0155
 5165TIP3    H139690   6.007   5.028   8.301 -1.5279 -0.6637  0.9632
 5165TIP3    H239691   6.108   4.933   8.363  0.5101  0.2647 -0.7974
 5166TIP3   OH239692   1.195   7.390   7.202 -0.1420  0.0782  0.2152
 5166TIP3    H139693   1.145   7.346   7.134  0.6276  0.4270 -0.6046
 5166TIP3    H239694   1.217   7.476   7.164  1.4105 -0.2159  0.3605
 5167TIP3   OH239695   2.039   7.160   7.172  0.5402 -0.4988 -0.4961
 5167TIP3    H139696   1.950   7.140   7.142 -0.2824  2.2186 -0.0855
 5167TIP3    H239697   2.095   7.140   7.097 -0.3721 -2.1697 -0.7865
 5168TIP3   OH239698   7.446   2.681   7.847 -0.4421 -0.1724  0.3205
 5168TIP3    H139699   7.423   2.615   7.781  0.2149 -1.6479  1.5095
 5168TIP3    H239700   7.466   2.759   7.796 -0.0500 -1.2355 -1.2350
 5169TIP3   OH239701   0.022   0.870   8.431 -0.0699 -0.1446  0.0835
 5169TIP3    H139702  -0.049   0.933   8.447 -0.3392  0.2583 -2.4021
 5169TIP3    H239703   0.012   0.846   8.339  3.0331 -0.0653 -0.3581
 5170TIP3   OH239704   3.260   2.384   9.359 -0.8053 -0.2404  0.7101
 5170TIP3    H139705   3.224   2.296   9.353  0.8002 -0.8274 -2.9836
 5170TIP3    H239706   3.354   2.372   9.344 -0.0836  1.9062  2.8587
 5171TIP3   OH239707   3.080   2.993   8.942 -0.1121  0.1417  0.4532
 5171TIP3    H139708   2.992   2.956   8.942  0.2228 -0.7375  1.7298
 5171TIP3    H239709   3.119   2.960   8.861 -1.1070  0.9962 -0.4093
 5172TIP3   OH239710   5.646   0.276   9.060 -0.1157  0.3580 -0.3946
 5172TIP3    H139711   5.695   0.197   9.036  0.4662  0.8757 -0.9454
 5172TIP3    H239712   5.577   0.245   9.118  1.3556 -0.2900  1.0726
 5173TIP3   OH239713   0.101   5.044   9.435 -0.3053 -0.0404  0.4271
 5173TIP3    H139714   0.176   5.005   9.479  1.1329  2.0513 -0.0053
 5173TIP3    H239715   0.127   5.050   9.343 -1.8012 -1.0194 -0.0889
 5174TIP3   OH239716   2.237   4.901   7.202  0.0859 -0.0257 -0.4955
 5174TIP3    H139717   2.177   4.831   7.175 -2.5898  1.8021  0.3156
 5174TIP3    H239718   2.250   4.886   7.295 -0.1301  0.2855 -0.4139
 5175TIP3   OH239719   2.151   7.081   8.328  0.0785 -0.2966 -0.5290
 5175TIP3    H139720   2.143   7.040   8.414  2.1148  0.2374 -0.0259
 5175TIP3    H239721   2.231   7.043   8.291 -1.0920 -0.9874 -2.4971
 5176TIP3   OH239722   7.234   5.863   8.650  0.0179  0.0028 -0.2027
 5176TIP3    H139723   7.219   5.939   8.706 -4.7399 -1.0437  0.3423
 5176TIP3    H239724   7.199   5.888   8.564  1.8678 -0.4104 -1.1421
 5177TIP3   OH239725   3.918   5.098   9.173  0.4337  0.2884  0.4738
 5177TIP3    H139726   3.854   5.165   9.194 -0.6681 -0.5606 -0.0729
 5177TIP3    H239727   3.930   5.049   9.254 -1.7529 -1.2856 -0.0793
 5178TIP3   OH239728   4.908   5.927   8.789  0.2059  0.6438 -0.9920
 5178TIP3    H139729   5.003   5.913   8.790  0.0897 -0.3009 -1.4168
 5178TIP3    H239730   4.897   6.019   8.766  1.0183  0.6015 -1.5869
 5179TIP3   OH239731   4.120   5.448   8.924  0.5362  0.3667 -0.4234
 5179TIP3    H139732   4.153   5.510   8.989 -1.2535 -1.0217  1.9817
 5179TIP3    H239733   4.147   5.362   8.957 -0.9521 -0.4238 -1.1632
 5180TIP3   OH239734   0.496   0.809   9.123  0.2607 -0.6431  0.0496
 5180TIP3    H139735   0.522   0.831   9.034  0.3035  2.1386  0.6689
 5180TIP3    H239736   0.578   0.780   9.165  0.5968 -0.2724 -0.3430
 5181TIP3   OH239737   2.219   2.559   7.913  0.3884 -0.5081 -0.2588
 5181TIP3    H139738   2.284   2.568   7.843  0.4015  0.4643 -0.1383
 5181TIP3    H239739   2.247   2.621   7.980 -0.1970 -0.6873  0.1609
 5182TIP3   OH239740   3.807   4.305   8.866 -0.3973 -0.4564 -0.2117
 5182TIP3    H139741   3.863   4.242   8.821  1.5986  1.1172 -0.0914
 5182TIP3    H239742   3.862   4.340   8.936 -1.1085  1.9621 -0.7588
 5183TIP3   OH239743   7.300   1.225   7.963 -0.3920 -0.1655 -0.3159
 5183TIP3    H139744   7.287   1.310   7.921 -0.7619 -0.5827 -1.0595
 5183TIP3    H239745   7.305   1.246   8.057 -1.5722  0.5595 -0.3927
 5184TIP3   OH239746   3.765   6.811   8.140 -0.2466 -0.0586 -0.1978
 5184TIP3    H139747   3.684   6.830   8.187 -0.2931 -0.3542 -0.1580
 5184TIP3    H239748   3.739   6.752   8.070  0.0270 -0.6360  0.1784
 5185TIP3   OH239749   2.563   2.874   8.130  0.1106 -0.3851 -0.2546
 5185TIP3    H139750   2.588   2.914   8.047  0.4305  0.0909  0.0628
 5185TIP3    H239751   2.519   2.944   8.179 -2.6657 -1.4126 -1.1025
 5186TIP3   OH239752   5.731   3.836   9.181  0.2913 -0.4136  0.0226
 5186TIP3    H139753   5.692   3.761   9.225  0.5630 -0.5992 -0.0546
 5186TIP3    H239754   5.794   3.798   9.120 -0.2509 -0.1788 -0.7036
 5187TIP3   OH239755   3.413   5.012   7.572  0.1342 -0.0232 -0.5792
 5187TIP3    H139756   3.375   4.991   7.486 -0.1187 -0.7330 -0.3004
 5187TIP3    H239757   3.337   5.027   7.628  0.2928  0.0212 -0.3760
 5188TIP3   OH239758   4.692   5.203   9.254  0.3799  0.6599  0.4586
 5188TIP3    H139759   4.740   5.122   9.233 -1.2060 -0.3232  0.4481
 5188TIP3    H239760   4.651   5.227   9.171  0.0988  0.9600  0.6882
 5189TIP3   OH239761   0.825   0.432   7.972 -0.0976 -0.6681  0.0198
 5189TIP3    H139762   0.799   0.382   7.894  0.9091 -2.0613  0.5586
 5189TIP3    H239763   0.918   0.412   7.984  0.0361  0.4112  0.9490
 5190TIP3   OH239764   5.037   3.081   6.909 -0.1859 -0.8189  0.1150
 5190TIP3    H139765   4.984   3.074   6.830  0.7342 -0.7242 -0.5255
 5190TIP3    H239766   4.995   3.151   6.960 -0.8876 -1.0031 -0.1965
 5191TIP3   OH239767   6.175   0.736   7.547  0.1691  0.1209  0.3962
 5191TIP3    H139768   6.216   0.745   7.633  1.0421  0.7717 -0.0591
 5191TIP3    H239769   6.246   0.755   7.485 -1.1502  2.9942 -0.4308
 5192TIP3   OH239770   4.125   2.508   7.460  0.4216 -0.6667 -0.7673
 5192TIP3    H139771   4.214   2.484   7.488  1.3292  2.8467 -0.1503
 5192TIP3    H239772   4.134   2.596   7.425 -2.5174 -1.0192 -2.7817
 5193TIP3   OH239773   5.299   0.382   7.996 -0.4200  0.2402 -0.4085
 5193TIP3    H139774   5.286   0.424   8.081  2.7648 -0.3996  0.5451
 5193TIP3    H239775   5.223   0.325   7.985 -1.1981  0.7666  1.7534
 5194TIP3   OH239776   5.469   3.956   8.416 -0.0187 -0.0367 -0.3391
 5194TIP3    H139777   5.493   3.958   8.509 -0.5899 -0.4145 -0.1820
 5194TIP3    H239778   5.420   3.875   8.406  1.9891 -1.1983 -1.4618
 5195TIP3   OH239779   6.289   4.051   9.198 -0.3919  0.2502  0.7516
 5195TIP3    H139780   6.310   3.964   9.232 -0.1784  0.7641  1.9915
 5195TIP3    H239781   6.205   4.073   9.238 -0.9140  0.2507 -0.2949
 5196TIP3   OH239782   5.911   4.440   8.955 -0.0444 -0.0963 -0.3230
 5196TIP3    H139783   6.005   4.446   8.943 -0.1362  2.2969 -0.4492
 5196TIP3    H239784   5.892   4.346   8.954  2.2483 -0.6161 -0.7680
 5197TIP3   OH239785   4.821   0.144   6.502  0.3468  0.0626 -1.3008
 5197TIP3    H139786   4.755   0.181   6.444 -1.7296 -1.8007 -0.2496
 5197TIP3    H239787   4.793   0.054   6.517  1.1228  0.2255  2.0206
 5198TIP3   OH239788   6.737   7.346   8.271 -0.2468 -0.0419 -0.4704
 5198TIP3    H139789   6.712   7.267   8.320 -0.0633  1.6890  2.6899
 5198TIP3    H239790   6.832   7.351   8.281 -0.3615  1.0533  0.2491
 5199TIP3   OH239791   0.577   1.278   9.017  0.0176  0.5881 -0.1298
 5199TIP3    H139792   0.507   1.239   8.965 -0.2130  2.2535 -1.1598
 5199TIP3    H239793   0.656   1.230   8.992 -0.6095 -0.7609  0.4228
 5200TIP3   OH239794   6.058   4.295   7.654  0.1376  0.2493  0.0234
 5200TIP3    H139795   6.004   4.285   7.576 -0.0020  1.2227 -0.0166
 5200TIP3    H239796   6.146   4.268   7.626 -0.4454 -2.2321  0.3319
 5201TIP3   OH239797   5.573   6.061   8.592 -0.2172  0.2786  0.0765
 5201TIP3    H139798   5.535   6.103   8.515 -1.4625 -2.0311 -0.6686
 5201TIP3    H239799   5.662   6.039   8.566 -0.7138 -0.7267 -0.8463
 5202TIP3   OH239800   3.179   7.181   9.281  0.1841  0.4153  0.0539
 5202TIP3    H139801   3.118   7.206   9.351  0.5943 -2.7703  1.7384
 5202TIP3    H239802   3.263   7.218   9.307 -0.3232  2.0882 -0.5846
 5203TIP3   OH239803   1.181   5.789   7.953  0.1211  0.8325 -0.0182
 5203TIP3    H139804   1.116   5.808   8.020  1.2060 -0.3802  1.4544
 5203TIP3    H239805   1.246   5.734   7.997  1.7697  1.3810 -1.6022
 5204TIP3   OH239806   4.220   4.836   7.388 -0.3609  0.1725  0.4104
 5204TIP3    H139807   4.134   4.870   7.362 -1.5558 -2.1386  1.0281
 5204TIP3    H239808   4.283   4.894   7.346 -2.2234  1.1541 -1.1814
 5205TIP3   OH239809   2.146   4.175   8.065  0.6134 -0.1746 -0.1577
 5205TIP3    H139810   2.120   4.120   7.991  1.9345 -0.4439 -0.4461
 5205TIP3    H239811   2.063   4.205   8.103 -0.0970 -0.8543 -1.1236
 5206TIP3   OH239812   7.124   2.268   7.146  0.6784 -0.6725 -0.2851
 5206TIP3    H139813   7.159   2.348   7.107  2.1263 -1.2226 -0.1973
 5206TIP3    H239814   7.036   2.259   7.109  0.9788  0.2830 -1.2763
 5207TIP3   OH239815   1.597   3.776   8.878 -0.8482 -0.2476 -0.0807
 5207TIP3    H139816   1.643   3.849   8.919  0.1159  0.4307 -2.2366
 5207TIP3    H239817   1.513   3.813   8.852 -0.6945 -0.1389 -0.4240
 5208TIP3   OH239818   7.168   5.995   7.979 -0.5160 -0.1409 -0.6432
 5208TIP3    H139819   7.193   6.078   8.018  0.1279 -0.8708  0.5811
 5208TIP3    H239820   7.165   6.012   7.885  1.8994  0.7204 -0.6401
 5209TIP3   OH239821   5.977   6.690   7.390  0.3215  0.1529  0.0469
 5209TIP3    H139822   5.999   6.775   7.428  0.6999 -0.2489  0.7508
 5209TIP3    H239823   6.058   6.640   7.397  0.2555 -0.0931 -0.8599
 5210TIP3   OH239824   3.622   6.883   7.454 -0.0295 -0.0778  0.7348
 5210TIP3    H139825   3.700   6.827   7.452 -1.1607 -1.7231 -1.3190
 5210TIP3    H239826   3.553   6.826   7.487 -0.5387  1.1842  1.9442
 5211TIP3   OH239827   2.877   4.934   9.259 -0.4071  0.4243 -0.5994
 5211TIP3    H139828   2.854   5.020   9.224 -0.1137  1.1013  0.8279
 5211TIP3    H239829   2.973   4.932   9.256 -0.4230 -0.2439 -1.4648
 5212TIP3   OH239830   0.725   6.932   8.015  0.7180 -0.0678 -0.3187
 5212TIP3    H139831   0.766   7.015   8.040 -1.7578  1.0552  0.2431
 5212TIP3    H239832   0.675   6.905   8.092  1.6647 -2.2749 -0.3927
 5213TIP3   OH239833   6.060   3.275   9.112 -0.4831  0.3933 -0.1624
 5213TIP3    H139834   6.068   3.185   9.082 -1.0507  0.4065 -0.3635
 5213TIP3    H239835   6.047   3.326   9.032  0.1688  0.6987 -0.0808
 5214TIP3   OH239836   4.730   0.497   7.293 -0.0967  0.6946 -0.0997
 5214TIP3    H139837   4.635   0.496   7.286 -0.0253 -1.0003 -1.3399
 5214TIP3    H239838   4.760   0.545   7.216  0.1074 -1.5981 -1.5263
 5215TIP3   OH239839   0.824   5.445   7.751  0.0986  0.5898  0.4223
 5215TIP3    H139840   0.873   5.373   7.710  0.8582  2.3734 -1.9748
 5215TIP3    H239841   0.738   5.443   7.708  0.4161  1.6083 -0.2870
 5216TIP3   OH239842   4.730   6.620   9.018 -0.4087  0.5602  0.1018
 5216TIP3    H139843   4.804   6.561   9.031 -0.9430 -0.0675  0.3126
 5216TIP3    H239844   4.654   6.570   9.045 -1.0185  0.8968 -0.9575
 5217TIP3   OH239845   7.255   3.535   8.099 -0.1256  0.6319  0.1239
 5217TIP3    H139846   7.258   3.450   8.054  1.3115  0.8373 -0.2088
 5217TIP3    H239847   7.344   3.548   8.130  0.3695  3.2126 -2.0626
 5218TIP3   OH239848   5.716   3.862   9.683 -0.1128  0.2922 -0.3673
 5218TIP3    H139849   5.681   3.776   9.658 -0.8887  0.6198 -0.4580
 5218TIP3    H239850   5.786   3.842   9.745 -0.7935 -0.3930  0.2149
 5219TIP3   OH239851   6.617   5.090   8.925 -0.0048  0.0666  0.1018
 5219TIP3    H139852   6.550   5.108   8.991  1.2953 -0.4736  1.6446
 5219TIP3    H239853   6.570   5.093   8.842 -1.5852  1.4595  0.9763
 5220TIP3   OH239854   0.119   5.781   7.860 -0.2900 -0.4767 -0.3015
 5220TIP3    H139855   0.049   5.751   7.919 -0.5436  0.7186  0.0326
 5220TIP3    H239856   0.081   5.773   7.772  0.0124 -2.0573 -0.3319
 5221TIP3   OH239857   3.745   5.322   9.205  0.0100  0.6333  0.0413
 5221TIP3    H139858   3.651   5.335   9.199 -0.0040  0.0364 -1.8075
 5221TIP3    H239859   3.783   5.404   9.173  0.1406  1.0488  1.2332
 5222TIP3   OH239860   1.558   0.500   9.026  0.1221 -0.9298 -0.3247
 5222TIP3    H139861   1.633   0.500   8.966  1.1697 -0.3659  0.9454
 5222TIP3    H239862   1.482   0.488   8.969  0.9803  0.6621 -1.9086
 5223TIP3   OH239863   1.326   0.037   9.343 -0.2494  0.5386  0.9808
 5223TIP3    H139864   1.306   0.112   9.287  0.6510 -0.6788 -1.1130
 5223TIP3    H239865   1.385   0.072   9.410 -1.2659  2.0321  1.1277
 5224TIP3   OH239866   4.889   2.447   8.409  0.1453 -0.6903 -0.1500
 5224TIP3    H139867   4.983   2.433   8.420  0.0238 -0.5018  1.3070
 5224TIP3    H239868   4.863   2.496   8.486 -0.7518  1.3056 -1.6384
 5225TIP3   OH239869   6.648   0.246   8.052 -0.2558 -0.0121  0.8197
 5225TIP3    H139870   6.711   0.208   7.991  0.9175  0.7017  1.5474
 5225TIP3    H239871   6.701   0.296   8.114 -1.2672 -1.6786  3.2102
 5226TIP3   OH239872   4.965   2.693   9.539 -1.0778  0.1296  0.0617
 5226TIP3    H139873   4.999   2.755   9.603 -3.2500  2.9056 -1.2834
 5226TIP3    H239874   4.898   2.644   9.586 -0.3410 -0.2635  0.7449
 5227TIP3   OH239875   4.675   2.222   8.980 -0.2185  0.7550 -0.3426
 5227TIP3    H139876   4.761   2.245   9.017  0.1951  0.4242 -1.0801
 5227TIP3    H239877   4.657   2.135   9.017  0.1626  0.4547 -0.8520
 5228TIP3   OH239878   1.671   3.473   9.510  0.2597 -0.3911 -0.2598
 5228TIP3    H139879   1.640   3.389   9.542  1.5314 -0.9783 -0.5191
 5228TIP3    H239880   1.621   3.538   9.561 -1.2105 -1.2690 -0.5325
 5229TIP3   OH239881   6.110   1.264   8.109  0.2540 -0.3214 -0.5834
 5229TIP3    H139882   6.079   1.329   8.045 -0.6653  0.7318  0.8512
 5229TIP3    H239883   6.040   1.261   8.174  1.4521 -0.8482  0.7172
 5230TIP3   OH239884   7.580   1.954   8.873 -0.7241 -0.3998 -0.2739
 5230TIP3    H139885   7.621   2.030   8.913  0.4550 -1.2852  0.2883
 5230TIP3    H239886   7.487   1.962   8.894 -0.5120  0.5308  0.3652
 5231TIP3   OH239887   3.388   0.426   8.094 -0.2848  0.0673 -0.5130
 5231TIP3    H139888   3.363   0.518   8.084 -0.7434 -0.0051 -0.0388
 5231TIP3    H239889   3.383   0.410   8.188  0.3810 -0.2795 -0.5322
 5232TIP3   OH239890   5.055   6.309   7.610  0.1613  0.1752 -0.0153
 5232TIP3    H139891   5.144   6.288   7.582  0.6915  1.6447  0.5076
 5232TIP3    H239892   5.063   6.332   7.702 -0.6534  0.9437 -0.1214
 5233TIP3   OH239893   4.568   0.817   6.549 -0.0847 -0.2485  0.3419
 5233TIP3    H139894   4.490   0.821   6.494 -0.8635 -0.3260  1.3962
 5233TIP3    H239895   4.551   0.744   6.609  0.3373  0.3597  1.2344
 5234TIP3   OH239896   5.424   1.271   8.830  0.1812 -0.2158  0.4626
 5234TIP3    H139897   5.442   1.364   8.813 -0.5055 -0.2040 -0.2529
 5234TIP3    H239898   5.333   1.259   8.803  0.1774 -1.0368  0.8138
 5235TIP3   OH239899   0.788   3.683   8.928 -0.5994 -0.2056  0.0842
 5235TIP3    H139900   0.722   3.650   8.868 -0.8905 -0.7308  0.6680
 5235TIP3    H239901   0.871   3.646   8.896 -0.6860 -0.0922 -0.2650
 5236TIP3   OH239902   2.488   7.233   9.588 -0.1109 -0.0164  0.8540
 5236TIP3    H139903   2.449   7.294   9.525  0.4995 -0.5037 -0.0242
 5236TIP3    H239904   2.418   7.171   9.607  0.0008 -0.4931 -0.1919
 5237TIP3   OH239905   5.227   4.592   9.076  0.0077  0.7648  0.2675
 5237TIP3    H139906   5.190   4.672   9.038 -0.7641  0.7619  0.9782
 5237TIP3    H239907   5.321   4.598   9.058 -0.2941  0.8744 -1.4060
 5238TIP3   OH239908   4.666   4.259   8.065  0.3078 -0.1793  0.6628
 5238TIP3    H139909   4.692   4.215   8.146 -2.1040  0.8862  2.0909
 5238TIP3    H239910   4.649   4.349   8.091  0.5435  0.4693 -1.2827
 5239TIP3   OH239911   1.594   3.448   9.236 -0.0689  0.1411  0.0599
 5239TIP3    H139912   1.613   3.466   9.328 -1.1296  1.1115  0.1026
 5239TIP3    H239913   1.676   3.469   9.190  0.7004 -1.0161  0.8230
 5240TIP3   OH239914   1.184   1.128   7.166  0.5946 -0.8626  0.1838
 5240TIP3    H139915   1.241   1.203   7.183 -1.2028  0.5524  0.3230
 5240TIP3    H239916   1.152   1.102   7.252 -1.4636  0.5052 -0.0826
 5241TIP3   OH239917   6.630   6.777   6.949 -0.2224  0.2705  0.6174
 5241TIP3    H139918   6.582   6.856   6.925 -1.2437 -0.7907 -1.1070
 5241TIP3    H239919   6.565   6.723   6.995  0.0298 -0.1715  0.4609
 5242TIP3   OH239920   6.296   3.021   8.759  0.3772 -0.2538 -0.0427
 5242TIP3    H139921   6.385   3.048   8.780  1.7791 -3.7387 -0.8170
 5242TIP3    H239922   6.273   3.071   8.681  1.6054  0.7510  0.2063
 5243TIP3   OH239923   4.709   5.339   9.895 -0.5672  0.1119 -0.2658
 5243TIP3    H139924   4.617   5.328   9.918 -1.0364  0.1336 -2.0000
 5243TIP3    H239925   4.738   5.253   9.866 -0.1368  0.1818 -0.0565
 5244TIP3   OH239926   6.178   3.794   6.756  0.4106 -0.5011 -0.4121
 5244TIP3    H139927   6.245   3.852   6.722 -0.6084  0.3041 -1.0952
 5244TIP3    H239928   6.103   3.851   6.774 -0.6928 -1.6028 -1.3061
 5245TIP3   OH239929   0.635   3.204   8.295 -0.0656  0.0797 -0.2623
 5245TIP3    H139930   0.598   3.133   8.348 -0.0363 -0.5146 -1.0306
 5245TIP3    H239931   0.682   3.160   8.225 -1.3445  0.8311 -1.6566
 5246TIP3   OH239932   4.968   4.106   9.134 -0.3131  0.1710 -0.2078
 5246TIP3    H139933   5.058   4.139   9.126 -0.2989  0.2991  0.4269
 5246TIP3    H239934   4.915   4.169   9.086 -0.0762  0.1380 -0.5196
 5247TIP3   OH239935   7.292   5.218   9.430  0.1076  0.1961 -0.1287
 5247TIP3    H139936   7.203   5.186   9.445  0.9397 -1.5219  1.7157
 5247TIP3    H239937   7.299   5.296   9.486  0.1722 -0.5047  0.8639
 5248TIP3   OH239938   6.392   2.896   9.122 -0.3888  0.0665 -0.2138
 5248TIP3    H139939   6.319   2.860   9.172  0.4671 -0.9172  0.3619
 5248TIP3    H239940   6.447   2.939   9.188  0.3211 -0.5172 -0.4124
 5249TIP3   OH239941   5.957   3.950   6.823  0.2295  0.1533 -0.3096
 5249TIP3    H139942   5.906   3.920   6.898  1.7659  2.9596  2.0476
 5249TIP3    H239943   5.900   4.012   6.778  0.5506  1.1657  0.6664
 5250TIP3   OH239944   5.906   3.849   7.812 -0.0976 -0.6919  0.3630
 5250TIP3    H139945   5.894   3.924   7.870 -0.9282  1.8632 -2.8372
 5250TIP3    H239946   6.001   3.845   7.798 -0.0716 -0.0775  0.3349
 5251TIP3   OH239947   2.292   0.203   8.479  0.1608 -0.4516  0.1996
 5251TIP3    H139948   2.373   0.210   8.429 -0.5491 -0.5362 -1.0020
 5251TIP3    H239949   2.251   0.122   8.448 -1.1716  0.4300 -0.4806
 5252TIP3   OH239950   5.359   7.494   8.312 -0.0028  0.2013  0.0162
 5252TIP3    H139951   5.346   7.503   8.407  1.8936 -2.1654  0.6088
 5252TIP3    H239952   5.392   7.580   8.285  1.1554  0.4247  1.8923
 5253TIP3   OH239953   3.946   3.927   9.082 -0.6225  0.3321  0.3647
 5253TIP3    H139954   3.955   3.832   9.075  1.0767  0.4938 -0.1622
 5253TIP3    H239955   3.950   3.959   8.992 -2.7624  0.8351  0.3934
 5254TIP3   OH239956   7.621   4.048   8.026 -0.0135  0.3664  0.6390
 5254TIP3    H139957   7.630   3.990   8.102  1.6458  0.3936  0.4943
 5254TIP3    H239958   7.593   3.990   7.955  1.5219 -0.2805  0.5224
 5255TIP3   OH239959   6.976   2.538   8.468 -0.2137 -0.1016 -1.0187
 5255TIP3    H139960   7.069   2.537   8.488  0.0286  0.0647 -2.0655
 5255TIP3    H239961   6.937   2.596   8.535  0.2410 -1.0794  0.1232
 5256TIP3   OH239962   4.656   0.155   9.071  0.8348  0.1076 -0.2225
 5256TIP3    H139963   4.673   0.248   9.054  1.6211 -0.1011 -0.6483
 5256TIP3    H239964   4.622   0.153   9.160  0.3619  0.8462 -0.3739
 5257TIP3   OH239965   2.310   7.643   8.321 -0.5294  0.3674 -0.2395
 5257TIP3    H139966   2.364   7.564   8.315 -2.5952 -1.1087 -0.1275
 5257TIP3    H239967   2.323   7.688   8.238 -0.0416 -0.5622 -0.6686
 5258TIP3   OH239968   0.655   3.409   7.409 -0.0716 -0.0894  0.1859
 5258TIP3    H139969   0.728   3.351   7.428  1.4876  0.7329 -2.7168
 5258TIP3    H239970   0.662   3.479   7.475  1.9385  0.0752 -0.1473
 5259TIP3   OH239971   4.507   6.997   6.389 -0.1851  0.0490  0.2737
 5259TIP3    H139972   4.567   6.925   6.408  1.9048  2.0065  1.6107
 5259TIP3    H239973   4.525   7.019   6.298 -0.5736 -0.8487 -0.0340
 5260TIP3   OH239974   3.491   5.395   9.178  0.0104 -0.2732  0.2815
 5260TIP3    H139975   3.431   5.460   9.141 -0.0373 -0.9563 -0.8846
 5260TIP3    H239976   3.441   5.353   9.248 -1.0419 -1.1272 -0.9535
 5261TIP3   OH239977   7.381   4.446   9.251 -0.4270  0.2827  0.3116
 5261TIP3    H139978   7.466   4.425   9.212 -0.0030  1.1647  0.7365
 5261TIP3    H239979   7.329   4.366   9.239  0.6443 -0.4748  0.5481
 5262TIP3   OH239980   3.645   0.822   8.814  0.2764 -0.4587 -0.8557
 5262TIP3    H139981   3.585   0.757   8.851 -0.3336 -0.2960 -1.5223
 5262TIP3    H239982   3.660   0.884   8.885  1.4539 -1.7110  0.0222
 5263TIP3   OH239983   1.964   6.226   8.227  0.2533  0.1032  0.5114
 5263TIP3    H139984   1.994   6.301   8.279  0.1494 -0.7480  1.8576
 5263TIP3    H239985   2.023   6.223   8.152 -0.7222  2.4670 -0.4537
 5264TIP3   OH239986   1.790   5.801   7.085 -0.1521  0.0106  0.1130
 5264TIP3    H139987   1.730   5.851   7.141  0.3231  1.1301 -0.3391
 5264TIP3    H239988   1.735   5.768   7.014 -0.0980  1.9955 -0.9338
 5265TIP3   OH239989   6.589   0.187   9.335 -0.6208  0.2115 -0.2881
 5265TIP3    H139990   6.552   0.157   9.418  0.3599  0.0987  0.1352
 5265TIP3    H239991   6.682   0.203   9.356 -0.2423 -0.3349 -1.4955
 5266TIP3   OH239992   3.463   5.216   8.597  0.4520  0.5110 -0.2592
 5266TIP3    H139993   3.530   5.149   8.581  0.7186  0.7880 -0.3145
 5266TIP3    H239994   3.381   5.174   8.573  0.7753  0.7110 -1.8279
 5267TIP3   OH239995   2.801   7.407   9.481  0.4139 -0.3919  0.1020
 5267TIP3    H139996   2.837   7.326   9.516 -0.7720 -1.2598 -0.6043
 5267TIP3    H239997   2.796   7.466   9.556  1.7365 -0.7791  0.5300
 5268TIP3   OH239998   4.684   5.284   7.378 -0.3306  0.2526  0.0219
 5268TIP3    H139999   4.653   5.309   7.466  1.2315  0.5547  0.5186
 5268TIP3    H240000   4.770   5.325   7.371  0.2040 -0.9972 -1.0777
 5269TIP3   OH240001   4.901   7.331   9.494 -0.2656 -0.0879  0.1719
 5269TIP3    H140002   4.963   7.282   9.441 -0.1189  0.9555 -0.6593
 5269TIP3    H240003   4.865   7.267   9.555 -1.0448 -1.5406 -1.7053
 5270TIP3   OH240004   7.676   1.853   7.470  0.0100 -0.0391  0.5275
 5270TIP3    H140005   7.682   1.818   7.559 -1.8159  1.3672  1.2510
 5270TIP3    H240006   7.717   1.939   7.475  0.1270 -0.0536 -0.0636
 5271TIP3   OH240007   4.824   5.238   7.967  0.5684  0.2146  0.0385
 5271TIP3    H140008   4.775   5.317   7.943 -1.3862 -0.6705  0.8838
 5271TIP3    H240009   4.783   5.209   8.049 -0.1116 -2.7399 -1.2135
 5272TIP3   OH240010   0.594   7.251   8.172  0.0611 -0.0470 -0.3484
 5272TIP3    H140011   0.687   7.258   8.147 -0.2669  0.0689 -1.5730
 5272TIP3    H240012   0.578   7.331   8.222  0.9287 -0.6596  0.9978
 5273TIP3   OH240013   0.865   0.656   8.534 -0.4913  0.7615  0.3281
 5273TIP3    H140014   0.880   0.695   8.620  0.2905 -1.3008  1.2052
 5273TIP3    H240015   0.769   0.651   8.527 -0.6089 -1.0445  2.1256
 5274TIP3   OH240016   6.779   5.745   8.480 -1.2348  0.7047 -0.1990
 5274TIP3    H140017   6.817   5.808   8.542 -1.1932  2.2934 -1.7653
 5274TIP3    H240018   6.686   5.743   8.504 -0.6810 -1.5029  2.2055
 5275TIP3   OH240019   2.568   1.089   8.459 -0.1574  0.2037 -0.0150
 5275TIP3    H140020   2.517   1.074   8.539 -0.5166  3.4697  0.5126
 5275TIP3    H240021   2.505   1.076   8.388 -0.1292 -1.6015  0.2489
 5276TIP3   OH240022   1.714   6.357   8.082 -0.2883  0.2659 -0.2550
 5276TIP3    H140023   1.697   6.381   8.173 -1.7386  0.9524 -0.6781
 5276TIP3    H240024   1.805   6.382   8.067  0.1631 -0.4479  1.1800
 5277TIP3   OH240025   3.838   7.192   8.044  0.2582 -0.6063 -0.6181
 5277TIP3    H140026   3.788   7.189   8.126  0.4250 -0.5735 -0.5155
 5277TIP3    H240027   3.771   7.188   7.975  0.0760 -0.0053 -0.4837
 5278TIP3   OH240028   5.430   0.187   9.194  0.1685 -0.4907  0.4667
 5278TIP3    H140029   5.336   0.186   9.176  0.4224  1.3613 -1.4993
 5278TIP3    H240030   5.443   0.121   9.261 -2.6925 -0.0531  1.5970
 5279TIP3   OH240031   2.398   0.478   8.234  0.4634  0.0241 -0.3606
 5279TIP3    H140032   2.457   0.531   8.180 -0.8476  1.6667 -0.2576
 5279TIP3    H240033   2.454   0.408   8.268  2.3987  1.5471 -0.1860
 5280TIP3   OH240034   7.168   1.604   7.460  0.6535  0.5405  0.3040
 5280TIP3    H140035   7.239   1.665   7.440  0.4866  0.2355 -1.3575
 5280TIP3    H240036   7.202   1.518   7.434  0.6871 -0.0531  2.1198
 5281TIP3   OH240037   6.508   1.849   9.549  0.4939 -0.2046  0.5975
 5281TIP3    H140038   6.503   1.936   9.510  0.0215 -0.2140  0.6292
 5281TIP3    H240039   6.587   1.851   9.603  1.5902 -0.4360 -0.9439
 5282TIP3   OH240040   7.671   1.393   7.712  0.7513  0.1575 -0.9431
 5282TIP3    H140041   7.623   1.332   7.768  2.1138 -1.4521 -1.4581
 5282TIP3    H240042   7.705   1.459   7.772  2.8624 -1.9580  0.3292
 5283TIP3   OH240043   3.470   7.469   8.862 -0.4279 -0.7312 -0.0377
 5283TIP3    H140044   3.453   7.437   8.951  0.3543 -0.7720  0.1053
 5283TIP3    H240045   3.418   7.412   8.805  1.1785 -2.5055  0.1797
 5284TIP3   OH240046   6.420   1.815   8.587 -0.5861  0.1645 -0.0713
 5284TIP3    H140047   6.358   1.808   8.661 -0.1413 -0.7601  0.2357
 5284TIP3    H240048   6.432   1.724   8.558 -0.0695  0.4327 -0.7099
 5285TIP3   OH240049   0.177   5.960   8.351 -0.2585  0.1127 -0.5949
 5285TIP3    H140050   0.088   5.967   8.386 -0.6138  0.0672 -1.4795
 5285TIP3    H240051   0.201   5.868   8.367 -0.0992  0.2913  0.2577
 5286TIP3   OH240052   5.923   3.858   8.553 -0.1979 -0.5151  0.1943
 5286TIP3    H140053   5.908   3.770   8.587 -0.4430 -0.5914 -0.1014
 5286TIP3    H240054   5.862   3.866   8.480  0.5007 -0.4634 -0.4087
 5287TIP3   OH240055   6.224   7.135   8.027 -0.3726 -0.4715 -0.2340
 5287TIP3    H140056   6.315   7.161   8.013 -0.6367 -0.6171 -2.6024
 5287TIP3    H240057   6.207   7.156   8.119  1.9268 -0.1068  0.1652
 5288TIP3   OH240058   4.213   5.175   7.409  0.1664  0.9069 -0.2685
 5288TIP3    H140059   4.293   5.226   7.403 -0.1675  1.3294 -1.3627
 5288TIP3    H240060   4.209   5.126   7.327 -0.3783  0.4082  0.0444
 5289TIP3   OH240061   0.196   2.877   8.492 -1.0746  0.1073 -0.3899
 5289TIP3    H140062   0.129   2.915   8.550 -0.3742  1.3332 -0.3306
 5289TIP3    H240063   0.175   2.912   8.405 -0.4758  0.5947 -0.3515
 5290TIP3   OH240064   1.834   2.206   7.778 -0.0072  0.2682 -0.5728
 5290TIP3    H140065   1.784   2.238   7.703  2.4078 -1.6983 -3.2373
 5290TIP3    H240066   1.899   2.273   7.795 -1.3553  1.3248  0.7758
 5291TIP3   OH240067   2.973   6.803   9.394  0.2309 -0.1470 -0.5775
 5291TIP3    H140068   2.965   6.865   9.321  0.0695 -2.0118 -2.2052
 5291TIP3    H240069   2.885   6.795   9.428  0.0747 -0.1742 -0.9762
 5292TIP3   OH240070   4.767   2.580   8.168  0.0436  0.3554  0.0110
 5292TIP3    H140071   4.773   2.547   8.258  1.2935  2.1145  0.6279
 5292TIP3    H240072   4.822   2.520   8.117 -0.8827 -0.8126  0.3364
 5293TIP3   OH240073   2.724   3.463   8.642 -0.1879 -0.0425  0.0110
 5293TIP3    H140074   2.692   3.544   8.602 -0.5204 -0.4923 -0.6516
 5293TIP3    H240075   2.759   3.412   8.569  0.4783 -0.2891  0.4945
 5294TIP3   OH240076   5.089   0.180   7.937  0.3646 -0.5068  0.0168
 5294TIP3    H140077   5.112   0.127   8.013 -0.4060 -0.1621  0.5049
 5294TIP3    H240078   5.005   0.146   7.908 -1.1546  1.6869  1.5744
 5295TIP3   OH240079   5.888   5.073   8.174  0.0595 -0.4884  0.5967
 5295TIP3    H140080   5.866   5.163   8.197 -1.5045 -0.3793 -1.1171
 5295TIP3    H240081   5.841   5.020   8.238  0.6197 -0.1190  1.3310
 5296TIP3   OH240082   4.075   7.602   9.353  0.0115  0.1406  0.1203
 5296TIP3    H140083   4.050   7.529   9.297 -0.2696  0.6307 -0.4097
 5296TIP3    H240084   4.129   7.563   9.422 -2.7081 -1.0661  1.7175
 5297TIP3   OH240085   6.644   5.442   9.172  0.5489 -0.1224 -0.0085
 5297TIP3    H140086   6.717   5.470   9.117  0.6935  1.2294  0.8139
 5297TIP3    H240087   6.675   5.362   9.215  1.3258  0.1319 -0.0898
 5298TIP3   OH240088   4.540   4.425   9.548 -0.3093  0.5473 -0.1863
 5298TIP3    H140089   4.449   4.419   9.579 -0.0594  2.4721  1.1033
 5298TIP3    H240090   4.557   4.519   9.544  2.1475  0.2536  1.2464
 5299TIP3   OH240091   3.435   3.597   9.197  0.6212 -0.2228  0.5841
 5299TIP3    H140092   3.435   3.683   9.238 -0.1275 -1.1785  2.7521
 5299TIP3    H240093   3.456   3.536   9.268 -1.0332 -2.0195 -0.3618
 5300TIP3   OH240094   0.849   6.918   6.515  0.3441 -0.2502 -0.0349
 5300TIP3    H140095   0.931   6.968   6.518 -1.2438  2.6261 -0.3330
 5300TIP3    H240096   0.830   6.909   6.421 -0.9621  1.5741 -0.0018
 5301TIP3   OH240097   7.434   2.951   7.384  0.7664 -0.7579  0.4831
 5301TIP3    H140098   7.360   2.962   7.445  0.9579 -0.2327  0.6308
 5301TIP3    H240099   7.510   2.982   7.434  0.7864  0.6255 -0.3400
 5302TIP3   OH240100   4.090   2.326   8.499  0.0393 -0.3342  0.0007
 5302TIP3    H140101   4.163   2.384   8.520 -0.7060  1.3520 -1.7715
 5302TIP3    H240102   4.096   2.313   8.404 -1.6271 -0.5869 -0.0963
 5303TIP3   OH240103   6.766   0.270   8.694 -0.0342 -0.4658  0.2151
 5303TIP3    H140104   6.829   0.292   8.625 -0.8189  0.1662 -0.3254
 5303TIP3    H240105   6.799   0.189   8.732  0.6458 -0.5961 -0.6182
 5304TIP3   OH240106   2.296   4.824   8.181  0.1428 -0.6251 -0.3524
 5304TIP3    H140107   2.300   4.736   8.143 -1.3379 -0.0558 -1.9284
 5304TIP3    H240108   2.250   4.877   8.116  1.2066  1.3998  0.4526
 5305TIP3   OH240109   0.208   6.762   6.944 -0.5163 -0.1553 -0.3326
 5305TIP3    H140110   0.126   6.776   6.990 -0.8699 -0.8572 -0.7245
 5305TIP3    H240111   0.259   6.706   7.003 -0.4653 -0.0165 -0.2455
 5306TIP3   OH240112   7.041   3.814   8.530 -0.4347  0.5275  0.1549
 5306TIP3    H140113   7.089   3.764   8.464  0.4919  1.5476  0.0272
 5306TIP3    H240114   7.019   3.896   8.486 -0.5908  0.8593  0.8402
 5307TIP3   OH240115   7.008   7.094   7.903  0.5653 -0.0825  0.3951
 5307TIP3    H140116   7.004   7.019   7.963  0.4428  0.7966  1.5301
 5307TIP3    H240117   6.917   7.125   7.898  0.2337 -1.1946 -1.6934
 5308TIP3   OH240118   4.243   5.861   9.340  0.0749  0.9087 -0.0790
 5308TIP3    H140119   4.220   5.772   9.369 -0.5560  0.8320 -0.7798
 5308TIP3    H240120   4.325   5.880   9.385  0.4520 -0.1989 -0.2512
 5309TIP3   OH240121   1.380   3.331   9.124 -0.6441 -0.4343 -0.0623
 5309TIP3    H140122   1.452   3.382   9.160 -2.4272  1.0049  1.7184
 5309TIP3    H240123   1.374   3.360   9.033  0.3423  0.2196  0.0659
 5310TIP3   OH240124   2.586   2.157   7.529  0.6851  0.0904  0.0999
 5310TIP3    H140125   2.640   2.097   7.477  0.7938  0.1688  0.1236
 5310TIP3    H240126   2.628   2.159   7.615  1.1408  0.8238 -0.1339
 5311TIP3   OH240127   7.607   1.315   8.473  0.2090  0.2456 -0.6599
 5311TIP3    H140128   7.615   1.373   8.397 -0.2649 -0.4017 -1.2169
 5311TIP3    H240129   7.571   1.371   8.542  1.3772  1.0364 -0.6567
 5312TIP3   OH240130   1.839   0.108   9.060 -0.0027 -0.0616 -0.2565
 5312TIP3    H140131   1.761   0.159   9.039 -0.7823 -1.0624  0.2059
 5312TIP3    H240132   1.807   0.025   9.093  1.2193 -1.6270 -2.6982
 5313TIP3   OH240133   0.390   7.109   9.579  0.4971  0.0093  0.0108
 5313TIP3    H140134   0.352   7.021   9.573  1.1920 -0.2214 -1.2456
 5313TIP3    H240135   0.369   7.138   9.668 -1.5845 -0.5737 -0.2384
 5314TIP3   OH240136   5.540   5.763   8.799 -0.4250  0.0672  0.5536
 5314TIP3    H140137   5.453   5.725   8.812 -0.2992 -0.8388 -1.0202
 5314TIP3    H240138   5.543   5.786   8.706  1.3556 -0.8634  0.3231
 5315TIP3   OH240139   3.171   7.343   7.262 -0.5586 -0.5647  0.1084
 5315TIP3    H140140   3.139   7.388   7.341 -1.2841  0.7035 -0.8784
 5315TIP3    H240141   3.102   7.279   7.243 -2.8570  2.3014 -2.1313
 5316TIP3   OH240142   4.882   5.427   9.698 -0.2361 -0.0556 -0.0057
 5316TIP3    H140143   4.841   5.396   9.779 -0.4651 -0.3003 -0.2156
 5316TIP3    H240144   4.943   5.358   9.673 -0.9086 -0.4505 -0.5941
 5317TIP3   OH240145   1.002   3.525   9.394  0.0049  0.0278  0.4976
 5317TIP3    H140146   0.986   3.548   9.303 -1.9799 -1.3881  0.4217
 5317TIP3    H240147   1.060   3.449   9.390 -0.9050 -0.6758  0.3387
 5318TIP3   OH240148   4.710   3.346   8.455 -0.2497 -0.6700 -0.1845
 5318TIP3    H140149   4.709   3.291   8.377 -1.7786 -1.4013  0.3157
 5318TIP3    H240150   4.654   3.421   8.433  0.1407 -0.3597 -0.1370
 5319TIP3   OH240151   0.421   2.961   8.225 -0.5037  0.0313  0.0930
 5319TIP3    H140152   0.411   2.945   8.319  1.4376  0.5598  0.4480
 5319TIP3    H240153   0.440   2.875   8.188 -1.6901 -0.2431  0.1115
 5320TIP3   OH240154   6.626   0.659   7.857 -0.2676 -0.0363  0.5455
 5320TIP3    H140155   6.714   0.671   7.819 -1.2136  1.0186 -1.5401
 5320TIP3    H240156   6.620   0.727   7.924  0.1073  0.7572 -0.1874
 5321TIP3   OH240157   1.518   6.247   8.681  0.1853  0.3189 -0.1338
 5321TIP3    H140158   1.566   6.240   8.764 -0.7581 -0.3111  0.3845
 5321TIP3    H240159   1.579   6.215   8.615  0.4767 -0.4671  0.5037
 5322TIP3   OH240160   1.756   0.351   8.048  0.0457  0.1735 -0.0857
 5322TIP3    H140161   1.739   0.438   8.012 -0.3930  0.3758  0.5903
 5322TIP3    H240162   1.716   0.291   7.986  1.0790  0.3878 -1.0072
 5323TIP3   OH240163   2.825   2.874   8.856  0.1239 -0.3302  0.0830
 5323TIP3    H140164   2.852   2.809   8.790  1.0191  0.9069 -0.8117
 5323TIP3    H240165   2.773   2.824   8.918  1.2431 -2.0335 -0.2676
 5324TIP3   OH240166   1.911   3.476   7.124 -0.0777  0.3387  0.0460
 5324TIP3    H140167   1.850   3.530   7.074 -1.7210 -1.1645  0.3046
 5324TIP3    H240168   1.916   3.394   7.075 -1.4021 -1.0280  1.9948
 5325TIP3   OH240169   4.038   0.133   8.257  0.3445  0.0435 -0.9874
 5325TIP3    H140170   4.121   0.177   8.274  0.0290  0.3213 -0.1313
 5325TIP3    H240171   3.975   0.205   8.245 -0.0699 -0.1650 -0.1134
 5326TIP3   OH240172   7.424   3.083   7.932 -0.1183  0.6946  0.2861
 5326TIP3    H140173   7.396   3.062   7.843  0.3068 -0.1659  0.3428
 5326TIP3    H240174   7.516   3.055   7.936  0.2037  1.7414  0.6676
 5327TIP3   OH240175   5.920   5.951   9.002 -0.0500  0.5205 -0.1816
 5327TIP3    H140176   5.900   6.007   8.927  1.2283  0.5530 -0.5215
 5327TIP3    H240177   5.835   5.931   9.041 -0.9207 -0.9250 -2.6608
 5328TIP3   OH240178   5.728   0.959   7.747  0.2701  0.7483  0.7529
 5328TIP3    H140179   5.732   0.867   7.720 -2.0423  0.2215  1.9112
 5328TIP3    H240180   5.819   0.987   7.752  1.0243 -1.3717  0.0635
 5329TIP3   OH240181   1.586   5.311   8.522  0.8340 -0.7328 -0.4875
 5329TIP3    H140182   1.645   5.266   8.583  1.1088  1.2877  0.8401
 5329TIP3    H240183   1.622   5.293   8.435  1.2882 -2.4810  0.0227
 5330TIP3   OH240184   4.363   4.584   6.931  0.2127  0.6884  0.1773
 5330TIP3    H140185   4.393   4.664   6.888  0.6049  0.4012 -0.0914
 5330TIP3    H240186   4.403   4.513   6.880  1.0470  0.3467  1.2672
 5331TIP3   OH240187   4.503   2.933   7.675  0.0029  0.5003  0.3084
 5331TIP3    H140188   4.563   2.941   7.749  0.2601  1.2936  0.0348
 5331TIP3    H240189   4.507   3.019   7.632 -1.5798  0.6822  0.4726
 5332TIP3   OH240190   5.005   7.109   8.858  0.1735 -0.4769 -1.3747
 5332TIP3    H140191   4.972   7.058   8.783  0.3631  1.2626 -2.7117
 5332TIP3    H240192   4.927   7.140   8.902  0.0440 -2.4199 -0.1337
 5333TIP3   OH240193   0.225   6.509   7.799 -0.1808 -0.1346  0.9602
 5333TIP3    H140194   0.258   6.535   7.713 -0.8240 -1.0400  0.4262
 5333TIP3    H240195   0.200   6.592   7.841 -0.3670  0.2715  0.0673
 5334TIP3   OH240196   4.977   0.600   6.758 -0.0446  0.0923  0.0445
 5334TIP3    H140197   5.005   0.624   6.847 -1.5430  0.8993  0.3124
 5334TIP3    H240198   5.053   0.621   6.703  1.4338 -1.6796  1.2673
 5335TIP3   OH240199   3.104   6.547   8.375 -0.3296  0.4361 -0.0562
 5335TIP3    H140200   3.131   6.496   8.452 -0.4155 -0.9801 -0.9138
 5335TIP3    H240201   3.010   6.562   8.388 -0.1150  1.2263  0.6586
 5336TIP3   OH240202   4.232   7.217   6.956  0.1539 -0.1131 -0.6355
 5336TIP3    H140203   4.222   7.310   6.937 -0.4758 -0.1005 -0.2618
 5336TIP3    H240204   4.143   7.185   6.972  0.4871 -0.4713  0.6503
 5337TIP3   OH240205   6.844   1.596   6.787 -0.4406  0.4387  0.3366
 5337TIP3    H140206   6.925   1.575   6.832 -1.1630 -0.6478  1.1785
 5337TIP3    H240207   6.780   1.610   6.857 -1.1502  0.5482 -0.3203
 5338TIP3   OH240208   0.732   4.137   9.330 -0.4377  0.2326  0.1186
 5338TIP3    H140209   0.741   4.223   9.288 -0.4257  0.4685  0.5950
 5338TIP3    H240210   0.800   4.083   9.289 -2.2479 -0.3953 -2.2510
 5339TIP3   OH240211   2.639   0.675   8.894  0.3060 -0.3952 -0.1909
 5339TIP3    H140212   2.656   0.652   8.803  0.9159  0.6754 -0.3686
 5339TIP3    H240213   2.663   0.768   8.900 -0.3547 -0.2772  0.8989
 5340TIP3   OH240214   7.575   0.448   8.859 -0.0443 -0.6789 -0.2230
 5340TIP3    H140215   7.669   0.464   8.856 -0.3094  1.3272  0.8391
 5340TIP3    H240216   7.559   0.389   8.784  1.9707 -0.7958 -0.6323
 5341TIP3   OH240217   5.393   1.880   9.141 -0.3538 -0.0062  0.4346
 5341TIP3    H140218   5.319   1.939   9.130 -0.1998 -0.0814 -1.2153
 5341TIP3    H240219   5.361   1.795   9.110  0.8723  0.3227 -1.9604
 5342TIP3   OH240220   6.738   0.557   8.954  0.3469 -0.0428 -0.2696
 5342TIP3    H140221   6.724   0.604   8.872  0.4150 -1.0410 -0.8755
 5342TIP3    H240222   6.654   0.513   8.971  0.2661  0.3318  0.3120
 5343TIP3   OH240223   4.445   0.836   9.290  0.1194  0.1135  0.0801
 5343TIP3    H140224   4.455   0.921   9.247 -0.9594 -0.4615 -1.4223
 5343TIP3    H240225   4.418   0.856   9.379  0.4268  1.3505 -0.0937
 5344TIP3   OH240226   6.559   4.458   7.060 -0.8406 -0.5268 -0.1321
 5344TIP3    H140227   6.587   4.497   6.977 -1.3741 -0.1691 -0.1492
 5344TIP3    H240228   6.524   4.531   7.110 -1.8179 -0.9715 -0.1496
 5345TIP3   OH240229   1.820   2.997   8.648  0.3695 -0.2214 -0.0670
 5345TIP3    H140230   1.890   2.950   8.693 -0.0054  0.4035  1.2221
 5345TIP3    H240231   1.826   2.969   8.557  3.3539  1.0498 -0.3634
 5346TIP3   OH240232   1.568   0.913   8.369 -0.1036 -0.5082  0.8019
 5346TIP3    H140233   1.505   0.985   8.362 -0.0827 -0.4935  0.7626
 5346TIP3    H240234   1.532   0.856   8.437 -0.8511 -1.1892 -0.1299
 5347TIP3   OH240235   3.046   6.364   9.086  0.2786  0.2563 -0.1220
 5347TIP3    H140236   3.086   6.328   9.007 -1.6568 -0.0523 -1.0316
 5347TIP3    H240237   3.106   6.342   9.156  1.3931 -0.6585 -1.3261
 5348TIP3   OH240238   3.923   4.480   8.529 -0.1055  0.6576 -0.1362
 5348TIP3    H140239   3.830   4.475   8.507 -0.0599  0.8220 -0.3789
 5348TIP3    H240240   3.937   4.410   8.592  0.3313 -1.7125 -2.6542
 5349TIP3   OH240241   3.301   0.575   7.785  0.2426  0.1611 -0.0950
 5349TIP3    H140242   3.370   0.642   7.780 -0.6753  1.7395  3.9874
 5349TIP3    H240243   3.298   0.552   7.878 -2.3653 -2.5033 -0.7113
 5350TIP3   OH240244   4.123   3.289   8.991  0.5108  0.7299  0.3248
 5350TIP3    H140245   4.151   3.366   8.941  0.3674  0.2976 -0.4326
 5350TIP3    H240246   4.177   3.291   9.070 -1.3508  3.1590  1.6872
 5351TIP3   OH240247   1.578   2.534   9.189  0.5984  0.1316  0.4879
 5351TIP3    H140248   1.537   2.458   9.229 -3.0660  1.8203  0.3801
 5351TIP3    H240249   1.588   2.510   9.097 -1.0109 -0.0998  0.3457
 5352TIP3   OH240250   7.677   7.373   8.230  0.7766 -0.0318  0.5982
 5352TIP3    H140251   7.635   7.353   8.146  0.6677 -0.0807  0.6651
 5352TIP3    H240252   7.631   7.318   8.294  1.6298 -0.8766  0.5093
 5353TIP3   OH240253   0.381   1.271   8.694  0.1470  0.3473  0.2725
 5353TIP3    H140254   0.341   1.279   8.607  1.6028 -0.7039 -0.5391
 5353TIP3    H240255   0.348   1.347   8.743 -1.1674  0.6338 -0.9925
 5354TIP3   OH240256   5.384   0.576   7.437 -0.2229  0.2495 -0.3022
 5354TIP3    H140257   5.310   0.525   7.404 -0.7812  1.8062 -1.5518
 5354TIP3    H240258   5.351   0.665   7.445  0.9341  0.5936  1.1635
 5355TIP3   OH240259   4.723   7.570   9.026 -0.2584  0.4604  0.0937
 5355TIP3    H140260   4.692   7.656   9.054  0.9845  1.4703 -1.4889
 5355TIP3    H240261   4.707   7.514   9.102  0.5920  2.4765  1.8849
 5356TIP3   OH240262   1.763   5.792   8.907 -0.3142 -0.2685  0.2797
 5356TIP3    H140263   1.690   5.800   8.845 -0.7840 -0.2524  0.8253
 5356TIP3    H240264   1.837   5.834   8.862 -0.1902 -1.7158 -0.9634
 5357TIP3   OH240265   7.165   1.357   8.517  0.1696 -0.2737 -0.3837
 5357TIP3    H140266   7.187   1.264   8.505  0.8909 -0.0813 -0.5745
 5357TIP3    H240267   7.083   1.355   8.568 -1.0208 -1.0419 -2.2128
 5358TIP3   OH240268   3.241   5.954   7.101  0.4871 -0.2245  0.2970
 5358TIP3    H140269   3.299   5.992   7.035 -1.4560 -1.2426 -2.1835
 5358TIP3    H240270   3.237   5.861   7.079 -2.5875 -0.0894 -0.2116
 5359TIP3   OH240271   0.670   4.547   9.502  0.7054  0.3831  0.2607
 5359TIP3    H140272   0.756   4.590   9.503  0.9536 -0.1128  1.2384
 5359TIP3    H240273   0.675   4.485   9.429  1.2490  0.2369  0.4147
 5360TIP3   OH240274   0.463   3.826   6.840 -0.1468 -0.5284  0.6742
 5360TIP3    H140275   0.536   3.794   6.892 -0.9475 -1.7311  1.0993
 5360TIP3    H240276   0.404   3.751   6.832 -1.5632  0.5257  0.7503
 5361TIP3   OH240277   6.502   0.446   9.048 -0.6481 -0.8188  0.0451
 5361TIP3    H140278   6.512   0.355   9.021 -0.5027 -0.5585 -0.8118
 5361TIP3    H240279   6.455   0.441   9.132  0.1285 -1.7124  0.4519
 5362TIP3   OH240280   1.858   1.291   8.353  0.5223 -0.5359  0.0587
 5362TIP3    H140281   1.893   1.302   8.441 -2.3748  1.1852  1.1551
 5362TIP3    H240282   1.879   1.372   8.308  1.1268 -1.0040 -0.5162
 5363TIP3   OH240283   2.189   6.550   9.594 -0.0252 -0.1039 -0.0992
 5363TIP3    H140284   2.220   6.638   9.575  1.2571 -0.7596 -1.2434
 5363TIP3    H240285   2.095   6.560   9.608 -0.4863  1.0745 -3.1748
 5364TIP3   OH240286   7.223   6.703   7.442  0.3831 -0.0725 -0.5126
 5364TIP3    H140287   7.196   6.726   7.353 -1.5268 -1.2232 -0.2715
 5364TIP3    H240288   7.317   6.722   7.444  0.3808  0.3796 -2.6359
 5365TIP3   OH240289   1.705   2.688   6.935 -0.3005  0.3566  0.1328
 5365TIP3    H140290   1.763   2.669   6.862  0.3800  1.4456  0.3517
 5365TIP3    H240291   1.760   2.678   7.013 -0.4288  1.2553  0.3558
 5366TIP3   OH240292   5.283   7.021   8.250 -0.4234 -0.5039 -0.2087
 5366TIP3    H140293   5.316   7.097   8.298 -0.0099 -0.3886 -0.6657
 5366TIP3    H240294   5.203   6.996   8.297 -0.6381  0.2923 -0.1269
 5367TIP3   OH240295   0.000   6.969   9.120 -0.2027  0.3022  0.2089
 5367TIP3    H140296   0.043   6.979   9.205  0.2154  2.1900 -0.1689
 5367TIP3    H240297   0.011   6.877   9.098  1.6256  0.2286  1.2015
 5368TIP3   OH240298   3.893   1.014   7.490 -0.2736  0.1177  0.9024
 5368TIP3    H140299   3.976   1.022   7.442 -0.5732 -0.9119  0.1854
 5368TIP3    H240300   3.909   0.944   7.554 -0.7378 -0.4250  0.4304
 5369TIP3   OH240301   3.236   1.627   7.603  0.0310 -0.1368 -0.2641
 5369TIP3    H140302   3.303   1.644   7.669 -0.4296 -0.3645  0.2764
 5369TIP3    H240303   3.239   1.704   7.546  1.3279 -0.5369 -0.7558
 5370TIP3   OH240304   2.258   7.132   6.998 -0.2321  0.0459  0.0075
 5370TIP3    H140305   2.328   7.193   7.018 -0.8113  0.6913  0.1129
 5370TIP3    H240306   2.235   7.151   6.907  0.2214 -0.6750 -0.2707
 5371TIP3   OH240307   1.349   3.654   9.113 -0.1324 -0.0127  0.0072
 5371TIP3    H140308   1.420   3.711   9.141 -0.0238 -0.2650  0.2494
 5371TIP3    H240309   1.393   3.579   9.073 -0.2866  0.7991 -1.7873
 5372TIP3   OH240310   1.387   1.561   7.396 -0.2627 -0.4129 -0.2519
 5372TIP3    H140311   1.388   1.478   7.443 -1.3428  0.0438  0.6264
 5372TIP3    H240312   1.347   1.541   7.311 -0.8259 -0.7298  0.0858
 5373TIP3   OH240313   2.831   7.307   9.741  0.1524  0.4194  0.6306
 5373TIP3    H140314   2.862   7.346   9.822  1.1118 -0.3687  0.6517
 5373TIP3    H240315   2.780   7.231   9.768 -0.0929  0.5377  0.5118
 5374TIP3   OH240316   5.629   6.498   8.617  0.0649 -0.0874  0.5347
 5374TIP3    H140317   5.717   6.495   8.653 -0.0397 -0.1118  0.7869
 5374TIP3    H240318   5.635   6.448   8.535  0.4742  0.6035  0.1367
 5375TIP3   OH240319   0.376   5.906   8.901  1.2058 -0.2315 -0.2775
 5375TIP3    H140320   0.402   5.971   8.966  1.6092 -1.3491  0.7214
 5375TIP3    H240321   0.321   5.954   8.840  0.0131  0.6989  1.4177
 5376TIP3   OH240322   5.294   1.033   8.057 -0.2698  0.4221 -0.2275
 5376TIP3    H140323   5.308   1.056   7.965 -1.4007  0.3773 -0.4250
 5376TIP3    H240324   5.379   1.000   8.086 -0.7291 -3.1384 -2.3065
 5377TIP3   OH240325   3.492   6.246   7.700  0.1301  0.2655 -0.3342
 5377TIP3    H140326   3.571   6.208   7.662 -0.4146 -0.4634 -0.7719
 5377TIP3    H240327   3.428   6.244   7.629 -1.0961 -1.6625  0.7282
 5378TIP3   OH240328   3.622   2.407   7.010  0.0926  0.3290  0.0325
 5378TIP3    H140329   3.562   2.378   7.078 -0.6821 -1.5293 -1.3632
 5378TIP3    H240330   3.697   2.347   7.016  0.9339  1.3905  0.4862
 5379TIP3   OH240331   3.447   4.360   8.303 -0.0110  0.1383 -0.3160
 5379TIP3    H140332   3.421   4.291   8.243 -0.7974  0.4554 -0.3526
 5379TIP3    H240333   3.370   4.416   8.310 -0.1400 -0.2016  1.4198
 5380TIP3   OH240334   1.026   3.493   7.275 -0.0181 -0.5162  0.1845
 5380TIP3    H140335   1.089   3.494   7.203 -1.4357 -1.1177 -1.1205
 5380TIP3    H240336   1.021   3.584   7.305 -1.2049  0.2328 -2.1265
 5381TIP3   OH240337   2.297   0.164   8.817 -0.2829 -0.2414 -0.0967
 5381TIP3    H140338   2.328   0.146   8.728 -2.4646  0.4615 -1.0438
 5381TIP3    H240339   2.234   0.235   8.807  0.9576  1.3482  2.3120
 5382TIP3   OH240340   6.330   4.878   9.124 -0.0176  0.4578  0.0057
 5382TIP3    H140341   6.260   4.859   9.186  0.5580  0.0868  0.5619
 5382TIP3    H240342   6.329   4.974   9.116  1.1917  0.7255  2.2009
 5383TIP3   OH240343   5.054   4.423   8.842 -0.0887 -0.2903  0.2030
 5383TIP3    H140344   5.132   4.369   8.828 -0.1749 -0.3858  0.0897
 5383TIP3    H240345   5.085   4.496   8.896 -0.4813 -1.7380  2.5246
 5384TIP3   OH240346   1.230   0.895   7.838 -0.1457 -0.5227  0.0823
 5384TIP3    H140347   1.241   0.841   7.916 -0.9980  0.4549  0.9083
 5384TIP3    H240348   1.228   0.832   7.766  0.1432 -1.4902  0.8936
 5385TIP3   OH240349   4.237   1.216   8.122 -0.2671  0.1030  0.1288
 5385TIP3    H140350   4.305   1.157   8.156 -0.3225 -1.4016 -2.1673
 5385TIP3    H240351   4.280   1.266   8.053 -0.9273  0.8399  0.2391
 5386TIP3   OH240352   3.115   2.622   8.649  0.0472  0.0167  0.4082
 5386TIP3    H140353   3.195   2.570   8.656 -0.9765 -1.5290  1.3339
 5386TIP3    H240354   3.087   2.635   8.740 -0.9336  0.2229  0.0959
 5387TIP3   OH240355   5.094   7.625   8.644  0.1903  0.3442  0.0478
 5387TIP3    H140356   5.042   7.646   8.722  1.7879  0.3520  1.1642
 5387TIP3    H240357   5.059   7.542   8.613 -1.0939  0.8064  0.1951
 5388TIP3   OH240358   0.458   4.105   7.109  0.0915  0.1042  0.8126
 5388TIP3    H140359   0.444   4.189   7.152  2.4276  1.4104 -0.7368
 5388TIP3    H240360   0.383   4.095   7.051 -0.7390  0.5646  1.7676
 5389TIP3   OH240361   6.242   2.449   7.943  1.1250  0.2504 -0.2532
 5389TIP3    H140362   6.169   2.414   7.893  1.1229 -2.2052  1.2734
 5389TIP3    H240363   6.315   2.451   7.882  0.5993 -0.5899 -0.9281
 5390TIP3   OH240364   3.558   5.455   8.688 -0.0200  0.3785  0.6568
 5390TIP3    H140365   3.523   5.376   8.646  0.7545 -0.0830  0.8392
 5390TIP3    H240366   3.631   5.422   8.742 -2.0716  0.6448  3.8846
 5391TIP3   OH240367   5.929   6.148   1.289 -0.0764 -0.1167 -0.2279
 5391TIP3    H140368   6.002   6.205   1.263 -1.0537  0.8712 -0.8682
 5391TIP3    H240369   5.948   6.127   1.380  1.2608 -0.2704 -0.5200
 5392TIP3   OH240370   6.039   4.185   1.307  0.3723 -0.4448  0.7289
 5392TIP3    H140371   6.038   4.170   1.213 -1.4116  2.9479  0.0209
 5392TIP3    H240372   6.128   4.162   1.335  0.4106 -3.3168 -1.3357
 5393TIP3   OH240373   1.804   7.255   2.319 -0.0078  0.1497 -0.2198
 5393TIP3    H140374   1.748   7.178   2.310 -1.6700  1.4167 -1.1769
 5393TIP3    H240375   1.781   7.291   2.405 -0.6371  0.6618 -0.6063
 5394TIP3   OH240376   7.169   7.587   1.148 -0.0175  0.4747  0.5970
 5394TIP3    H140377   7.245   7.532   1.165  0.2030  0.6673  0.2504
 5394TIP3    H240378   7.130   7.550   1.068  1.0758  1.8018 -0.5975
 5395TIP3   OH240379   6.017   7.116   0.765 -0.1907  0.2487 -0.0177
 5395TIP3    H140380   5.996   7.208   0.746 -0.6099  0.3723  0.9818
 5395TIP3    H240381   5.942   7.084   0.814  0.6168 -0.1734  0.9860
 5396TIP3   OH240382   0.152   7.338   1.463 -0.1149  0.2933  0.5588
 5396TIP3    H140383   0.163   7.325   1.368 -3.1647 -2.7328  0.4202
 5396TIP3    H240384   0.103   7.420   1.470 -1.4463 -0.3393 -0.7098
 5397TIP3   OH240385   0.044   0.475   0.883  0.4922  0.1291  0.5123
 5397TIP3    H140386   0.109   0.406   0.900  0.9967  1.0533  2.6933
 5397TIP3    H240387  -0.018   0.467   0.955 -0.3130  0.9831 -0.0764
 5398TIP3   OH240388   4.024   5.328   2.297 -0.2196  0.2868 -0.1753
 5398TIP3    H140389   3.957   5.317   2.364  1.0532  0.7177  1.2317
 5398TIP3    H240390   4.063   5.413   2.316  0.2436  0.3771 -1.4260
 5399TIP3   OH240391   5.634   4.816   2.926 -0.3323  0.3918 -0.4290
 5399TIP3    H140392   5.682   4.741   2.963 -2.4852 -0.9302 -0.1394
 5399TIP3    H240393   5.620   4.874   3.001  1.5491  1.2685 -0.6985
 5400TIP3   OH240394   3.050   3.987   2.215 -0.0631  0.4536 -0.1066
 5400TIP3    H140395   2.969   3.996   2.164 -0.4804  2.6384  0.8013
 5400TIP3    H240396   3.026   4.019   2.302  1.0862 -1.5319  1.0061
 5401TIP3   OH240397   1.549   3.641   2.130 -0.3839 -0.2024 -0.1113
 5401TIP3    H140398   1.624   3.665   2.185 -0.9739  0.1623  0.5547
 5401TIP3    H240399   1.576   3.664   2.042 -0.0485  0.7803  0.2338
 5402TIP3   OH240400   3.161   2.477   0.567  0.5307 -0.7774  0.0181
 5402TIP3    H140401   3.232   2.414   0.580  0.9036 -0.1030  1.4522
 5402TIP3    H240402   3.178   2.546   0.631 -0.2997  0.4073 -0.9900
 5403TIP3   OH240403   2.394   2.432   1.961  0.3419 -0.1089 -0.2971
 5403TIP3    H140404   2.333   2.431   1.887  0.4316 -0.2227 -0.3698
 5403TIP3    H240405   2.345   2.474   2.032  0.6198  0.9790 -0.7354
 5404TIP3   OH240406   0.079   2.107   1.466  0.1177  0.7062 -0.5501
 5404TIP3    H140407   0.035   2.097   1.551  2.2598 -2.3188  0.4002
 5404TIP3    H240408   0.016   2.072   1.403  0.0513 -1.1436  0.4458
 5405TIP3   OH240409   3.132   6.862   2.450  0.1557  0.0757 -0.0730
 5405TIP3    H140410   3.082   6.876   2.531  1.7423  1.5165  0.7166
 5405TIP3    H240411   3.067   6.834   2.386 -1.2033 -0.7707  1.5995
 5406TIP3   OH240412   3.108   5.390   2.289 -0.6375  0.1551  0.1162
 5406TIP3    H140413   3.167   5.343   2.348 -0.3768 -0.3745 -0.5529
 5406TIP3    H240414   3.053   5.443   2.347  0.4317  0.5979  0.7579
 5407TIP3   OH240415   3.714   1.428   1.667  0.0591 -0.1980 -0.0763
 5407TIP3    H140416   3.673   1.504   1.707  0.8656 -0.2789  0.9482
 5407TIP3    H240417   3.678   1.424   1.578 -1.3711  0.2983  0.4697
 5408TIP3   OH240418   1.270   1.986   1.955 -0.2617  0.2107 -0.4102
 5408TIP3    H140419   1.288   1.893   1.950  2.5524  0.6707 -0.4838
 5408TIP3    H240420   1.348   2.028   1.918 -1.8307  2.5925 -1.3000
 5409TIP3   OH240421   1.360   5.462   0.365  0.2359  0.7709  0.0328
 5409TIP3    H140422   1.297   5.426   0.428 -0.3540 -1.0218 -1.4841
 5409TIP3    H240423   1.319   5.543   0.333 -0.5149  0.5084  0.3094
 5410TIP3   OH240424   6.970   1.419   2.732 -0.0979  0.3685  0.6397
 5410TIP3    H140425   6.940   1.334   2.764  1.2518 -0.3805  0.0182
 5410TIP3    H240426   6.994   1.403   2.641  1.2353  1.1327  0.8341
 5411TIP3   OH240427   3.032   3.691   1.636 -0.4736 -0.1551  1.0133
 5411TIP3    H140428   2.978   3.726   1.706 -1.1259 -0.0585  0.4715
 5411TIP3    H240429   2.988   3.610   1.609 -0.6988  0.2346  0.1622
 5412TIP3   OH240430   2.865   0.619   1.850  0.0005 -0.1835  0.0598
 5412TIP3    H140431   2.844   0.707   1.879  0.6588 -0.0171  0.0305
 5412TIP3    H240432   2.815   0.562   1.909 -2.0023  0.2184 -1.1342
 5413TIP3   OH240433   6.075   4.109   0.765 -0.3013 -0.9085 -0.0298
 5413TIP3    H140434   6.056   4.186   0.711 -0.5468  0.2086  1.5728
 5413TIP3    H240435   6.053   4.035   0.710 -0.7205  0.1877 -1.3941
 5414TIP3   OH240436   6.060   2.220   1.045 -0.2175 -0.2582  0.3203
 5414TIP3    H140437   6.061   2.292   0.982 -0.0417 -0.0469  0.5625
 5414TIP3    H240438   6.097   2.257   1.125  1.3683 -1.0481 -0.0213
 5415TIP3   OH240439   7.112   0.841   0.632  0.0011  0.0329  0.0318
 5415TIP3    H140440   7.083   0.930   0.615 -0.6169  0.6864  3.7236
 5415TIP3    H240441   7.032   0.794   0.657  0.9213 -0.1280  3.0032
 5416TIP3   OH240442   4.880   7.461   1.979 -1.1883 -0.7122 -0.4109
 5416TIP3    H140443   4.823   7.430   1.908 -1.6238  0.0788 -0.4106
 5416TIP3    H240444   4.935   7.385   1.999 -0.1987 -0.6042 -2.4340
 5417TIP3   OH240445   4.895   5.135   3.223 -0.1235  0.0910  0.4684
 5417TIP3    H140446   4.860   5.046   3.231  0.4213 -0.1890 -0.2336
 5417TIP3    H240447   4.982   5.130   3.263  0.9426 -0.3310 -1.7429
 5418TIP3   OH240448   3.685   1.377   0.413 -0.5429  0.2202  0.2316
 5418TIP3    H140449   3.745   1.445   0.383 -0.1928 -0.3560 -0.4169
 5418TIP3    H240450   3.598   1.415   0.404 -0.3244  0.7785  0.4167
 5419TIP3   OH240451   1.494   4.303   2.990  0.3933  0.3247  0.4533
 5419TIP3    H140452   1.414   4.330   3.036  0.6235 -1.5650  2.0655
 5419TIP3    H240453   1.564   4.320   3.052  0.9880 -0.1411 -0.0805
 5420TIP3   OH240454   4.717   5.347   1.269  0.2532 -0.2661  0.2226
 5420TIP3    H140455   4.706   5.426   1.321  1.2655 -0.8009  1.2869
 5420TIP3    H240456   4.738   5.379   1.181 -1.2817  0.6401  0.1572
 5421TIP3   OH240457   1.643   0.704   2.823 -0.0417 -0.0266 -0.0794
 5421TIP3    H140458   1.696   0.735   2.896 -1.4538  0.0174  0.9697
 5421TIP3    H240459   1.552   0.723   2.849 -0.6915 -1.5481 -1.1012
 5422TIP3   OH240460   6.391   1.585   0.617 -0.0487  0.0399 -0.0262
 5422TIP3    H140461   6.478   1.619   0.638 -0.8870  2.3006  0.0462
 5422TIP3    H240462   6.372   1.522   0.686  1.6848 -0.8326 -0.2974
 5423TIP3   OH240463   4.970   3.579   1.277 -0.4182  0.3033  0.0085
 5423TIP3    H140464   4.974   3.553   1.185  1.8376  1.0002 -0.1548
 5423TIP3    H240465   4.983   3.674   1.275  3.1989 -0.0189  1.1312
 5424TIP3   OH240466   3.716   6.623   1.159 -0.6999 -0.2969 -0.6651
 5424TIP3    H140467   3.665   6.595   1.235  0.8097  2.2253  1.4422
 5424TIP3    H240468   3.798   6.574   1.165 -1.5877 -2.1651 -2.3905
 5425TIP3   OH240469   3.141   2.713   1.963  0.3437 -0.3017  0.3882
 5425TIP3    H140470   3.205   2.729   2.032  0.1649 -1.0168  0.7284
 5425TIP3    H240471   3.186   2.739   1.882 -0.3162  2.9102  0.9539
 5426TIP3   OH240472   1.672   6.400   2.564  0.1432 -0.4069  0.1032
 5426TIP3    H140473   1.627   6.375   2.645 -1.0891  0.6022 -0.2302
 5426TIP3    H240474   1.742   6.335   2.553 -1.7643 -2.5715  0.1763
 5427TIP3   OH240475   4.391   0.002   1.253 -0.2292 -0.1145 -0.0767
 5427TIP3    H140476   4.413   0.091   1.282 -0.0934 -0.2469  0.2374
 5427TIP3    H240477   4.313   0.013   1.199 -2.6059 -0.1929  3.0381
 5428TIP3   OH240478   2.263   6.159   1.213  0.0183  0.1645  0.0022
 5428TIP3    H140479   2.272   6.067   1.238  0.9217  0.2693  0.1020
 5428TIP3    H240480   2.215   6.157   1.130  1.0184 -0.4796 -0.5879
 5429TIP3   OH240481   7.197   3.151   3.030 -0.2581 -0.1071 -0.1892
 5429TIP3    H140482   7.214   3.195   3.113  1.7145 -0.8242 -0.1546
 5429TIP3    H240483   7.109   3.114   3.040 -0.8295  1.4454  0.8143
 5430TIP3   OH240484   5.002   0.555   2.684  0.6085  0.6415 -0.2479
 5430TIP3    H140485   4.932   0.506   2.641  0.9046 -0.0694  0.0627
 5430TIP3    H240486   4.980   0.552   2.777  0.4447  1.4090 -0.2549
 5431TIP3   OH240487   2.904   3.952   1.648  0.2589 -0.5259 -0.2688
 5431TIP3    H140488   2.818   3.915   1.628 -0.6802  1.6448 -0.5437
 5431TIP3    H240489   2.895   3.989   1.736 -0.3886  2.9696 -1.6376
 5432TIP3   OH240490   3.532   1.254   1.842 -0.1664  0.7399  0.0769
 5432TIP3    H140491   3.584   1.239   1.921 -0.9095  1.2693  0.6863
 5432TIP3    H240492   3.586   1.312   1.788  0.9677 -0.7768 -0.4696
 5433TIP3   OH240493   6.427   7.318   2.246 -0.1844 -0.4251 -0.5423
 5433TIP3    H140494   6.463   7.406   2.261 -0.3424 -0.6071  1.0035
 5433TIP3    H240495   6.338   7.335   2.216 -1.2301 -0.0213  2.4782
 5434TIP3   OH240496   7.025   0.472   2.803 -0.1140  0.4639  0.3867
 5434TIP3    H140497   7.084   0.543   2.828  0.4394  0.3837 -0.6187
 5434TIP3    H240498   6.958   0.472   2.870 -0.0907  1.9060  0.4499
 5435TIP3   OH240499   2.817   0.868   3.004 -0.5213 -0.2922  0.1405
 5435TIP3    H140500   2.904   0.856   2.965 -0.2664 -0.8692  0.8679
 5435TIP3    H240501   2.827   0.945   3.060 -0.3953 -0.5292  0.4469
 5436TIP3   OH240502   4.901   1.104   0.740  0.0431 -0.0390  0.4568
 5436TIP3    H140503   4.939   1.173   0.685  0.6764 -0.0955  0.8147
 5436TIP3    H240504   4.828   1.147   0.784 -2.7653 -0.8330 -2.9874
 5437TIP3   OH240505   7.499   0.781   3.560  0.0261 -0.1031  0.0498
 5437TIP3    H140506   7.527   0.841   3.630  2.1099 -0.9055 -0.0090
 5437TIP3    H240507   7.445   0.716   3.603  0.2350  0.1381  0.6839
 5438TIP3   OH240508   0.230   4.453   0.604 -0.2314 -0.1766  0.1695
 5438TIP3    H140509   0.256   4.362   0.593  0.9589  0.0719  0.7968
 5438TIP3    H240510   0.135   4.450   0.609 -0.1737 -1.4762  0.9575
 5439TIP3   OH240511   1.769   4.340   2.625  0.6459 -0.2902 -0.6543
 5439TIP3    H140512   1.823   4.271   2.586  0.1961 -0.1480 -1.5441
 5439TIP3    H240513   1.832   4.406   2.653  1.2214 -1.6530  1.5352
 5440TIP3   OH240514   6.593   2.471   1.517  0.0826 -0.0303  0.1784
 5440TIP3    H140515   6.620   2.440   1.431  1.1531  0.6722  0.2507
 5440TIP3    H240516   6.544   2.398   1.555  0.2172 -0.6010 -0.7392
 5441TIP3   OH240517   0.795   4.906   0.937 -0.0540  0.0740  0.5039
 5441TIP3    H140518   0.804   4.811   0.936  1.9970  0.2200 -0.3950
 5441TIP3    H240519   0.761   4.926   1.024 -0.1224 -1.4588  0.8533
 5442TIP3   OH240520   5.797   4.501   1.232 -1.3005 -0.1717 -0.8549
 5442TIP3    H140521   5.711   4.519   1.270 -0.4072  1.9491  0.3335
 5442TIP3    H240522   5.844   4.455   1.302  0.3905  3.8509  1.0026
 5443TIP3   OH240523   4.795   1.964   0.859 -0.4573  0.7269  0.7505
 5443TIP3    H140524   4.741   1.898   0.903  0.5768  0.1926  1.2504
 5443TIP3    H240525   4.877   1.965   0.908  0.8036  0.0263 -1.2030
 5444TIP3   OH240526   1.848   5.374   0.964 -0.4353  0.5739  0.3793
 5444TIP3    H140527   1.830   5.427   0.887 -2.5117 -0.9670 -0.2968
 5444TIP3    H240528   1.938   5.343   0.952 -0.6588  0.5074 -1.3300
 5445TIP3   OH240529   4.980   0.299   3.363  0.3089  0.3074  0.4325
 5445TIP3    H140530   5.052   0.248   3.324 -1.0186 -0.7384 -0.7433
 5445TIP3    H240531   4.994   0.388   3.329  0.8692  0.0552 -0.0270
 5446TIP3   OH240532   6.886   2.298   0.753  0.4866  0.3414 -0.4127
 5446TIP3    H140533   6.821   2.244   0.797 -0.1973  2.3088  1.1173
 5446TIP3    H240534   6.883   2.382   0.799  1.3248  1.7959 -2.8303
 5447TIP3   OH240535   7.482   2.212   3.511  0.4119 -0.5498  0.5976
 5447TIP3    H140536   7.477   2.124   3.547 -1.5097 -0.1406  1.4834
 5447TIP3    H240537   7.391   2.237   3.497  0.9300  1.1914  0.0883
 5448TIP3   OH240538   6.795   0.163   2.492 -0.4175 -0.1297 -0.0200
 5448TIP3    H140539   6.856   0.236   2.497 -0.6040  0.7479 -5.1143
 5448TIP3    H240540   6.712   0.198   2.524 -0.7216  2.4331 -3.1381
 5449TIP3   OH240541   2.334   6.361   0.857  0.4387 -0.2196  0.0359
 5449TIP3    H140542   2.244   6.388   0.878  0.5400 -0.2546  0.5119
 5449TIP3    H240543   2.385   6.384   0.934  0.4063 -2.4671  0.7966
 5450TIP3   OH240544   1.576   0.538   3.091 -0.2799 -0.0262 -0.3143
 5450TIP3    H140545   1.672   0.535   3.091 -0.2441 -1.9929  2.0900
 5450TIP3    H240546   1.551   0.507   3.004  1.2278  0.6692 -1.0389
 5451TIP3   OH240547   3.501   5.007   1.003 -0.0390 -0.1499  0.1412
 5451TIP3    H140548   3.434   5.045   0.945 -0.6220 -1.3282  0.0134
 5451TIP3    H240549   3.453   4.985   1.083  0.4837  0.2162  0.5630
 5452TIP3   OH240550   0.687   6.990   1.534  0.3049  0.5464 -0.2142
 5452TIP3    H140551   0.680   6.974   1.628  4.5709  1.6079  0.4990
 5452TIP3    H240552   0.620   7.055   1.515  0.7087  1.9007  2.5805
 5453TIP3   OH240553   3.758   1.835   0.916 -0.7305 -0.1284 -0.2491
 5453TIP3    H140554   3.685   1.896   0.908 -0.1771  0.5783 -0.0351
 5453TIP3    H240555   3.818   1.858   0.846 -0.5530 -0.4842 -0.2204
 5454TIP3   OH240556   5.869   0.882   0.816 -0.1929  0.1777  0.2393
 5454TIP3    H140557   5.816   0.891   0.737 -0.7641  0.0462  0.6014
 5454TIP3    H240558   5.869   0.788   0.834  0.8251  0.0850 -0.1999
 5455TIP3   OH240559   3.874   1.746   2.080 -0.2203  0.2865 -0.4516
 5455TIP3    H140560   3.837   1.824   2.123 -0.2324  0.5133 -0.8639
 5455TIP3    H240561   3.921   1.700   2.149 -1.5540 -0.1827  0.1758
 5456TIP3   OH240562   3.762   4.280   2.591 -0.3284 -0.5085  0.6748
 5456TIP3    H140563   3.771   4.252   2.683 -0.3092 -1.8796  0.2780
 5456TIP3    H240564   3.675   4.248   2.565  0.2306 -1.4019 -0.1822
 5457TIP3   OH240565   0.765   0.697   1.782 -0.9387  0.1285  0.2495
 5457TIP3    H140566   0.824   0.659   1.847 -0.9891  1.8816  1.3884
 5457TIP3    H240567   0.820   0.714   1.706 -1.1146 -3.0444 -0.7377
 5458TIP3   OH240568   5.331   1.959   1.892  0.0564  0.0352  0.4144
 5458TIP3    H140569   5.342   1.955   1.987  2.4665  1.0122  0.2404
 5458TIP3    H240570   5.390   1.892   1.858 -0.5552 -0.0929 -0.4293
 5459TIP3   OH240571   5.163   6.440   1.865  0.6292  0.6647 -0.5382
 5459TIP3    H140572   5.227   6.373   1.892 -1.1224  0.1424  2.8763
 5459TIP3    H240573   5.211   6.523   1.872  1.0875  0.2807  1.8446
 5460TIP3   OH240574   6.286   4.348   0.686 -0.4419  0.2087  0.3109
 5460TIP3    H140575   6.280   4.318   0.777  2.9622  2.0804  1.3209
 5460TIP3    H240576   6.376   4.380   0.677 -1.2440  1.9764 -3.1535
 5461TIP3   OH240577   5.622   5.587   1.883 -0.2878 -0.3740  0.0460
 5461TIP3    H140578   5.641   5.497   1.858  0.7032 -0.2797  0.4206
 5461TIP3    H240579   5.657   5.595   1.971  3.3971  1.4841 -1.3662
 5462TIP3   OH240580   0.885   7.406   1.544 -0.8040 -0.0827  0.0147
 5462TIP3    H140581   0.818   7.338   1.556  0.5954 -1.3414  1.0070
 5462TIP3    H240582   0.898   7.442   1.632  0.6129 -0.6595  0.0678
 5463TIP3   OH240583   4.385   7.310   2.607  0.2511  0.1420 -0.6414
 5463TIP3    H140584   4.444   7.235   2.599 -1.9310 -1.4723 -4.1275
 5463TIP3    H240585   4.413   7.370   2.537 -1.5274 -0.2320 -1.7322
 5464TIP3   OH240586   7.636   0.264   0.659  0.1674 -0.0251  0.6805
 5464TIP3    H140587   7.679   0.294   0.579 -0.9320  0.5176  0.2791
 5464TIP3    H240588   7.673   0.319   0.728  0.8127 -0.2188  0.5018
 5465TIP3   OH240589   3.845   1.586   1.858 -0.2037  0.3797  0.1849
 5465TIP3    H140590   3.842   1.632   1.942 -1.6668 -0.3817  0.5944
 5465TIP3    H240591   3.781   1.632   1.803  0.7942  0.9161 -0.5468
 5466TIP3   OH240592   7.447   1.348   1.482  0.0712 -0.1671  0.5945
 5466TIP3    H140593   7.421   1.401   1.407  1.4339  0.8147  0.7841
 5466TIP3    H240594   7.425   1.401   1.558  0.3580 -0.3750  0.8269
 5467TIP3   OH240595   5.107   4.994   2.134  0.2105  0.5519 -0.1064
 5467TIP3    H140596   5.183   4.940   2.157 -0.1308  0.5927  1.1551
 5467TIP3    H240597   5.127   5.081   2.170 -0.8201  0.3323  1.0601
 5468TIP3   OH240598   2.098   4.920   2.326 -0.4568 -0.3512 -0.1754
 5468TIP3    H140599   2.167   4.962   2.274 -0.6276  0.4575  0.2341
 5468TIP3    H240600   2.030   4.898   2.262 -0.2494 -0.2418 -0.4339
 5469TIP3   OH240601   3.757   2.298   2.870 -0.0422  0.2977 -0.1820
 5469TIP3    H140602   3.672   2.273   2.907  0.1658  1.2381  1.0396
 5469TIP3    H240603   3.735   2.359   2.799 -0.4192 -0.3648 -0.6376
 5470TIP3   OH240604   7.199   6.760   2.527 -0.2514  0.6127 -0.0620
 5470TIP3    H140605   7.278   6.803   2.492  0.9191 -1.3989 -0.0231
 5470TIP3    H240606   7.203   6.671   2.494 -2.3623  0.3467  0.2658
 5471TIP3   OH240607   7.130   2.514   0.671  0.0237 -0.2641  0.3830
 5471TIP3    H140608   7.118   2.558   0.755 -1.9633 -1.1665  0.6474
 5471TIP3    H240609   7.189   2.441   0.690 -1.5883 -1.3626  1.3970
 5472TIP3   OH240610   3.487   1.327   0.813 -0.1613 -0.0006  0.7179
 5472TIP3    H140611   3.576   1.307   0.787 -0.7467 -1.9250  0.0129
 5472TIP3    H240612   3.496   1.385   0.889  1.6913 -1.2850  1.5400
 5473TIP3   OH240613   1.855   5.119   1.183  0.3790 -0.4113 -0.7930
 5473TIP3    H140614   1.942   5.089   1.157  0.1115  0.0567 -2.2849
 5473TIP3    H240615   1.797   5.090   1.113 -0.8900 -1.7158  0.7068
 5474TIP3   OH240616   4.479   4.301   1.014  0.2005  0.4527  0.1946
 5474TIP3    H140617   4.564   4.257   1.019 -0.4379 -0.7867  0.5093
 5474TIP3    H240618   4.425   4.241   0.962 -1.0624  0.2148  1.6987
 5475TIP3   OH240619   4.555   1.743   2.398  0.4700 -0.2746  0.0195
 5475TIP3    H140620   4.532   1.720   2.488 -1.7084 -0.6871 -0.6007
 5475TIP3    H240621   4.617   1.675   2.371  0.7532 -0.4328  1.0318
 5476TIP3   OH240622   4.563   7.041   1.563 -0.4601  0.4821  0.9281
 5476TIP3    H140623   4.609   6.991   1.630  0.7710 -0.5515 -0.6127
 5476TIP3    H240624   4.495   6.981   1.530  1.1944 -0.4169 -1.1134
 5477TIP3   OH240625   0.260   0.919   1.671 -0.1472 -0.0671 -0.4504
 5477TIP3    H140626   0.313   0.842   1.695  0.2277  0.6038  0.9702
 5477TIP3    H240627   0.234   0.957   1.755  1.2397  2.4247 -1.0442
 5478TIP3   OH240628   3.592   0.271   2.142 -0.1475  0.3509 -0.1544
 5478TIP3    H140629   3.668   0.308   2.187 -1.5715  1.2893  1.6068
 5478TIP3    H240630   3.629   0.212   2.077  2.0669 -0.6440  1.8671
 5479TIP3   OH240631   3.452   1.818   1.811 -0.0048  0.2405 -0.3829
 5479TIP3    H140632   3.494   1.800   1.895 -0.9077 -0.2346 -0.0200
 5479TIP3    H240633   3.385   1.882   1.831 -0.2231  0.1275 -0.7415
 5480TIP3   OH240634   5.393   6.494   2.812  0.1098  0.0486 -0.8455
 5480TIP3    H140635   5.312   6.535   2.781 -0.6976 -0.4178  0.5924
 5480TIP3    H240636   5.461   6.560   2.796 -0.7172  0.8594 -1.0865
 5481TIP3   OH240637   0.697   0.268   2.840 -0.3316 -0.2205  0.0792
 5481TIP3    H140638   0.752   0.216   2.899  0.5860 -0.5812 -1.0532
 5481TIP3    H240639   0.629   0.304   2.897  0.3225 -0.8188  1.2956
 5482TIP3   OH240640   4.356   4.966   2.885  0.3513 -0.2528 -0.3697
 5482TIP3    H140641   4.423   5.028   2.913  1.2967 -1.2935 -0.2665
 5482TIP3    H240642   4.355   4.899   2.954 -0.6759 -0.3493 -0.4609
 5483TIP3   OH240643   0.607   1.553   0.384 -0.2243  0.2926 -0.2659
 5483TIP3    H140644   0.672   1.535   0.315 -0.5947  1.6004 -0.9912
 5483TIP3    H240645   0.658   1.592   0.455  0.1117 -0.7569  0.0787
 5484TIP3   OH240646   6.029   6.278   2.423  0.0043  0.0697 -0.4092
 5484TIP3    H140647   6.018   6.183   2.417  1.2048 -0.0395 -1.1392
 5484TIP3    H240648   5.990   6.311   2.342  0.7276  0.0731 -0.7679
 5485TIP3   OH240649   5.687   3.798   3.064 -0.1956 -0.0341  0.0217
 5485TIP3    H140650   5.717   3.757   2.983 -0.4641 -0.4489  0.1305
 5485TIP3    H240651   5.700   3.731   3.131 -0.6427  0.0559  0.2007
 5486TIP3   OH240652   7.585   2.553   0.382  0.1878  0.1315 -0.4607
 5486TIP3    H140653   7.673   2.586   0.364 -0.0789  0.5841 -0.9571
 5486TIP3    H240654   7.528   2.629   0.372 -0.3924 -0.3873 -1.2271
 5487TIP3   OH240655   5.021   4.224   1.174 -0.0498  0.6148  0.0655
 5487TIP3    H140656   4.988   4.194   1.090  1.2900 -0.2831 -0.1694
 5487TIP3    H240657   5.047   4.315   1.159  2.2652 -0.1621 -1.1837
 5488TIP3   OH240658   4.495   2.577   1.730  0.0884  0.2585  0.1378
 5488TIP3    H140659   4.590   2.584   1.722  0.0976 -0.3272 -0.3380
 5488TIP3    H240660   4.481   2.486   1.758 -0.4438 -0.3678 -2.0215
 5489TIP3   OH240661   2.115   2.883   1.318 -0.0443 -0.3224 -0.4586
 5489TIP3    H140662   2.124   2.855   1.227 -0.5710  0.6407 -0.8198
 5489TIP3    H240663   2.124   2.978   1.315 -1.0161 -0.1876  0.3550
 5490TIP3   OH240664   4.358   6.906   1.773  0.0409  1.0584  0.1401
 5490TIP3    H140665   4.310   6.968   1.719  1.0211  0.0922 -1.9248
 5490TIP3    H240666   4.369   6.828   1.718  2.4064  0.5801  1.1583
 5491TIP3   OH240667   7.115   7.195   1.183 -0.4494  0.1180  0.0809
 5491TIP3    H140668   7.167   7.119   1.210  0.7092  1.3714  1.5049
 5491TIP3    H240669   7.138   7.264   1.245 -1.5081  1.6433 -1.1380
 5492TIP3   OH240670   0.977   5.259   2.964 -0.5805  0.0176  0.0431
 5492TIP3    H140671   0.992   5.167   2.988 -1.0058 -0.0862 -0.0851
 5492TIP3    H240672   0.884   5.274   2.982 -0.1657  0.8914  1.6108
 5493TIP3   OH240673   6.820   6.775   0.864 -0.2435  0.1380 -0.2342
 5493TIP3    H140674   6.769   6.761   0.943 -0.2541 -1.2324 -0.4568
 5493TIP3    H240675   6.900   6.819   0.894  0.3009 -1.4189  0.7506
 5494TIP3   OH240676   1.337   6.461   1.503  0.1445 -0.2578  0.3649
 5494TIP3    H140677   1.386   6.543   1.501  0.1757 -0.2854 -0.2088
 5494TIP3    H240678   1.316   6.443   1.411 -0.8854 -0.2776  0.5842
 5495TIP3   OH240679   2.622   5.510   2.486 -0.2156 -0.2126  0.6439
 5495TIP3    H140680   2.661   5.480   2.569  0.6462 -0.5075  0.1514
 5495TIP3    H240681   2.647   5.442   2.423  0.3797  0.7218 -0.1519
 5496TIP3   OH240682   3.477   5.210   1.932 -0.0638 -0.3992  1.0475
 5496TIP3    H140683   3.515   5.171   1.854 -2.2544 -0.3865 -0.0825
 5496TIP3    H240684   3.542   5.276   1.959  0.5597 -0.0915 -1.0084
 5497TIP3   OH240685   2.252   1.542   1.725 -0.4732  0.0723 -0.0397
 5497TIP3    H140686   2.200   1.549   1.645  0.5748 -1.9586 -0.9919
 5497TIP3    H240687   2.202   1.589   1.791 -2.6711 -0.3717 -1.2919
 5498TIP3   OH240688   1.312   7.148   3.389 -0.3113  0.4598 -0.0220
 5498TIP3    H140689   1.292   7.222   3.331  0.5031  2.2212  1.8538
 5498TIP3    H240690   1.240   7.146   3.451 -0.7894 -0.9379 -0.5856
 5499TIP3   OH240691   4.702   2.487   1.066 -0.4249  0.3489  0.1318
 5499TIP3    H140692   4.706   2.519   0.976  1.0838  1.0595  0.4204
 5499TIP3    H240693   4.738   2.559   1.119 -0.9568 -0.1893  1.2717
 5500TIP3   OH240694   4.244   4.198   0.642 -0.0747  0.1869 -0.0071
 5500TIP3    H140695   4.272   4.110   0.619 -0.0399  0.5378 -1.3481
 5500TIP3    H240696   4.170   4.216   0.584  0.8823  1.6147 -0.8367
 5501TIP3   OH240697   1.108   4.219   0.763  0.0261 -0.2052 -0.1503
 5501TIP3    H140698   1.152   4.272   0.830 -0.7828 -1.0623  1.1091
 5501TIP3    H240699   1.021   4.258   0.755 -0.8051 -1.6566  1.2533
 5502TIP3   OH240700   5.728   1.672   1.999  0.0896 -0.1092 -1.0952
 5502TIP3    H140701   5.689   1.585   2.002 -1.1282  0.3155 -2.8458
 5502TIP3    H240702   5.682   1.716   1.928  0.6690  1.9832 -0.2440
 5503TIP3   OH240703   7.151   3.602   0.611  0.0953  0.0874  0.2134
 5503TIP3    H140704   7.141   3.697   0.603  0.9493  0.2098  0.4437
 5503TIP3    H240705   7.112   3.580   0.695  0.1750  0.2855  0.3013
 5504TIP3   OH240706   7.227   3.297   2.784 -0.1702 -0.0793 -0.1012
 5504TIP3    H140707   7.311   3.251   2.778  0.6788  1.3548  0.4240
 5504TIP3    H240708   7.190   3.267   2.867  0.6714  0.6242  0.5455
 5505TIP3   OH240709   2.765   7.422   0.991 -0.5577  0.2430 -0.4520
 5505TIP3    H140710   2.810   7.505   1.011 -1.2432  0.1166  1.9431
 5505TIP3    H240711   2.835   7.364   0.961  0.5938  0.6048  1.3941
 5506TIP3   OH240712   5.222   1.703   2.167  0.0270  0.0914  0.0894
 5506TIP3    H140713   5.128   1.691   2.158 -0.1358  0.4326  1.2298
 5506TIP3    H240714   5.235   1.798   2.161  0.1990  0.1143  0.7703
 5507TIP3   OH240715   2.990   1.608   0.554 -0.2696 -0.0612  0.7789
 5507TIP3    H140716   2.947   1.687   0.519  0.6766  0.9447  1.7956
 5507TIP3    H240717   2.982   1.616   0.649 -1.9028 -2.2368  0.9015
 5508TIP3   OH240718   6.849   6.295   3.255  0.0860 -0.3949 -0.1210
 5508TIP3    H140719   6.866   6.222   3.315  0.5400  0.5865  0.9798
 5508TIP3    H240720   6.754   6.301   3.250  0.0115 -1.8460 -1.2336
 5509TIP3   OH240721   4.324   5.753   2.790 -0.3789  0.3453  0.4857
 5509TIP3    H140722   4.359   5.842   2.799  2.3482 -0.4510 -0.9227
 5509TIP3    H240723   4.353   5.707   2.869  1.2348 -0.1030 -0.3170
 5510TIP3   OH240724   2.456   1.733   1.770  0.0801  0.3618 -0.1214
 5510TIP3    H140725   2.500   1.712   1.852  4.9136 -0.5720 -2.5886
 5510TIP3    H240726   2.408   1.654   1.747 -1.4217  0.6755  1.6983
 5511TIP3   OH240727   1.177   5.494   1.231  0.3536  0.5263  0.0498
 5511TIP3    H140728   1.121   5.417   1.238  0.5197  0.2806 -1.1884
 5511TIP3    H240729   1.206   5.496   1.140  0.8597  1.7024  0.2066
 5512TIP3   OH240730   0.372   2.162   1.507  0.5849 -0.3605 -0.2231
 5512TIP3    H140731   0.354   2.136   1.598  2.2497 -2.1734 -0.3528
 5512TIP3    H240732   0.285   2.172   1.468 -0.1944  1.2909  1.7318
 5513TIP3   OH240733   5.566   0.722   2.461  0.0794  0.4997 -0.1352
 5513TIP3    H140734   5.651   0.762   2.480  0.7011  0.0644 -1.8039
 5513TIP3    H240735   5.586   0.629   2.452 -0.9718  0.0652  1.5216
 5514TIP3   OH240736   5.267   1.435   1.202 -0.2487 -0.5638  0.0613
 5514TIP3    H140737   5.197   1.370   1.197 -0.1771 -0.5523 -1.7450
 5514TIP3    H240738   5.277   1.452   1.296 -0.1950 -3.2465  0.6426
 5515TIP3   OH240739   0.963   0.563   2.455  0.1899  0.2094  0.3729
 5515TIP3    H140740   0.940   0.525   2.539 -1.1208  0.1159 -0.0058
 5515TIP3    H240741   1.021   0.498   2.415 -1.4136 -1.1023  0.0543
 5516TIP3   OH240742   2.777   0.882   2.234 -0.6539 -0.6272  0.0324
 5516TIP3    H140743   2.783   0.796   2.277 -1.9716  0.1145  1.8372
 5516TIP3    H240744   2.734   0.864   2.150  1.8384 -2.1094 -1.0411
 5517TIP3   OH240745   2.361   3.607   7.589 -0.4812 -0.7376  0.5425
 5517TIP3    H140746   2.389   3.589   7.679 -1.3354  0.6870  1.1340
 5517TIP3    H240747   2.358   3.521   7.547 -0.7159 -1.5170  2.0738
 5518TIP3   OH240748   0.201   1.080   1.932 -0.9019  0.1607 -0.4588
 5518TIP3    H140749   0.154   1.057   2.012 -0.3010 -1.1808 -0.4657
 5518TIP3    H240750   0.292   1.092   1.959 -0.8208  0.3884 -0.8213
 5519TIP3   OH240751   2.604   1.940   1.689  0.3176  0.6457 -0.3719
 5519TIP3    H140752   2.590   1.954   1.596  0.4322 -1.1854 -0.6869
 5519TIP3    H240753   2.550   1.864   1.711  0.2495  1.0822  1.0671
 5520TIP3   OH240754   1.235   1.055   2.189 -0.2357  0.0295 -0.0673
 5520TIP3    H140755   1.284   1.126   2.149  0.7195 -0.7524 -0.3103
 5520TIP3    H240756   1.245   0.981   2.128 -0.4449 -0.5810  0.6243
 5521TIP3   OH240757   3.110   0.926   2.528 -0.0859 -0.5146  0.2519
 5521TIP3    H140758   3.057   0.852   2.559  0.9293 -1.5742 -0.4497
 5521TIP3    H240759   3.141   0.899   2.442  1.1019  0.3290  0.3884
 5522TIP3   OH240760   0.796   5.825   1.563 -0.1484  0.8587 -0.0183
 5522TIP3    H140761   0.833   5.844   1.477  0.5682  0.6751  0.2413
 5522TIP3    H240762   0.859   5.862   1.625  0.8312 -1.4395  0.4786
 5523TIP3   OH240763   0.851   7.163   1.344  0.1872  0.2195 -0.1146
 5523TIP3    H140764   0.807   7.245   1.320  0.6245  0.5532  0.1840
 5523TIP3    H240765   0.783   7.111   1.387 -0.3577 -0.0057 -1.2186
 5524TIP3   OH240766   4.419   5.379   2.525 -0.1415 -0.3495 -0.0406
 5524TIP3    H140767   4.381   5.382   2.438 -0.0648  0.5863 -0.0501
 5524TIP3    H240768   4.344   5.372   2.584 -0.2360 -0.1791 -0.1412
 5525TIP3   OH240769   5.475   6.340   0.922 -0.2554 -0.1582  0.0751
 5525TIP3    H140770   5.550   6.392   0.951  0.2890 -1.0781  0.3591
 5525TIP3    H240771   5.451   6.288   0.998 -0.7247 -0.3975 -0.2307
 5526TIP3   OH240772   4.865   5.003   2.665  0.0595  0.2351  0.4799
 5526TIP3    H140773   4.835   4.985   2.754  0.1989  0.6849  0.6196
 5526TIP3    H240774   4.785   5.009   2.613 -0.1474  1.8793  0.9315
 5527TIP3   OH240775   1.338   3.267   1.469  0.0169 -0.1948  0.6929
 5527TIP3    H140776   1.276   3.257   1.397 -0.0233 -0.3575  0.7477
 5527TIP3    H240777   1.421   3.235   1.433 -0.4789 -2.4868  1.3954
 5528TIP3   OH240778   5.561   4.894   0.533 -0.0556 -0.4937  0.3492
 5528TIP3    H140779   5.616   4.971   0.546 -0.6162 -0.0459  0.1014
 5528TIP3    H240780   5.575   4.870   0.441  0.2273 -0.7819  0.4630
 5529TIP3   OH240781   1.122   6.376   8.175  0.0419 -0.1934 -0.4852
 5529TIP3    H140782   1.176   6.394   8.098  0.5692  0.5451  0.0486
 5529TIP3    H240783   1.036   6.410   8.152  0.1574 -0.1068 -0.8012
 5530TIP3   OH240784   2.826   4.247   2.714  0.5829 -0.1507  0.4113
 5530TIP3    H140785   2.921   4.251   2.718  0.7218 -1.9216 -0.4259
 5530TIP3    H240786   2.797   4.299   2.790  2.1867  0.4432  0.6620
 5531TIP3   OH240787   1.319   3.988   2.334  0.2222 -0.4647  0.1471
 5531TIP3    H140788   1.406   4.000   2.373  0.6134 -0.9630 -0.5352
 5531TIP3    H240789   1.333   3.922   2.266 -0.4728  0.2395 -0.7036
 5532TIP3   OH240790   1.301   4.813   1.928  0.0842  0.4859  0.1482
 5532TIP3    H140791   1.274   4.905   1.934  1.0566  0.7820  0.0121
 5532TIP3    H240792   1.253   4.770   1.999 -0.3533  1.0972  0.2352
 5533TIP3   OH240793   2.598   7.399   2.646 -0.3252  0.0504 -0.3739
 5533TIP3    H140794   2.690   7.399   2.672 -0.6520 -0.0207  0.8458
 5533TIP3    H240795   2.600   7.384   2.552  0.9241  0.4152 -0.4245
 5534TIP3   OH240796   4.884   1.948   2.041  0.5097  0.3233  0.6304
 5534TIP3    H140797   4.843   1.913   1.962  0.1047  0.7946  0.6261
 5534TIP3    H240798   4.936   2.023   2.010  1.6966 -0.4908  0.5810
 5535TIP3   OH240799   3.497   6.485   0.931  0.0773  0.1386 -0.3086
 5535TIP3    H140800   3.416   6.473   0.981  0.2561 -1.1752 -0.3061
 5535TIP3    H240801   3.565   6.450   0.988  0.6827  1.3276 -0.2706
 5536TIP3   OH240802   3.493   7.221   2.602 -0.1869 -0.2657 -0.5460
 5536TIP3    H140803   3.433   7.178   2.540 -2.3413  1.4442  0.2283
 5536TIP3    H240804   3.472   7.180   2.686  0.3042 -0.1833 -0.3834
 5537TIP3   OH240805   7.162   6.007   0.749  0.3677 -0.3933 -0.5492
 5537TIP3    H140806   7.133   6.072   0.685  0.8070 -0.0358 -0.3926
 5537TIP3    H240807   7.082   5.961   0.775 -0.0419  0.4755 -0.2360
 5538TIP3   OH240808   7.026   6.655   0.551  0.5777 -0.1754 -0.0571
 5538TIP3    H140809   7.056   6.739   0.515 -0.0309 -0.5534 -1.5365
 5538TIP3    H240810   7.098   6.626   0.607  0.3810  1.7923  1.3163
 5539TIP3   OH240811   1.846   5.730   1.920 -0.1565  0.5057 -0.6134
 5539TIP3    H140812   1.889   5.776   1.993 -0.0217 -0.5094 -0.0373
 5539TIP3    H240813   1.856   5.790   1.846 -1.5231  2.1952  0.4831
 5540TIP3   OH240814   7.035   5.896   1.412  0.9668 -0.2384  0.5235
 5540TIP3    H140815   6.994   5.969   1.365  1.4658  1.2027  2.2115
 5540TIP3    H240816   7.032   5.823   1.350 -0.4871  0.9163 -0.8578
 5541TIP3   OH240817   3.267   4.550   2.375  0.3847 -0.3986  0.4662
 5541TIP3    H140818   3.310   4.505   2.301  1.1684  1.3492 -0.1879
 5541TIP3    H240819   3.331   4.547   2.445  1.8607  2.5057 -0.6141
 5542TIP3   OH240820   6.708   2.086   0.891  0.4198  0.1391  0.1455
 5542TIP3    H140821   6.622   2.106   0.852  0.7086  2.7395  0.6272
 5542TIP3    H240822   6.687   2.043   0.974 -0.4078  0.0952 -0.0754
 5543TIP3   OH240823   2.495   4.905   1.170  0.2886 -0.0722 -0.3876
 5543TIP3    H140824   2.558   4.972   1.141 -1.1734  1.4405 -0.2127
 5543TIP3    H240825   2.532   4.872   1.252  0.8969  0.7497 -0.3142
 5544TIP3   OH240826   2.656   3.102   1.896 -0.5971 -0.0612  0.4531
 5544TIP3    H140827   2.654   3.007   1.890 -0.2390 -0.2304  2.3644
 5544TIP3    H240828   2.569   3.126   1.927 -0.2499  0.0800  1.3614
 5545TIP3   OH240829   1.650   3.284   3.258  0.3489  0.2405 -0.4698
 5545TIP3    H140830   1.585   3.215   3.272 -0.4585  1.1171  0.2350
 5545TIP3    H240831   1.730   3.250   3.299  0.0981 -0.4884 -0.5752
 5546TIP3   OH240832   0.200   6.397   2.413  0.0815  0.6200 -0.2143
 5546TIP3    H140833   0.184   6.325   2.353 -0.4450  1.1357 -0.7006
 5546TIP3    H240834   0.239   6.466   2.359  1.9713  0.1984  0.5135
 5547TIP3   OH240835   2.701   4.023   2.551 -0.4008  0.0066 -0.2043
 5547TIP3    H140836   2.772   3.989   2.498 -0.1212 -1.1577  0.8671
 5547TIP3    H240837   2.721   4.116   2.562  1.8360 -0.5710  1.3305
 5548TIP3   OH240838   2.180   3.465   2.005  0.3402 -0.1574 -0.2273
 5548TIP3    H140839   2.197   3.490   2.095  0.1889  0.1222 -0.2754
 5548TIP3    H240840   2.260   3.490   1.957  0.0169  0.6563 -0.3560
 5549TIP3   OH240841   4.958   0.030   1.394  0.1099  0.3415  0.0667
 5549TIP3    H140842   4.985  -0.005   1.309 -0.6234 -1.4355  0.5198
 5549TIP3    H240843   4.868   0.059   1.379  0.5612  1.6691 -0.1862
 5550TIP3   OH240844   4.157   4.545   0.670 -0.4978  0.3145 -0.0210
 5550TIP3    H140845   4.136   4.585   0.754  3.5765  1.8880  0.4955
 5550TIP3    H240846   4.114   4.600   0.605 -0.5021  1.4762  0.9482
 5551TIP3   OH240847   1.588   7.332   3.042  0.7368 -0.8817 -0.3190
 5551TIP3    H140848   1.532   7.330   3.120  0.8197 -3.9494 -0.2179
 5551TIP3    H240849   1.531   7.363   2.972 -0.1791 -0.8823  0.4054
 5552TIP3   OH240850   0.588   0.560   2.336  0.5209 -0.2626 -0.1327
 5552TIP3    H140851   0.646   0.635   2.323 -0.2125  0.1618 -1.1057
 5552TIP3    H240852   0.571   0.558   2.430  0.2061  1.0539 -0.1469
 5553TIP3   OH240853   3.211   6.165   2.435  0.0772 -0.0429 -0.1998
 5553TIP3    H140854   3.263   6.110   2.493 -0.6138 -0.2224  0.2632
 5553TIP3    H240855   3.120   6.140   2.453 -0.1731  0.2252 -1.0288
 5554TIP3   OH240856   2.947   3.930   0.588  0.3338 -0.1356 -0.0451
 5554TIP3    H140857   2.988   4.013   0.610  0.2974 -0.4430  1.2266
 5554TIP3    H240858   3.015   3.864   0.607  0.7326 -0.3618 -1.9947
 5555TIP3   OH240859   1.822   1.108   1.919  0.0824  0.0464  0.0892
 5555TIP3    H140860   1.829   1.138   2.009  1.1022 -1.6332  0.6049
 5555TIP3    H240861   1.898   1.146   1.874  1.7748 -2.2081  0.9096
 5556TIP3   OH240862   3.743   7.236   1.607 -0.4070  0.5261 -0.0489
 5556TIP3    H140863   3.663   7.213   1.559 -0.5919  0.7146  0.1685
 5556TIP3    H240864   3.800   7.275   1.541  0.1034 -0.9892 -0.5344
 5557TIP3   OH240865   1.808   3.518   2.034 -0.2886  0.0504 -0.0674
 5557TIP3    H140866   1.857   3.463   2.094 -1.4626 -0.8904  0.0739
 5557TIP3    H240867   1.772   3.457   1.969 -0.2465  0.8654 -0.8851
 5558TIP3   OH240868   5.723   5.511   2.623  0.0486  0.4226  0.3598
 5558TIP3    H140869   5.756   5.453   2.692  1.9031 -0.6308 -1.3026
 5558TIP3    H240870   5.674   5.453   2.565  0.9260  0.7015 -0.6996
 5559TIP3   OH240871   0.761   7.528   1.132 -0.5270  0.3552 -0.1591
 5559TIP3    H140872   0.763   7.500   1.041  0.1233  1.0624 -0.3680
 5559TIP3    H240873   0.697   7.599   1.135  1.1201  1.9207 -0.5516
 5560TIP3   OH240874   1.847   5.528   0.727  0.2385 -0.6369 -0.1605
 5560TIP3    H140875   1.941   5.549   0.721  0.3743 -1.3907 -0.7797
 5560TIP3    H240876   1.808   5.574   0.652 -0.1785  1.1169  1.0738
 5561TIP3   OH240877   0.279   6.789   1.711 -0.0574 -0.2306  0.5458
 5561TIP3    H140878   0.283   6.836   1.628  1.4952  0.0460  0.7464
 5561TIP3    H240879   0.224   6.843   1.767  0.1465  0.3808  0.1700
 5562TIP3   OH240880   2.021   1.276   3.008  0.4001  0.0774  0.2157
 5562TIP3    H140881   2.110   1.268   2.972 -0.1015 -2.1653 -0.6313
 5562TIP3    H240882   2.035   1.302   3.099  1.8611  0.9308 -0.2101
 5563TIP3   OH240883   1.545   6.202   0.877  0.1226 -0.0657 -0.9603
 5563TIP3    H140884   1.468   6.179   0.825 -0.3642 -0.0299 -0.2745
 5563TIP3    H240885   1.531   6.159   0.962  0.8901 -0.1078 -0.8412
 5564TIP3   OH240886   4.604   0.790   1.876 -0.2462  0.2254 -0.6370
 5564TIP3    H140887   4.545   0.865   1.869  0.4736  0.8961  0.2307
 5564TIP3    H240888   4.573   0.729   1.808 -1.3633  0.9337 -0.8002
 5565TIP3   OH240889   4.929   7.079   2.877 -0.0900  0.5903 -0.1677
 5565TIP3    H140890   4.871   7.036   2.814 -1.9086 -1.9917  2.9140
 5565TIP3    H240891   4.989   7.010   2.905  1.6052  2.0472 -0.0789
 5566TIP3   OH240892   4.270   0.675   2.680 -0.1145 -0.0271  0.3750
 5566TIP3    H140893   4.210   0.722   2.737 -0.8017 -1.2595  0.6916
 5566TIP3    H240894   4.227   0.593   2.661  1.1768 -0.6634  0.0539
 5567TIP3   OH240895   6.844   0.568   1.173  0.6914 -0.0993 -0.0430
 5567TIP3    H140896   6.765   0.608   1.210  0.2015  0.6682 -1.8013
 5567TIP3    H240897   6.905   0.641   1.162  0.5145 -0.1389 -1.4694
 5568TIP3   OH240898   4.674   7.264   1.784  0.1074 -0.0232  1.0100
 5568TIP3    H140899   4.579   7.256   1.783  0.1177 -0.4718 -1.1019
 5568TIP3    H240900   4.704   7.179   1.816 -0.2090 -0.7616 -0.5352
 5569TIP3   OH240901   4.260   6.437   2.703 -1.1698 -0.3981  0.0829
 5569TIP3    H140902   4.313   6.501   2.749 -0.3189 -0.7108 -0.4369
 5569TIP3    H240903   4.265   6.463   2.611 -3.4235  0.6456  0.1771
 5570TIP3   OH240904   1.999   1.032   0.590 -0.1707  0.5642  0.0371
 5570TIP3    H140905   1.965   1.096   0.527  0.2966  0.0297 -0.7814
 5570TIP3    H240906   2.055   1.083   0.648  1.6062  0.6883 -1.6551
 5571TIP3   OH240907   4.724   4.281   2.704  0.2374 -0.2048  0.1088
 5571TIP3    H140908   4.744   4.203   2.756  2.1018 -0.3523 -0.7428
 5571TIP3    H240909   4.667   4.249   2.635  1.1745 -0.9107 -0.3720
 5572TIP3   OH240910   5.965   5.580   0.566  0.1167  0.3503  0.5537
 5572TIP3    H140911   5.986   5.553   0.656  0.2967  2.0664  1.0665
 5572TIP3    H240912   6.039   5.634   0.539 -0.2810  0.4694 -0.3407
 5573TIP3   OH240913   5.783   7.416   2.411  0.4824  0.5792  0.0421
 5573TIP3    H140914   5.768   7.510   2.398  0.4832  0.8033  1.5138
 5573TIP3    H240915   5.875   7.403   2.387  0.5491  0.9904  0.0659
 5574TIP3   OH240916   3.673   3.619   1.791 -0.0712  0.1779  0.3239
 5574TIP3    H140917   3.720   3.609   1.873  0.1740  0.2405  0.1900
 5574TIP3    H240918   3.729   3.673   1.736  0.6037 -1.3197 -0.5343
 5575TIP3   OH240919   1.417   1.238   0.988  0.2003 -0.1298 -0.3987
 5575TIP3    H140920   1.456   1.151   1.000 -0.0648 -0.2144 -0.1254
 5575TIP3    H240921   1.341   1.238   1.047  0.7794  0.6544  0.3615
 5576TIP3   OH240922   1.551   0.896   1.578  0.2881 -0.0037  0.7229
 5576TIP3    H140923   1.517   0.888   1.667 -1.8031  0.7487  0.0569
 5576TIP3    H240924   1.566   0.806   1.549 -1.1872 -0.3824  1.0806
 5577TIP3   OH240925   1.488   6.606   1.897 -0.3908 -0.1536  0.2233
 5577TIP3    H140926   1.527   6.592   1.983 -0.5170  1.1256  0.5126
 5577TIP3    H240927   1.529   6.540   1.841 -2.0947 -2.6664  1.7443
 5578TIP3   OH240928   0.937   2.438   0.866 -0.1256 -0.1629 -0.8406
 5578TIP3    H140929   0.968   2.426   0.956 -2.4779 -1.3763 -0.1001
 5578TIP3    H240930   0.842   2.423   0.871 -0.8338  2.5851 -3.0231
 5579TIP3   OH240931   4.007   3.688   2.964  0.1006  0.0669 -0.3019
 5579TIP3    H140932   4.102   3.676   2.959  0.0891  0.2387 -0.9713
 5579TIP3    H240933   3.996   3.782   2.980  0.1153 -0.3350  2.5261
 5580TIP3   OH240934   4.194   4.035   2.849  0.7076 -0.0066 -0.2545
 5580TIP3    H140935   4.124   4.002   2.793  0.2077  2.3188 -1.1087
 5580TIP3    H240936   4.169   4.008   2.938 -1.8467  1.6077 -0.4112
 5581TIP3   OH240937   7.342   1.497   1.284 -0.0867 -0.3500  0.0820
 5581TIP3    H140938   7.338   1.579   1.233 -1.0873 -1.0013 -0.9559
 5581TIP3    H240939   7.280   1.439   1.240  1.1643 -1.9456  0.3220
 5582TIP3   OH240940   7.609   1.974   1.242  0.4204 -0.7997  0.6097
 5582TIP3    H140941   7.597   1.884   1.212 -1.0442 -0.8933  1.3744
 5582TIP3    H240942   7.521   2.003   1.267  0.3885  1.6874 -1.8498
 5583TIP3   OH240943   0.595   1.923   3.548 -0.0027  0.4051 -0.5761
 5583TIP3    H140944   0.530   1.949   3.483 -1.0131  1.9651  0.9459
 5583TIP3    H240945   0.544   1.891   3.622  1.0887 -0.7697 -0.2872
 5584TIP3   OH240946   0.243   2.030   2.881 -0.8951 -0.3607 -0.6107
 5584TIP3    H140947   0.222   2.123   2.875 -0.4336 -0.1796  0.3658
 5584TIP3    H240948   0.321   2.027   2.936  0.0283 -1.2110 -1.8956
 5585TIP3   OH240949   1.808   3.638   1.616 -0.0432 -0.5460  0.4488
 5585TIP3    H140950   1.846   3.663   1.700  1.6135 -2.5520  0.3506
 5585TIP3    H240951   1.714   3.653   1.628  0.4279  2.4785  1.4307
 5586TIP3   OH240952   1.503   4.542   1.431 -0.0372  0.1160  0.3594
 5586TIP3    H140953   1.424   4.597   1.425 -0.6439 -0.5823  1.6013
 5586TIP3    H240954   1.473   4.454   1.407  0.2070 -0.2813  1.4628
 5587TIP3   OH240955   3.268   3.156   1.654  0.2873  0.2808 -0.7169
 5587TIP3    H140956   3.192   3.098   1.654  0.5378 -0.0744  0.5408
 5587TIP3    H240957   3.339   3.102   1.618 -0.0386  0.6251 -1.9293
 5588TIP3   OH240958   1.341   1.437   0.589 -0.5133 -0.4702  0.4047
 5588TIP3    H140959   1.373   1.455   0.678 -2.2833  1.0442  0.7963
 5588TIP3    H240960   1.405   1.479   0.531 -0.3152  0.1347  1.0455
 5589TIP3   OH240961   0.268   7.232   2.617 -0.3040 -0.4391 -0.0502
 5589TIP3    H140962   0.256   7.157   2.559 -0.8639 -0.4468  0.0761
 5589TIP3    H240963   0.254   7.308   2.561  1.6038 -0.3617 -0.5167
 5590TIP3   OH240964   3.017   3.449   2.857 -0.4251  0.6727  0.3825
 5590TIP3    H140965   2.939   3.436   2.912  0.7440  2.1513  2.5071
 5590TIP3    H240966   3.077   3.500   2.911  1.6888  0.3811 -1.5302
 5591TIP3   OH240967   2.334   0.476   2.733  0.1206  0.2715 -0.4261
 5591TIP3    H140968   2.288   0.540   2.786 -0.4649 -1.1134  0.7966
 5591TIP3    H240969   2.366   0.411   2.795 -0.2937 -1.2324 -1.7186
 5592TIP3   OH240970   2.584   0.495   0.366  0.2665  0.1893 -0.0225
 5592TIP3    H140971   2.556   0.545   0.289 -0.8956 -2.7083 -1.6311
 5592TIP3    H240972   2.506   0.445   0.391  1.3452 -0.7955  1.4971
 5593TIP3   OH240973   0.429   3.432   0.712  0.3480 -0.6919 -0.5139
 5593TIP3    H140974   0.469   3.373   0.776  0.9271 -0.5347 -0.7254
 5593TIP3    H240975   0.377   3.374   0.656 -0.3773 -0.8009  0.2460
 5594TIP3   OH240976   4.545   6.750   2.435  0.0975  0.2419  0.0148
 5594TIP3    H140977   4.482   6.698   2.386  0.3682 -1.0975  1.0448
 5594TIP3    H240978   4.534   6.839   2.401 -1.6653 -0.1341 -0.4842
 5595TIP3   OH240979   2.392   4.083   1.008 -0.4033  0.1232 -0.5555
 5595TIP3    H140980   2.310   4.066   0.962 -0.1677  0.8867 -1.2757
 5595TIP3    H240981   2.370   4.074   1.101 -1.4350  0.8488 -0.7124
 5596TIP3   OH240982   1.694   2.916   1.567  0.2833 -0.2132  0.5008
 5596TIP3    H140983   1.689   2.834   1.517 -0.1384 -0.1326  0.4038
 5596TIP3    H240984   1.775   2.909   1.617  2.2844  0.9084 -2.3055
 5597TIP3   OH240985   2.214   6.092   3.426  0.1925  0.1128 -0.2912
 5597TIP3    H140986   2.193   6.055   3.340 -0.7844  0.5466 -0.2576
 5597TIP3    H240987   2.157   6.045   3.487 -1.3532  1.8476 -0.2957
 5598TIP3   OH240988   5.155   7.301   2.465 -0.0495  0.6918  0.3959
 5598TIP3    H140989   5.204   7.362   2.519 -0.3820  1.2770  0.0539
 5598TIP3    H240990   5.068   7.296   2.506 -0.2990  1.1305 -0.0701
 5599TIP3   OH240991   1.949   7.134   2.111 -0.2695 -0.3496  0.1235
 5599TIP3    H140992   1.986   7.063   2.163 -2.4518 -1.1077  0.7463
 5599TIP3    H240993   1.946   7.209   2.170 -1.5480 -0.8512  0.7239
 5600TIP3   OH240994   2.525   5.094   0.761 -0.3033  0.0207 -0.4180
 5600TIP3    H140995   2.540   5.097   0.667 -0.1542  0.4489 -0.3846
 5600TIP3    H240996   2.545   5.004   0.786 -2.0942 -0.6107 -1.0873
 5601TIP3   OH240997   7.637   3.991   3.432  0.5094  0.0643  0.2251
 5601TIP3    H140998   7.681   3.931   3.372  0.4473 -1.2436  1.4441
 5601TIP3    H240999   7.692   3.991   3.510 -1.0688 -0.7805  1.3794
 5602TIP3   OH241000   6.456   1.522   1.961 -0.3620  0.3233  0.3905
 5602TIP3    H141001   6.488   1.449   1.907  1.4423 -0.2786  2.1624
 5602TIP3    H241002   6.363   1.503   1.975  0.0489 -1.6106  0.7440
 5603TIP3   OH241003   1.375   2.270   3.167 -0.3187  0.2937  0.4391
 5603TIP3    H141004   1.396   2.359   3.136 -1.8042  0.6168  0.2753
 5603TIP3    H241005   1.379   2.277   3.262 -0.4235  0.5266  0.4273
 5604TIP3   OH241006   1.155   3.334   0.842 -0.2858 -0.1949 -0.4664
 5604TIP3    H141007   1.242   3.372   0.831 -0.9156  1.3214 -0.5024
 5604TIP3    H241008   1.169   3.257   0.897  0.8858  0.8641  0.7896
 5605TIP3   OH241009   3.733   5.171   1.758 -0.7842 -0.0432 -0.0257
 5605TIP3    H141010   3.790   5.163   1.682  1.8337 -0.5456  1.8692
 5605TIP3    H241011   3.738   5.263   1.782 -1.0212 -0.0276 -0.0358
 5606TIP3   OH241012   0.677   3.607   1.104 -0.1558 -0.2189  0.1658
 5606TIP3    H141013   0.600   3.643   1.060  1.0596 -0.8770 -2.7941
 5606TIP3    H241014   0.648   3.525   1.143 -1.3668  0.5280  0.8819
 5607TIP3   OH241015   3.622   0.941   2.962  0.3440  0.0326  0.0672
 5607TIP3    H141016   3.577   0.878   3.019 -1.9240  1.3948 -0.0955
 5607TIP3    H241017   3.634   0.894   2.879 -0.2333 -0.5819  0.3195
 5608TIP3   OH241018   1.765   4.411   0.719  0.6437 -0.1562  0.2453
 5608TIP3    H141019   1.804   4.339   0.669  1.9555  0.8376 -0.2062
 5608TIP3    H241020   1.764   4.380   0.809  0.7602 -0.9219 -0.0122
 5609TIP3   OH241021   6.424   4.544   1.408 -0.0837 -0.0962  0.0674
 5609TIP3    H141022   6.332   4.569   1.400 -0.3362 -1.1450 -0.4814
 5609TIP3    H241023   6.467   4.623   1.440 -0.8148  1.1184 -1.7863
 5610TIP3   OH241024   0.338   1.482   1.161 -0.4033 -0.1005 -0.7891
 5610TIP3    H141025   0.355   1.528   1.078  0.8740 -2.2817 -1.8250
 5610TIP3    H241026   0.263   1.425   1.141  0.1603 -0.9243 -0.5964
 5611TIP3   OH241027   4.084   2.784   3.476 -0.2068 -0.2594  0.0825
 5611TIP3    H141028   4.110   2.724   3.407 -0.0230  1.5350 -1.4978
 5611TIP3    H241029   4.156   2.781   3.539  0.7101 -0.2902 -0.9316
 5612TIP3   OH241030   2.654   4.169   1.213 -0.9248 -0.9017  0.4327
 5612TIP3    H141031   2.589   4.098   1.214 -1.4995 -0.4183 -0.9984
 5612TIP3    H241032   2.603   4.249   1.219 -0.4439 -0.5298 -0.2575
 5613TIP3   OH241033   2.572   4.686   2.794  0.0963 -0.3155  0.4290
 5613TIP3    H141034   2.601   4.763   2.842  1.0710 -1.6541  2.1159
 5613TIP3    H241035   2.634   4.679   2.721  1.3673 -0.6543  1.4917
 5614TIP3   OH241036   1.615   3.032   2.271  0.1041  0.1614  0.3386
 5614TIP3    H141037   1.652   2.972   2.337  2.2792 -0.0365 -0.9579
 5614TIP3    H241038   1.533   2.991   2.245  0.5064 -1.1567  1.0190
 5615TIP3   OH241039   7.516   7.558   1.674  0.1883 -0.0785 -0.0698
 5615TIP3    H141040   7.536   7.498   1.746  0.6705  0.1151 -0.0412
 5615TIP3    H241041   7.585   7.624   1.677 -0.5033  0.6661  0.0930
 5616TIP3   OH241042   1.994   6.695   2.820 -0.3831 -0.1345  0.2493
 5616TIP3    H141043   1.928   6.655   2.877 -0.9874  0.1322 -0.2438
 5616TIP3    H241044   2.046   6.749   2.879  1.5906 -2.9162  1.2733
 5617TIP3   OH241045   1.406   4.769   2.902 -0.3673  0.3607  0.9207
 5617TIP3    H141046   1.444   4.754   2.988  0.3896 -1.2504  0.3415
 5617TIP3    H241047   1.340   4.837   2.916 -0.7737 -0.3858  2.8818
 5618TIP3   OH241048   0.256   4.741   2.405 -0.0605  0.1229 -0.0376
 5618TIP3    H141049   0.244   4.836   2.395  0.0685  0.2165  0.6049
 5618TIP3    H241050   0.305   4.733   2.487 -1.6870 -0.5970  0.8933
 5619TIP3   OH241051   0.099   4.551   1.458  0.2012 -0.2274  0.1251
 5619TIP3    H141052   0.086   4.459   1.479 -0.1293 -0.2725 -0.2536
 5619TIP3    H241053   0.043   4.566   1.381 -1.7280  0.9040  1.6425
 5620TIP3   OH241054   0.281   5.543   0.901  0.4811 -0.4826  0.2181
 5620TIP3    H141055   0.364   5.548   0.948  1.4811 -0.1667 -1.4854
 5620TIP3    H241056   0.230   5.478   0.949  0.9470  0.6813  2.3921
 5621TIP3   OH241057   3.563   4.583   1.782  0.3717 -0.0582  0.5016
 5621TIP3    H141058   3.550   4.677   1.770 -1.0988 -0.0413  1.9409
 5621TIP3    H241059   3.523   4.564   1.866  0.1369 -2.0900 -0.0247
 5622TIP3   OH241060   1.819   4.769   1.375 -0.0047  0.2853 -0.6057
 5622TIP3    H141061   1.788   4.681   1.396 -1.5298  0.8652 -0.3431
 5622TIP3    H241062   1.913   4.758   1.359  0.0678 -1.1727  0.6386
 5623TIP3   OH241063   0.842   3.973   0.794  0.3585  0.2585 -0.2580
 5623TIP3    H141064   0.857   3.958   0.887  1.0361  1.1185 -0.2199
 5623TIP3    H241065   0.887   4.056   0.775 -0.1172  0.3027 -1.2569
 5624TIP3   OH241066   6.622   5.621   2.223 -0.0357  0.0168  0.5688
 5624TIP3    H141067   6.688   5.611   2.154 -0.1845 -3.4335  0.7397
 5624TIP3    H241068   6.574   5.538   2.222 -2.1722  1.0971  2.7292
 5625TIP3   OH241069   6.512   0.324   2.714 -0.2994  0.1485  0.2690
 5625TIP3    H141070   6.470   0.295   2.795  0.0160  0.0281  0.3908
 5625TIP3    H241071   6.592   0.367   2.742 -0.7193  1.0746  0.0810
 5626TIP3   OH241072   3.038   0.308   2.306 -0.2434  0.0588 -0.1448
 5626TIP3    H141073   2.959   0.281   2.353 -0.2137  0.0267 -0.1138
 5626TIP3    H241074   3.108   0.255   2.344 -0.2237  0.0147 -0.2439
 5627TIP3   OH241075   5.377   2.399   1.142  0.5011  0.7582  0.4592
 5627TIP3    H141076   5.402   2.383   1.051 -0.8822 -1.8990  0.4385
 5627TIP3    H241077   5.395   2.316   1.186 -0.5032  1.4363  2.2138
 5628TIP3   OH241078   6.883   7.105   3.034 -0.1150 -0.0985 -0.1915
 5628TIP3    H141079   6.853   7.020   3.065  0.4332  0.4286  1.9505
 5628TIP3    H241080   6.804   7.160   3.032 -0.3973 -0.5126 -1.1930
 5629TIP3   OH241081   0.753   1.662   0.580 -0.2150  0.1378  0.7472
 5629TIP3    H141082   0.794   1.623   0.658  0.4488  0.4324  0.5613
 5629TIP3    H241083   0.751   1.756   0.600  1.8558  0.4964 -0.3848
 5630TIP3   OH241084   2.254   4.544   1.253 -0.0900 -0.4343 -0.1535
 5630TIP3    H141085   2.233   4.454   1.226  1.8421 -0.3150 -2.3727
 5630TIP3    H241086   2.292   4.534   1.341  0.8247 -1.9257 -0.6713
 5631TIP3   OH241087   0.721   2.325   3.612 -0.2222  0.5569  0.2777
 5631TIP3    H141088   0.734   2.418   3.590 -1.1100  0.7122  0.3693
 5631TIP3    H241089   0.636   2.303   3.574  0.0586 -0.2766  0.1084
 5632TIP3   OH241090   4.693   6.274   0.985 -0.6483 -0.0856  0.1999
 5632TIP3    H141091   4.773   6.324   0.969 -1.2661  1.6961  2.1956
 5632TIP3    H241092   4.715   6.185   0.957  0.9365  0.9786 -2.2533
 5633TIP3   OH241093   4.541   3.072   2.909 -0.4107 -0.8240  0.0353
 5633TIP3    H141094   4.459   3.120   2.921 -0.3568 -0.8029  0.3259
 5633TIP3    H241095   4.592   3.092   2.987 -0.1311 -0.8443 -0.1422
 5634TIP3   OH241096   6.088   4.568   1.902 -0.2314  0.1271  0.1858
 5634TIP3    H141097   6.120   4.650   1.864  1.3147 -0.4338  0.2299
 5634TIP3    H241098   6.043   4.595   1.983  0.2742  0.9262  0.2093
 5635TIP3   OH241099   4.092   1.385   2.100  0.0290  0.5234  0.1540
 5635TIP3    H141100   4.020   1.430   2.143 -0.5941  0.4632 -0.8055
 5635TIP3    H241101   4.054   1.349   2.020  0.8177 -0.5961  0.2542
 5636TIP3   OH241102   2.990   0.171   1.475  0.7499  0.0096  0.2609
 5636TIP3    H141103   3.030   0.239   1.421  1.2302 -0.0133  0.5831
 5636TIP3    H241104   3.038   0.091   1.453 -0.3216 -0.3996 -0.6947
 5637TIP3   OH241105   1.145   2.075   1.079  0.1324  0.5440  0.2632
 5637TIP3    H141106   1.122   2.147   1.021 -1.6816 -1.1075 -1.1977
 5637TIP3    H241107   1.062   2.031   1.097  1.0314 -0.5693  1.9968
 5638TIP3   OH241108   2.674   5.563   0.982 -0.2208 -0.3843 -0.5543
 5638TIP3    H141109   2.654   5.471   0.963 -1.2259 -0.3374  0.1552
 5638TIP3    H241110   2.719   5.560   1.066 -0.3927 -0.2176 -0.4564
 5639TIP3   OH241111   7.080   4.528   2.685  0.1931 -0.5912  0.1360
 5639TIP3    H141112   7.101   4.520   2.778  0.9160 -0.4732 -0.0075
 5639TIP3    H241113   7.164   4.550   2.644 -0.0069 -1.1924 -0.6112
 5640TIP3   OH241114   7.462   5.418   1.439 -0.0571  0.0542 -0.2916
 5640TIP3    H141115   7.525   5.354   1.470 -0.2922 -0.2939 -0.5295
 5640TIP3    H241116   7.513   5.498   1.427  0.1414  0.0515  0.4774
 5641TIP3   OH241117   2.979   4.503   2.398 -0.3449 -0.0915 -0.7214
 5641TIP3    H141118   3.069   4.535   2.389 -0.2472  0.3114  1.2344
 5641TIP3    H241119   2.936   4.528   2.316  1.2108  0.0387 -1.5437
 5642TIP3   OH241120   2.760   4.846   0.574 -0.4575  0.0592  0.7481
 5642TIP3    H141121   2.768   4.755   0.547 -1.6865 -0.2113  1.2470
 5642TIP3    H241122   2.844   4.865   0.617  0.3052 -0.4286 -0.4679
 5643TIP3   OH241123   4.177   5.076   2.006  0.1049 -0.1753 -0.1409
 5643TIP3    H141124   4.084   5.091   1.993  0.3703  1.1208 -0.6548
 5643TIP3    H241125   4.216   5.084   1.919  0.9062  0.9494  0.3027
 5644TIP3   OH241126   4.624   7.065   1.014  0.2113 -0.1862 -0.1071
 5644TIP3    H141127   4.550   7.040   0.960 -0.9193  1.7359  0.4411
 5644TIP3    H241128   4.586   7.120   1.083  2.3883  3.5708 -1.5732
 5645TIP3   OH241129   3.466   1.526   2.144  0.2616  0.0790  0.4053
 5645TIP3    H141130   3.531   1.456   2.146 -0.3743 -0.5216  0.0484
 5645TIP3    H241131   3.396   1.497   2.202  0.7265  1.1647  1.5712
 5646TIP3   OH241132   2.704   2.620   1.789  0.2599 -0.3107 -0.0278
 5646TIP3    H141133   2.705   2.594   1.881  1.1238 -0.1546  0.0076
 5646TIP3    H241134   2.737   2.543   1.742  0.4188 -0.1659 -0.1511
 5647TIP3   OH241135   4.918   5.635   2.582 -0.2752  0.0912 -0.6300
 5647TIP3    H141136   4.978   5.568   2.547  0.5284  0.9826 -1.0166
 5647TIP3    H241137   4.831   5.604   2.557 -0.0921 -1.7088  0.7505
 5648TIP3   OH241138   4.578   0.181   1.008 -0.2050  0.4768 -0.4764
 5648TIP3    H141139   4.604   0.228   1.087  0.4986 -1.6617  0.6372
 5648TIP3    H241140   4.655   0.128   0.985 -0.5624  0.7026 -2.3379
 5649TIP3   OH241141   2.486   2.598   2.241 -0.2655  0.3873 -0.2077
 5649TIP3    H141142   2.394   2.575   2.254  0.0673 -1.0950 -0.3637
 5649TIP3    H241143   2.486   2.694   2.232 -1.8170  0.3740 -0.4910
 5650TIP3   OH241144   2.855   4.602   2.178 -0.1963 -0.0058 -0.1528
 5650TIP3    H141145   2.774   4.638   2.141 -0.1855 -1.8208 -2.2083
 5650TIP3    H241146   2.922   4.623   2.113  0.0640 -2.3383 -0.7193
 5651TIP3   OH241147   1.032   6.177   3.482  0.2981  0.3883  0.5201
 5651TIP3    H141148   0.969   6.148   3.548  0.7616 -1.4893  0.2001
 5651TIP3    H241149   1.116   6.141   3.512  0.6901  0.3863 -0.5481
 5652TIP3   OH241150   0.502   1.844   0.922  0.1301 -0.3624 -0.0233
 5652TIP3    H141151   0.434   1.904   0.953  1.7006  1.1238  0.7025
 5652TIP3    H241152   0.520   1.871   0.832  1.4656  0.8967  0.5948
 5653TIP3   OH241153   2.100   3.045   1.067  0.2748 -0.5246 -0.0420
 5653TIP3    H141154   2.021   3.011   1.110  0.9272 -2.4275 -0.2716
 5653TIP3    H241155   2.066   3.102   0.998 -0.8774 -0.8950  0.1892
 5654TIP3   OH241156   1.923   0.559   0.620  0.2282  0.6550  0.1116
 5654TIP3    H141157   1.955   0.594   0.702  0.7307 -0.4051  0.3938
 5654TIP3    H241158   1.940   0.627   0.555  0.3254  1.2781  0.7921
 5655TIP3   OH241159   1.323   0.127   0.630 -0.3207  0.2184  0.0856
 5655TIP3    H141160   1.367   0.196   0.581  1.6856 -1.6206 -0.8799
 5655TIP3    H241161   1.393   0.085   0.680 -1.4344 -1.2243  0.5035
 5656TIP3   OH241162   3.349   2.177   0.843  0.2390  0.0437  0.2205
 5656TIP3    H141163   3.347   2.227   0.762 -2.5768  0.4563  0.4528
 5656TIP3    H241164   3.275   2.117   0.837 -0.1208  0.1528  2.4867
 5657TIP3   OH241165   2.111   5.870   2.698  0.1410  0.8048  0.3496
 5657TIP3    H141166   2.075   5.784   2.676  1.4660 -0.0141  1.2266
 5657TIP3    H241167   2.140   5.907   2.615 -0.9705  0.6859 -0.1123
 5658TIP3   OH241168   6.306   2.046   1.131 -0.4428 -0.1487  0.3582
 5658TIP3    H141169   6.334   2.130   1.093 -2.0091  0.2849  0.0924
 5658TIP3    H241170   6.211   2.048   1.125 -0.5040 -1.9293  0.4439
 5659TIP3   OH241171   6.285   2.621   1.235 -0.4118  1.2008  0.4262
 5659TIP3    H141172   6.289   2.664   1.321 -2.4377 -0.0389  1.2173
 5659TIP3    H241173   6.373   2.585   1.223 -0.1472  1.1577  2.1370
 5660TIP3   OH241174   2.376   3.032   0.964 -0.1995  0.1396  0.1136
 5660TIP3    H141175   2.391   3.093   0.892 -1.7702  1.1263  0.5478
 5660TIP3    H241176   2.281   3.033   0.977 -0.0908 -1.0879  1.2775
 5661TIP3   OH241177   6.479   6.010   2.432 -0.2675  0.1916 -0.2731
 5661TIP3    H141178   6.555   6.010   2.491 -0.0751 -1.8042 -0.4766
 5661TIP3    H241179   6.514   5.984   2.347 -1.1153 -0.3031 -0.4766
 5662TIP3   OH241180   2.344   7.283   2.554 -0.4787 -0.0867 -0.2206
 5662TIP3    H141181   2.334   7.352   2.487  0.8331  0.8942  0.5467
 5662TIP3    H241182   2.423   7.308   2.602 -0.0388 -2.0913  0.1633
 5663TIP3   OH241183   5.646   5.029   1.819  0.0412  0.2933 -0.0050
 5663TIP3    H141184   5.687   5.023   1.905 -0.7756  0.2437  0.3926
 5663TIP3    H241185   5.682   5.110   1.781 -0.5826  1.0292  0.9293
 5664TIP3   OH241186   1.511   7.243   2.015 -0.8862 -0.1692  0.4064
 5664TIP3    H141187   1.430   7.292   2.027 -1.0184 -0.4480  0.6691
 5664TIP3    H241188   1.484   7.151   2.017 -0.7546 -0.2451 -0.9220
 5665TIP3   OH241189   4.724   7.392   1.228 -0.7993  0.4073 -0.5250
 5665TIP3    H141190   4.770   7.312   1.254  0.5346  1.1507 -0.5105
 5665TIP3    H241191   4.713   7.440   1.310 -0.4541  0.8145 -0.7182
 5666TIP3   OH241192   3.219   1.917   1.106  0.0287 -0.1924  0.9400
 5666TIP3    H141193   3.304   1.942   1.141 -0.5115  0.6300  1.7125
 5666TIP3    H241194   3.156   1.943   1.174 -0.7611 -1.7259  0.8568
 5667TIP3   OH241195   1.410   0.346   2.215  0.1311  0.3855 -0.2562
 5667TIP3    H141196   1.391   0.436   2.239  2.2155  1.0012 -0.7003
 5667TIP3    H241197   1.465   0.313   2.286 -1.1731 -0.7856  0.2436
 5668TIP3   OH241198   2.761   0.055   1.218 -0.1672 -0.4122  0.3055
 5668TIP3    H141199   2.787   0.091   1.303  0.7749  0.5834 -0.3769
 5668TIP3    H241200   2.839   0.062   1.163 -1.0699  0.0707 -0.9895
 5669TIP3   OH241201   3.647   6.943   1.453 -0.4759 -0.9680 -0.9254
 5669TIP3    H141202   3.587   7.010   1.486 -1.2400 -1.3650 -1.4941
 5669TIP3    H241203   3.649   6.956   1.359  1.2322 -0.2332 -0.8337
 5670TIP3   OH241204   0.880   4.652   0.759 -0.1352 -0.1227  0.0770
 5670TIP3    H141205   0.815   4.722   0.746  0.7686  0.7233 -0.0340
 5670TIP3    H241206   0.949   4.671   0.695  0.9467 -0.0902  1.2113
 5671TIP3   OH241207   6.165   4.711   2.447 -0.3321  0.0491  0.2625
 5671TIP3    H141208   6.148   4.769   2.372 -0.7310 -1.7372 -1.1061
 5671TIP3    H241209   6.157   4.767   2.523  2.5055  2.5649 -1.0556
 5672TIP3   OH241210   7.611   2.452   2.097  0.2447 -0.1305 -0.1834
 5672TIP3    H141211   7.676   2.515   2.063 -0.7406 -0.2147 -2.4357
 5672TIP3    H241212   7.659   2.370   2.103  0.4616 -0.1390 -1.6078
 5673TIP3   OH241213   6.409   1.897   0.656  0.2351  0.3326 -0.0818
 5673TIP3    H141214   6.489   1.847   0.672 -0.3636 -0.6543 -0.0927
 5673TIP3    H241215   6.419   1.976   0.709  0.7769 -0.2492  0.6962
 5674TIP3   OH241216   4.637   3.738   1.347  0.2658  0.0717 -0.9831
 5674TIP3    H141217   4.613   3.831   1.349  0.7851  0.2474  2.0905
 5674TIP3    H241218   4.615   3.706   1.435 -0.9933 -3.0561 -2.2950
 5675TIP3   OH241219   4.070   2.179   0.984  0.5217 -0.7859  0.1066
 5675TIP3    H141220   4.060   2.273   0.992 -0.2109 -0.9203  0.8699
 5675TIP3    H241221   4.013   2.142   1.052  0.9925 -1.7668 -0.0046
 5676TIP3   OH241222   1.031   1.803   3.480 -0.3327 -0.2353 -0.2514
 5676TIP3    H141223   0.937   1.792   3.491 -0.2187 -0.4257  0.5785
 5676TIP3    H241224   1.050   1.888   3.520 -0.4694  0.8837 -2.3762
 5677TIP3   OH241225   4.458   2.274   0.803  0.2113 -0.0968  0.2624
 5677TIP3    H141226   4.365   2.278   0.782 -0.0732 -0.4658  1.3650
 5677TIP3    H241227   4.493   2.207   0.745 -0.2140  0.0214 -0.1389
 5678TIP3   OH241228   6.718   1.589   0.926  0.0487  0.2351 -0.0283
 5678TIP3    H141229   6.785   1.535   0.970  1.0881  2.4487  1.3077
 5678TIP3    H241230   6.636   1.561   0.966  0.7076  0.4789  1.6215
 5679TIP3   OH241231   5.888   4.323   2.049  0.2744  0.6776 -0.5718
 5679TIP3    H141232   5.907   4.346   2.139  0.2947  0.3921 -0.5026
 5679TIP3    H241233   5.960   4.265   2.023 -0.7051 -0.7795 -0.1618
 5680TIP3   OH241234   6.884   1.174   2.806  0.9348  0.3180  0.0125
 5680TIP3    H141235   6.898   1.127   2.888 -0.9327  0.7475  0.6244
 5680TIP3    H241236   6.791   1.163   2.788  1.4490 -0.4471 -2.5067
 5681TIP3   OH241237   2.029   4.420   2.431  0.2630  0.2537 -0.0028
 5681TIP3    H141238   2.088   4.369   2.486 -0.6536 -1.0721 -0.2093
 5681TIP3    H241239   2.004   4.495   2.485  0.1329 -0.5174  1.0180
 5682TIP3   OH241240   4.317   0.938   0.973 -0.3695  0.2767 -0.1123
 5682TIP3    H141241   4.408   0.946   0.944 -0.4381 -1.5445 -0.9903
 5682TIP3    H241242   4.319   0.964   1.065  0.7223  1.7904 -0.5261
 5683TIP3   OH241243   3.766   6.565   1.928 -0.2359 -0.3865 -0.4261
 5683TIP3    H141244   3.844   6.522   1.892 -0.4030 -2.1514  1.2008
 5683TIP3    H241245   3.708   6.493   1.953 -0.7719  0.7660  1.8732
 5684TIP3   OH241246   1.472   4.970   2.487  0.6857  0.0928 -0.0074
 5684TIP3    H141247   1.453   5.032   2.417 -0.0907  0.4107  0.4757
 5684TIP3    H241248   1.415   4.996   2.560  3.7577  1.8767  1.9977
 5685TIP3   OH241249   7.525   4.292   2.441 -0.2185 -0.4909 -0.0650
 5685TIP3    H141250   7.613   4.324   2.461  0.2669 -0.5779 -1.9107
 5685TIP3    H241251   7.467   4.349   2.493  0.8405  0.6108 -0.0383
 5686TIP3   OH241252   0.155   5.399   1.813  0.4602 -0.3530  0.2549
 5686TIP3    H141253   0.175   5.434   1.899  0.4863  1.0162 -0.2907
 5686TIP3    H241254   0.241   5.384   1.773  0.5142  2.2468 -0.7802
 5687TIP3   OH241255   0.862   5.546   1.264 -0.1728 -0.5275 -0.9040
 5687TIP3    H141256   0.903   5.632   1.264 -0.2637 -0.4856 -0.2527
 5687TIP3    H241257   0.870   5.514   1.354 -0.0049 -1.2656 -1.1657
 5688TIP3   OH241258   2.473   1.061   0.722 -0.1475 -0.8597  0.2379
 5688TIP3    H141259   2.475   1.154   0.743 -0.6047 -1.3974  3.1323
 5688TIP3    H241260   2.441   1.057   0.632 -0.3441  1.7436  0.1176
 5689TIP3   OH241261   6.064   3.395   1.901  0.3139 -0.3658 -0.8799
 5689TIP3    H141262   6.106   3.425   1.821 -0.3982  0.2303 -1.0335
 5689TIP3    H241263   6.129   3.409   1.970  0.6712 -0.2354 -1.2455
 5690TIP3   OH241264   2.443   1.543   3.408 -0.1636  0.1755 -0.1206
 5690TIP3    H141265   2.383   1.472   3.384 -0.2479  0.5152 -0.9506
 5690TIP3    H241266   2.527   1.501   3.421  0.3156  0.1596 -2.7592
 5691TIP3   OH241267   6.482   4.461   1.658 -0.2225  0.2015  0.2473
 5691TIP3    H141268   6.435   4.508   1.590 -0.1110 -1.9364 -1.4037
 5691TIP3    H241269   6.558   4.515   1.677 -0.1514  0.7589 -1.4757
 5692TIP3   OH241270   7.345   6.174   1.452 -0.5385 -0.0559 -0.1395
 5692TIP3    H141271   7.358   6.119   1.375 -3.8981  0.3044 -1.0817
 5692TIP3    H241272   7.312   6.114   1.519  1.6238 -0.2167  0.8800
 5693TIP3   OH241273   2.298   7.656   2.578  0.1451 -0.8186 -0.1104
 5693TIP3    H141274   2.265   7.716   2.511  0.0552 -0.9600 -0.1931
 5693TIP3    H241275   2.328   7.579   2.529  2.3184  0.0352 -0.2271
 5694TIP3   OH241276   3.079   7.273   2.716  0.2685  0.1525  0.3312
 5694TIP3    H141277   3.088   7.307   2.627  0.2696 -0.2025  0.1946
 5694TIP3    H241278   3.157   7.219   2.729 -0.5349 -1.1298 -0.0512
 5695TIP3   OH241279   0.193   3.738   1.850 -0.3615  0.0868 -0.1812
 5695TIP3    H141280   0.278   3.761   1.814 -1.0432 -0.2077 -2.1346
 5695TIP3    H241281   0.192   3.642   1.850 -0.4880  0.0836  0.3790
 5696TIP3   OH241282   4.691   5.852   1.929  0.4785  0.2382  0.6620
 5696TIP3    H141283   4.610   5.844   1.880  0.9185 -0.7633  0.0634
 5696TIP3    H241284   4.714   5.945   1.923  1.2347 -0.0596 -2.2250
 5697TIP3   OH241285   6.134   2.632   2.343 -0.0401 -0.3339 -0.2327
 5697TIP3    H141286   6.111   2.603   2.255  0.5682 -2.3382  0.2153
 5697TIP3    H241287   6.058   2.610   2.397  0.3894 -1.0187  0.1006
 5698TIP3   OH241288   4.072   6.761   1.316  0.3773 -1.0613 -0.3434
 5698TIP3    H141289   4.023   6.797   1.390 -1.1822 -2.0059 -0.8654
 5698TIP3    H241290   4.144   6.823   1.303 -0.0803 -0.1605  1.1006
 5699TIP3   OH241291   6.374   3.370   3.029  0.1205  0.2790 -0.0674
 5699TIP3    H141292   6.445   3.422   3.064 -0.7975  0.2829  1.9296
 5699TIP3    H241293   6.367   3.295   3.088  0.2154 -1.1847 -1.8012
 5700TIP3   OH241294   2.688   1.202   2.199 -0.2073 -0.2407 -0.0822
 5700TIP3    H141295   2.662   1.211   2.107  0.5325 -3.2555 -0.6893
 5700TIP3    H241296   2.783   1.191   2.196 -0.1534 -0.1384  1.0781
 5701TIP3   OH241297   7.324   5.681   0.986 -0.5624  0.2125  0.1463
 5701TIP3    H141298   7.333   5.769   0.948 -1.1463  1.3499  2.4478
 5701TIP3    H241299   7.414   5.654   1.005 -0.2598 -0.3748 -1.8932
 5702TIP3   OH241300   7.121   3.528   1.114  0.3613 -0.6469  0.2835
 5702TIP3    H141301   7.069   3.536   1.194 -0.1689  1.9245 -0.2532
 5702TIP3    H241302   7.211   3.520   1.146  0.1075 -0.2276  1.1514
 5703TIP3   OH241303   0.722   1.640   3.015 -0.1263 -0.1693  0.1672
 5703TIP3    H141304   0.708   1.578   3.086 -0.7194 -0.3557 -0.1063
 5703TIP3    H241305   0.637   1.682   3.003 -0.2689 -0.7663 -1.0139
 5704TIP3   OH241306   3.576   6.584   3.111 -0.2110 -0.0717 -0.4869
 5704TIP3    H141307   3.577   6.496   3.150 -1.4957 -0.5230 -1.4073
 5704TIP3    H241308   3.639   6.579   3.040  0.1284 -0.0746 -0.1888
 5705TIP3   OH241309   4.752   0.033   2.324  0.4138  0.1301  0.0673
 5705TIP3    H141310   4.830   0.083   2.347 -0.9370  1.9483  0.9062
 5705TIP3    H241311   4.727  -0.011   2.405 -0.3136  0.8259  0.2287
 5706TIP3   OH241312   0.440   1.297   2.681  0.6610 -0.1902  0.3352
 5706TIP3    H141313   0.530   1.290   2.712  0.2163 -1.8113  1.3932
 5706TIP3    H241314   0.393   1.228   2.728 -0.8997 -0.1408 -1.0560
 5707TIP3   OH241315   5.697   1.117   1.661  0.0515  1.0409  0.2966
 5707TIP3    H141316   5.768   1.125   1.726  1.5752 -1.1334 -0.9670
 5707TIP3    H241317   5.699   1.200   1.613 -0.0347  2.0411  1.9332
 5708TIP3   OH241318   1.817   4.720   1.064  0.0178 -0.6940 -0.1747
 5708TIP3    H141319   1.739   4.678   1.101 -0.5948  0.9462  0.5078
 5708TIP3    H241320   1.875   4.732   1.140 -0.5688  1.2478  0.0035
 5709TIP3   OH241321   7.489   7.320   2.689  0.7443 -0.2722 -0.2223
 5709TIP3    H141322   7.459   7.304   2.600 -1.6713 -0.7156  0.5895
 5709TIP3    H241323   7.509   7.233   2.724 -1.6597 -0.5315  0.6899
 5710TIP3   OH241324   0.461   6.542   3.112 -0.9967 -0.3440 -0.4721
 5710TIP3    H141325   0.374   6.520   3.144 -0.1442 -2.2197  0.8041
 5710TIP3    H241326   0.455   6.534   3.017 -1.9533 -1.5410 -0.3336
 5711TIP3   OH241327   7.410   2.590   1.962 -0.0918 -0.0019 -0.2607
 5711TIP3    H141328   7.463   2.657   1.918 -0.9602 -0.1875 -1.6731
 5711TIP3    H241329   7.471   2.544   2.018  0.8349  1.0323 -0.3739
 5712TIP3   OH241330   5.848   4.501   2.586  0.2504 -0.4908 -0.6697
 5712TIP3    H141331   5.929   4.513   2.636  0.0492  1.7238 -0.7609
 5712TIP3    H241332   5.793   4.575   2.611 -0.7991 -0.6221 -2.4143
 5713TIP3   OH241333   6.838   3.577   3.257 -0.3746 -0.5195  0.1650
 5713TIP3    H141334   6.778   3.504   3.244  0.2991 -0.9160 -0.7775
 5713TIP3    H241335   6.895   3.576   3.181 -0.2510  0.9018  0.2053
 5714TIP3   OH241336   6.049   6.792   2.903  0.1283 -0.5285 -0.2655
 5714TIP3    H141337   6.062   6.747   2.987  0.0401 -1.0461 -0.5216
 5714TIP3    H241338   5.959   6.772   2.879  0.6389 -1.7924 -1.2795
 5715TIP3   OH241339   7.150   2.319   2.226 -0.0896  0.2773 -0.1469
 5715TIP3    H141340   7.228   2.281   2.268 -0.6135 -0.0224  0.5656
 5715TIP3    H241341   7.145   2.408   2.262 -0.7710 -0.1151  0.7605
 5716TIP3   OH241342   2.490   2.812   0.495 -0.4271 -0.2825  0.1392
 5716TIP3    H141343   2.497   2.879   0.427  1.6549  0.9099  1.4069
 5716TIP3    H241344   2.564   2.831   0.554 -1.0598 -2.3977  1.7062
 5717TIP3   OH241345   3.235   3.792   2.871  0.0317  0.4170  0.1598
 5717TIP3    H141346   3.281   3.714   2.841 -1.4853 -0.0058 -1.2279
 5717TIP3    H241347   3.185   3.762   2.948  0.1182  0.2395  0.1465
 5718TIP3   OH241348   6.817   4.119   2.429 -0.2300 -0.7620  0.6359
 5718TIP3    H141349   6.889   4.057   2.439 -0.9230 -1.4409  1.5511
 5718TIP3    H241350   6.854   4.204   2.454  0.5062 -0.9390  0.1594
 5719TIP3   OH241351   7.308   1.539   1.632  0.2519  0.1271  0.4177
 5719TIP3    H141352   7.273   1.614   1.583 -1.1711 -1.1762 -0.6758
 5719TIP3    H241353   7.371   1.577   1.693  0.7153  2.0389 -1.1427
 5720TIP3   OH241354   3.631   0.009   3.360 -0.2899  0.5749  0.2148
 5720TIP3    H141355   3.619  -0.085   3.343 -1.1403  0.6164  0.5533
 5720TIP3    H241356   3.723   0.017   3.385 -0.5166 -0.3742  1.4571
 5721TIP3   OH241357   3.565   7.294   0.945 -0.2278  0.3280  0.2493
 5721TIP3    H141358   3.576   7.199   0.937  1.0021  0.3926  0.9624
 5721TIP3    H241359   3.650   7.325   0.977 -0.6934  1.6446  0.2453
 5722TIP3   OH241360   1.651   6.555   2.135  0.4005 -0.5900  0.0288
 5722TIP3    H141361   1.718   6.624   2.136  0.4924 -0.6777  0.0615
 5722TIP3    H241362   1.702   6.473   2.134  0.2925 -0.6561 -0.0404
 5723TIP3   OH241363   2.623   2.003   2.600  0.0112 -0.0509 -0.1132
 5723TIP3    H141364   2.593   1.988   2.511  0.4824  0.3390 -0.3473
 5723TIP3    H241365   2.692   2.069   2.591  1.1843 -1.1738  0.3564
 5724TIP3   OH241366   5.672   0.482   2.395  0.2418  0.2880 -0.3003
 5724TIP3    H141367   5.631   0.400   2.424 -1.3075  1.4203  0.8950
 5724TIP3    H241368   5.725   0.457   2.320 -1.4511 -1.5677 -0.9793
 5725TIP3   OH241369   0.706   5.120   1.681  0.7478 -0.4805 -0.0179
 5725TIP3    H141370   0.781   5.107   1.739  0.3263  0.2422  0.7117
 5725TIP3    H241371   0.739   5.174   1.610  0.4361  1.7816  1.4535
 5726TIP3   OH241372   1.071   6.313   3.250  0.1363  0.1491 -0.3566
 5726TIP3    H141373   0.988   6.355   3.229 -1.3476 -2.6632 -0.6772
 5726TIP3    H241374   1.052   6.259   3.327  2.1188  0.5853  0.5244
 5727TIP3   OH241375   5.899   0.156   2.219  0.0992  0.4541  0.0375
 5727TIP3    H141376   5.987   0.132   2.247  0.6210  0.0443 -1.8212
 5727TIP3    H241377   5.845   0.079   2.238  0.1535  0.6513  1.0356
 5728TIP3   OH241378   2.661   6.315   0.874  0.1622 -0.7960  0.1920
 5728TIP3    H141379   2.629   6.350   0.957  1.7819 -1.3219  1.0985
 5728TIP3    H241380   2.723   6.382   0.843  0.2841 -1.0356 -0.0848
 5729TIP3   OH241381   1.803   0.839   0.842 -1.3208  0.1861  0.0013
 5729TIP3    H141382   1.824   0.928   0.870 -1.3891 -0.4114  2.1206
 5729TIP3    H241383   1.759   0.850   0.757 -0.1056  2.0434 -0.4422
 5730TIP3   OH241384   2.739   7.443   3.027  0.2018 -0.0947 -0.4904
 5730TIP3    H141385   2.754   7.535   3.045  0.0334 -0.0377 -0.6456
 5730TIP3    H241386   2.770   7.429   2.938  1.1938 -0.4209 -0.1149
 5731TIP3   OH241387   5.919   5.627   1.788 -0.4275  0.0834  0.4198
 5731TIP3    H141388   6.014   5.629   1.799 -0.1691  1.3885 -1.5034
 5731TIP3    H241389   5.900   5.538   1.757 -0.2245 -1.0306  3.2529
 5732TIP3   OH241390   0.132   3.907   2.191  0.3411 -0.7003  0.4017
 5732TIP3    H141391   0.039   3.924   2.174  0.1458 -1.7114  0.3751
 5732TIP3    H241392   0.178   3.974   2.140 -0.3499 -0.7583 -0.3247
 5733TIP3   OH241393   5.153   2.179   2.172 -0.2112  0.5218  0.3505
 5733TIP3    H141394   5.099   2.258   2.181  0.3833  1.0622 -0.6532
 5733TIP3    H241395   5.135   2.148   2.084 -0.1868 -0.2894  0.6241
 5734TIP3   OH241396   5.096   6.483   0.639 -0.2322 -0.3425  0.1538
 5734TIP3    H141397   5.094   6.540   0.716  1.4759 -0.8216  0.6071
 5734TIP3    H241398   5.170   6.423   0.656 -0.2668 -0.9111 -1.5379
 5735TIP3   OH241399   4.219   3.913   1.691 -0.0395 -0.7227  0.6438
 5735TIP3    H141400   4.261   3.829   1.711 -0.1380 -0.7421  0.7699
 5735TIP3    H241401   4.162   3.930   1.766  2.6275  1.2074  2.4564
 5736TIP3   OH241402   4.209   7.610   0.998 -0.0256 -0.0982 -0.4869
 5736TIP3    H141403   4.227   7.551   0.926  0.0941 -0.0655 -0.4835
 5736TIP3    H241404   4.227   7.697   0.963  0.8934 -0.1439 -0.1516
 5737TIP3   OH241405   6.842   3.771   0.693  0.3300  0.4150 -0.4127
 5737TIP3    H141406   6.756   3.806   0.670  0.0915  1.1770  1.4299
 5737TIP3    H241407   6.842   3.682   0.659 -1.6567  0.0061  0.5166
 5738TIP3   OH241408   3.222   6.981   1.429  0.2028  0.0092 -0.1484
 5738TIP3    H141409   3.238   6.911   1.366  0.9990 -0.8761  0.9908
 5738TIP3    H241410   3.258   6.948   1.511 -0.0686  1.4623  0.5924
 5739TIP3   OH241411   1.326   4.376   1.898 -0.0910  0.9733  0.5382
 5739TIP3    H141412   1.395   4.310   1.893 -0.7802  0.0739  2.0529
 5739TIP3    H241413   1.373   4.459   1.907  0.8480  0.3429  1.9779
 5740TIP3   OH241414   4.160   4.303   0.895  0.4066 -0.1888 -0.1720
 5740TIP3    H141415   4.238   4.317   0.841  0.1826 -0.7448 -0.6527
 5740TIP3    H241416   4.088   4.299   0.832  0.0567 -0.2011  0.2248
 5741TIP3   OH241417   6.270   3.089   3.086 -0.2168 -0.0777 -0.4713
 5741TIP3    H141418   6.181   3.073   3.054  0.1070 -0.5912 -1.1373
 5741TIP3    H241419   6.259   3.105   3.180 -1.1635  1.2475 -0.7803
 5742TIP3   OH241420   6.709   1.896   2.485 -0.4378 -0.2077 -0.2692
 5742TIP3    H141421   6.703   1.885   2.390 -1.3253 -0.5449 -0.1809
 5742TIP3    H241422   6.619   1.891   2.515 -0.1551 -0.1377  0.6022
 5743TIP3   OH241423   4.161   2.494   7.131 -0.4206 -0.3217 -0.0016
 5743TIP3    H141424   4.158   2.540   7.215  0.7730 -0.9739  0.4226
 5743TIP3    H241425   4.077   2.515   7.090 -0.6515  0.7600  0.9434
 5744TIP3   OH241426   0.662   6.003   3.284 -0.1970  0.2672 -0.3519
 5744TIP3    H141427   0.573   6.004   3.251  0.0607  0.8215 -1.0721
 5744TIP3    H241428   0.689   6.095   3.282 -0.3350  0.4074  1.9259
 5745TIP3   OH241429   7.234   1.051   3.009 -0.0609  0.3428  0.3009
 5745TIP3    H141430   7.261   1.143   3.013 -1.6503  0.9506 -1.3788
 5745TIP3    H241431   7.307   1.006   2.968  0.9650  0.7113  1.6471
 5746TIP3   OH241432   1.510   4.021   2.915  0.1140 -0.5050  0.1912
 5746TIP3    H141433   1.435   3.990   2.966 -0.9754  1.6287  0.0174
 5746TIP3    H241434   1.538   4.100   2.959 -0.9975  1.5439 -2.4666
 5747TIP3   OH241435   4.370   0.766   3.247 -0.5363 -0.2445  0.2756
 5747TIP3    H141436   4.281   0.752   3.279  0.0361 -0.6087  1.8292
 5747TIP3    H241437   4.378   0.862   3.242 -0.8337 -0.1948  0.6921
 5748TIP3   OH241438   4.843   0.955   2.004  0.0516  0.0474 -0.4640
 5748TIP3    H141439   4.781   1.000   1.945  0.5753  0.4943 -0.6860
 5748TIP3    H241440   4.816   0.864   2.001  0.1452  0.0351 -1.5199
 5749TIP3   OH241441   7.031   3.011   2.128  0.1737 -0.1967  0.3787
 5749TIP3    H141442   6.959   2.992   2.188 -1.1901 -0.5878 -1.2931
 5749TIP3    H241443   7.008   2.962   2.048  1.1817  1.4142 -0.9460
 5750TIP3   OH241444   3.190   0.013   2.248  0.0917 -0.1410 -0.4697
 5750TIP3    H141445   3.212   0.082   2.311 -1.1492 -0.4913  0.3934
 5750TIP3    H241446   3.247   0.029   2.174  0.0266  1.6594 -0.1784
 5751TIP3   OH241447   3.424   7.538   1.770 -0.4595 -0.1283  0.0720
 5751TIP3    H141448   3.434   7.624   1.811  1.5909  0.3020 -1.1520
 5751TIP3    H241449   3.509   7.495   1.783 -0.5725 -0.9200 -1.5428
 5752TIP3   OH241450   0.975   5.011   1.150  0.1620  0.1247  0.4238
 5752TIP3    H141451   0.903   5.003   1.087 -0.6463  0.0687  1.3158
 5752TIP3    H241452   0.952   5.088   1.202  0.6029 -0.0545  0.8908
 5753TIP3   OH241453   0.578   0.089   0.684  0.7435 -0.2740  0.6016
 5753TIP3    H141454   0.606   0.006   0.645  0.6606  0.6919 -1.6795
 5753TIP3    H241455   0.659   0.140   0.691  0.6270 -0.1300  0.8951
 5754TIP3   OH241456   5.165   1.535   3.327  0.2914  0.1088  0.1624
 5754TIP3    H141457   5.121   1.472   3.384  0.7130 -0.3501 -0.0180
 5754TIP3    H241458   5.096   1.596   3.301  0.2164  0.7326  1.6991
 5755TIP3   OH241459   5.308   4.799   2.115 -0.3249 -1.0135 -0.1206
 5755TIP3    H141460   5.287   4.820   2.024  1.1655  1.0359 -0.0673
 5755TIP3    H241461   5.367   4.724   2.109  0.8918 -0.0260 -0.9912
 5756TIP3   OH241462   4.325   2.070   2.612  0.2515 -0.2344 -0.1343
 5756TIP3    H141463   4.249   2.124   2.590  0.2301 -0.5872 -0.9466
 5756TIP3    H241464   4.348   2.096   2.701  1.0366  2.0476 -0.9378
 5757TIP3   OH241465   0.555   6.220   1.850  0.2441  0.2165 -0.4655
 5757TIP3    H141466   0.563   6.135   1.807 -0.2218  1.0784 -2.3631
 5757TIP3    H241467   0.638   6.232   1.896 -0.0229 -1.6265  0.6167
 5758TIP3   OH241468   5.704   1.674   0.408 -0.2467 -0.2141 -0.0185
 5758TIP3    H141469   5.668   1.603   0.461 -0.0619  0.4975  1.0959
 5758TIP3    H241470   5.631   1.735   0.396 -0.6551 -0.9730 -1.7274
 5759TIP3   OH241471   4.201   0.578   1.512 -0.8394  0.0327  0.2046
 5759TIP3    H141472   4.184   0.490   1.547  1.2089  0.0213  1.3221
 5759TIP3    H241473   4.234   0.562   1.424  0.1714 -0.4005  0.6424
 5760TIP3   OH241474   7.678   5.627   0.984 -0.2927 -0.0577  0.1575
 5760TIP3    H141475   7.720   5.547   0.952  0.6050 -0.3128  1.8688
 5760TIP3    H241476   7.686   5.689   0.911  1.3080 -0.7274 -0.2782
 5761TIP3   OH241477   0.004   2.946   1.474  0.8137 -0.2685 -0.5369
 5761TIP3    H141478  -0.049   2.883   1.523 -0.7922 -0.7777 -2.7302
 5761TIP3    H241479   0.069   2.977   1.536 -1.1753 -0.7087  1.9490
 5762TIP3   OH241480   3.363   2.884   3.604  0.7914  0.0514  0.4182
 5762TIP3    H141481   3.343   2.950   3.538  0.2597 -0.2345  0.2810
 5762TIP3    H241482   3.304   2.811   3.583  0.2355  0.1664  1.5357
 5763TIP3   OH241483   6.722   1.676   1.319 -0.1751  0.4365  0.4398
 5763TIP3    H141484   6.801   1.660   1.268  0.1145  0.7320  0.7888
 5763TIP3    H241485   6.747   1.743   1.383 -0.8294  0.8576  0.2697
 5764TIP3   OH241486   1.509   3.825   3.568 -0.1619  0.1404  0.3417
 5764TIP3    H141487   1.469   3.885   3.505  1.4993  1.0428  0.0774
 5764TIP3    H241488   1.474   3.739   3.544  0.7361  0.3789 -2.1643
 5765TIP3   OH241489   7.204   5.095   0.928  0.5960  0.0544  0.0845
 5765TIP3    H141490   7.238   5.006   0.934  0.7727  0.0033 -1.2895
 5765TIP3    H241491   7.282   5.151   0.923  0.4868  0.3030  1.0400
 5766TIP3   OH241492   5.793   5.298   1.411  0.0857  0.6994 -0.1979
 5766TIP3    H141493   5.708   5.265   1.380  0.1222  0.8983 -0.5127
 5766TIP3    H241494   5.815   5.369   1.350 -0.8289  2.5153  1.4376
 5767TIP3   OH241495   0.265   2.706   1.770 -0.2143 -0.5265 -0.2272
 5767TIP3    H141496   0.335   2.650   1.803 -0.9153 -1.1072  0.2951
 5767TIP3    H241497   0.264   2.780   1.831 -2.2354 -2.1193  1.8293
 5768TIP3   OH241498   6.115   0.881   1.256  0.3367 -0.2951  0.2396
 5768TIP3    H141499   6.147   0.971   1.252  1.4124 -0.7035 -0.9351
 5768TIP3    H241500   6.046   0.878   1.189  0.7857 -0.5112 -0.2222
 5769TIP3   OH241501   1.806   2.629   1.806  0.0492 -0.5648  0.6178
 5769TIP3    H141502   1.831   2.714   1.841 -0.8025 -0.6026  1.3580
 5769TIP3    H241503   1.743   2.594   1.870 -2.5678 -0.1087 -1.5163
 5770TIP3   OH241504   0.575   6.057   1.619  0.3016  0.3994 -0.0643
 5770TIP3    H141505   0.527   5.984   1.658 -0.1955  0.9776  0.4296
 5770TIP3    H241506   0.581   6.035   1.526 -0.0998 -0.1320  0.0300
 5771TIP3   OH241507   1.567   4.081   3.359 -0.1116 -0.2423  0.3277
 5771TIP3    H141508   1.492   4.115   3.311  0.5093  0.1910 -0.3412
 5771TIP3    H241509   1.619   4.158   3.383  0.3666 -0.5718  0.3766
 5772TIP3   OH241510   6.014   3.810   0.707 -0.6372 -0.3591  0.4511
 5772TIP3    H141511   5.977   3.752   0.773 -0.2531 -0.8253  0.2657
 5772TIP3    H241512   5.994   3.768   0.623  2.7023 -2.1930  0.3979
 5773TIP3   OH241513   3.820   0.747   0.790 -0.3751 -0.8115  0.5445
 5773TIP3    H141514   3.787   0.837   0.790 -1.3085 -1.1374 -0.1097
 5773TIP3    H241515   3.777   0.706   0.715 -0.1969 -1.8926  1.0180
 5774TIP3   OH241516   7.481   5.258   1.987 -0.5533 -0.1860  0.6951
 5774TIP3    H141517   7.523   5.246   1.902  0.2400 -0.1148  1.0655
 5774TIP3    H241518   7.552   5.245   2.050 -1.3366 -1.1891  1.3816
 5775TIP3   OH241519   6.114   2.487   0.942 -0.4080  0.8162 -0.1672
 5775TIP3    H141520   6.137   2.569   0.898  1.0613  1.7690  2.2043
 5775TIP3    H241521   6.049   2.512   1.007 -0.5258 -0.0487  0.0576
 5776TIP3   OH241522   3.903   4.070   3.338  0.7983  0.5267 -0.5717
 5776TIP3    H141523   3.898   3.975   3.335 -0.9793  0.4967  1.2449
 5776TIP3    H241524   3.871   4.100   3.253  0.0961 -0.4851 -0.6744
 5777TIP3   OH241525   6.315   4.826   1.249 -0.1412 -0.0783 -0.4049
 5777TIP3    H141526   6.331   4.829   1.344 -0.5439  0.8205 -0.3560
 5777TIP3    H241527   6.350   4.741   1.222 -0.1282 -0.4004  0.5700
 5778TIP3   OH241528   0.693   4.819   2.974  0.1128 -0.1419  0.1717
 5778TIP3    H141529   0.675   4.725   2.974 -0.5942 -0.0447 -1.8824
 5778TIP3    H241530   0.780   4.827   2.933  0.5119  0.0786  1.0282
 5779TIP3   OH241531   0.783   2.449   1.982  0.1868  0.4876  0.1301
 5779TIP3    H141532   0.840   2.422   1.910  1.2131  0.6612  0.8745
 5779TIP3    H241533   0.749   2.367   2.018 -0.1701  0.3924 -0.4076
 5780TIP3   OH241534   1.169   1.363   2.225  0.3229 -0.1499 -0.2611
 5780TIP3    H141535   1.102   1.301   2.194 -1.2944  1.1284  0.5286
 5780TIP3    H241536   1.178   1.343   2.318  1.1237 -0.3611 -0.3787
 5781TIP3   OH241537   0.208   5.237   2.490 -0.0321  0.1480 -0.3666
 5781TIP3    H141538   0.250   5.317   2.458  0.7300 -1.3960 -3.6615
 5781TIP3    H241539   0.244   5.223   2.577  1.6155  2.1210 -0.6777
 5782TIP3   OH241540   0.128   2.556   0.715 -0.2172 -0.0502 -0.2373
 5782TIP3    H141541   0.206   2.544   0.661 -1.5045 -1.3439 -1.9409
 5782TIP3    H241542   0.135   2.489   0.783 -0.1625 -0.6578 -0.8254
 5783TIP3   OH241543   0.044   0.277   2.413  0.2761 -0.4423  0.7427
 5783TIP3    H141544   0.099   0.340   2.366 -2.0702  1.4684  0.3650
 5783TIP3    H241545   0.025   0.319   2.497 -0.5676 -1.0414  0.8650
 5784TIP3   OH241546   2.556   0.613   1.317  0.1612 -0.3177 -0.4006
 5784TIP3    H141547   2.483   0.626   1.256 -0.8727  0.7918  1.0137
 5784TIP3    H241548   2.554   0.520   1.336 -1.0616 -0.2735 -0.2011
 5785TIP3   OH241549   3.504   3.282   1.968 -0.1172  0.3158  0.2881
 5785TIP3    H141550   3.520   3.211   1.906  0.6575  0.8174 -0.0972
 5785TIP3    H241551   3.585   3.291   2.017  0.4836  2.1435 -0.9308
 5786TIP3   OH241552   1.010   0.143   1.657 -0.3998 -0.1195  0.4943
 5786TIP3    H141553   1.035   0.162   1.748  0.6812 -1.2870  0.4653
 5786TIP3    H241554   0.917   0.167   1.653 -0.2759  0.6648  1.6944
 5787TIP3   OH241555   4.177   6.596   1.697  0.2676  0.9421 -0.0259
 5787TIP3    H141556   4.146   6.598   1.607  0.0596  2.2018  0.0629
 5787TIP3    H241557   4.270   6.574   1.691 -0.1562 -0.9496 -0.4041
 5788TIP3   OH241558   0.528   4.361   1.436  0.4612  0.1063  0.4574
 5788TIP3    H141559   0.473   4.434   1.405 -0.7812 -1.0202 -0.1175
 5788TIP3    H241560   0.576   4.397   1.510 -2.0043  0.8365  1.8272
 5789TIP3   OH241561   3.639   4.248   1.211  0.4309 -0.7905  0.5890
 5789TIP3    H141562   3.595   4.326   1.176  0.3036 -1.0183  0.2410
 5789TIP3    H241563   3.685   4.280   1.288  0.3408 -0.3770  0.4754
 5790TIP3   OH241564   4.535   3.869   0.605  0.4725 -0.8328 -0.2790
 5790TIP3    H141565   4.595   3.801   0.633  0.7078 -0.5333 -0.0480
 5790TIP3    H241566   4.517   3.849   0.513 -0.0752 -1.6462 -0.0003
 5791TIP3   OH241567   2.631   2.508   3.596 -0.7059  0.2467  0.6051
 5791TIP3    H141568   2.544   2.523   3.559 -0.2263  0.2235 -0.5953
 5791TIP3    H241569   2.685   2.483   3.521 -0.3703 -2.8695  1.7186
 5792TIP3   OH241570   5.588   1.099   2.593 -0.3960  0.2160  0.1783
 5792TIP3    H141571   5.525   1.129   2.658  0.2045 -0.0265  0.8850
 5792TIP3    H241572   5.640   1.032   2.638 -1.3299 -1.4985 -1.1741
 5793TIP3   OH241573   7.164   3.759   2.709  0.4159  0.1257  0.0122
 5793TIP3    H141574   7.170   3.810   2.790 -0.8812  0.2982  0.0286
 5793TIP3    H241575   7.134   3.673   2.738  3.2138 -0.9118  0.0558
 5794TIP3   OH241576   7.049   3.098   1.489 -0.3873  0.0320  0.3705
 5794TIP3    H141577   6.993   3.171   1.462 -0.3365 -0.5820 -1.5008
 5794TIP3    H241578   7.137   3.135   1.492 -0.3793  0.1038 -0.4477
 5795TIP3   OH241579   5.068   4.427   2.091  0.7735  0.3075  0.0901
 5795TIP3    H141580   5.054   4.332   2.098  1.2586  0.1192 -1.2089
 5795TIP3    H241581   5.085   4.442   1.998  0.5375  1.7035  0.2511
 5796TIP3   OH241582   2.371   4.893   2.611 -0.0786 -0.2750  0.3215
 5796TIP3    H141583   2.453   4.845   2.607 -0.1655 -0.5063  1.1252
 5796TIP3    H241584   2.392   4.973   2.660 -0.5703 -0.8771  1.5682
 5797TIP3   OH241585   6.671   4.642   1.557  0.4053  0.1664  0.2130
 5797TIP3    H141586   6.764   4.649   1.533  0.4697 -0.0024  0.4107
 5797TIP3    H241587   6.650   4.727   1.595  0.9116 -0.3143  1.6515
 5798TIP3   OH241588   4.007   3.429   3.255  0.0845 -0.8260 -0.2521
 5798TIP3    H141589   4.101   3.416   3.267 -0.1180 -0.7364  1.7181
 5798TIP3    H241590   3.965   3.362   3.309 -0.9913 -0.6365 -0.8078
 5799TIP3   OH241591   0.146   6.068   2.705 -0.5913 -0.7800 -0.3292
 5799TIP3    H141592   0.169   6.153   2.742 -0.5788 -1.2749  0.8547
 5799TIP3    H241593   0.216   6.048   2.643  0.4419 -0.7871  0.8116
 5800TIP3   OH241594   5.902   5.485   1.176  0.1657  0.3639  0.7897
 5800TIP3    H141595   5.875   5.576   1.187  1.7711  0.9424  0.2858
 5800TIP3    H241596   5.987   5.491   1.131  0.6205 -1.3435  1.3536
 5801TIP3   OH241597   6.316   3.866   2.552 -0.2573 -0.0137  0.2663
 5801TIP3    H141598   6.283   3.791   2.504 -0.5066  0.1444  0.1927
 5801TIP3    H241599   6.261   3.939   2.525  0.8736  0.4935 -0.7352
 5802TIP3   OH241600   6.554   2.426   0.527  0.3077 -0.1102  0.5855
 5802TIP3    H141601   6.646   2.442   0.546  0.2592  1.7211 -0.4812
 5802TIP3    H241602   6.549   2.333   0.507  2.1992  0.0316 -0.7582
 5803TIP3   OH241603   4.182   2.996   2.867  0.5456 -0.0159 -0.6259
 5803TIP3    H141604   4.197   2.994   2.773  1.3722  1.2580 -0.5334
 5803TIP3    H241605   4.159   3.086   2.887 -0.8967 -0.5329  0.2238
 5804TIP3   OH241606   6.314   5.744   1.596  0.3406  0.8068  0.4480
 5804TIP3    H141607   6.301   5.832   1.562 -1.3606  1.0284  1.5619
 5804TIP3    H241608   6.398   5.716   1.559 -0.5227  1.6703 -2.4398
 5805TIP3   OH241609   5.063   3.972   1.663 -0.7696  0.2195  0.5555
 5805TIP3    H141610   5.033   4.056   1.630  0.0875  1.2208  2.2031
 5805TIP3    H241611   5.139   3.993   1.717  0.6544 -1.8314 -0.5159
 5806TIP3   OH241612   2.211   3.414   3.018 -0.3992 -0.1719  0.2550
 5806TIP3    H141613   2.232   3.328   2.983  2.3311  0.2658  0.5739
 5806TIP3    H241614   2.265   3.475   2.967 -1.8879  1.3273  0.3649
 5807TIP3   OH241615   5.183   4.242   1.606 -0.2342 -0.4020  0.0328
 5807TIP3    H141616   5.199   4.280   1.519 -1.4853 -1.2637 -0.6112
 5807TIP3    H241617   5.269   4.211   1.634  0.3075  0.4385 -0.6161
 5808TIP3   OH241618   4.667   6.987   2.817  0.3896  0.0039 -0.1450
 5808TIP3    H141619   4.582   7.008   2.778 -0.0062  0.2853  0.8311
 5808TIP3    H241620   4.655   6.899   2.853  0.6440 -0.1238 -0.3751
 5809TIP3   OH241621   6.237   4.905   2.016  0.1167  0.0560 -0.0031
 5809TIP3    H141622   6.254   4.960   1.940 -0.1348 -1.2250 -1.0177
 5809TIP3    H241623   6.269   4.819   1.991 -0.1525 -0.4346  1.2748
 5810TIP3   OH241624   7.209   0.450   1.357  0.4310 -0.5505 -0.0662
 5810TIP3    H141625   7.239   0.396   1.429  3.7172 -1.0281 -1.6385
 5810TIP3    H241626   7.185   0.388   1.288  1.8721 -0.0857 -1.0185
 5811TIP3   OH241627   5.206   5.976   1.827 -0.0092  0.5944 -0.6927
 5811TIP3    H141628   5.257   5.895   1.828 -1.4765 -0.3531 -0.6473
 5811TIP3    H241629   5.116   5.948   1.812 -0.6450  2.1708 -0.0044
 5812TIP3   OH241630   2.404   7.094   1.763  0.2603  0.2503 -0.3122
 5812TIP3    H141631   2.320   7.095   1.809  0.2765  2.1616 -0.2617
 5812TIP3    H241632   2.467   7.129   1.827  0.9774 -0.4953 -0.5891
 5813TIP3   OH241633   6.805   0.862   1.046 -0.1590 -0.9939  0.6622
 5813TIP3    H141634   6.895   0.835   1.066  0.3068  0.7271  1.0040
 5813TIP3    H241635   6.771   0.791   0.991  1.6162 -1.3608 -0.0265
 5814TIP3   OH241636   2.159   3.811   2.015  0.2446  0.3678  0.3161
 5814TIP3    H141637   2.225   3.876   1.992  1.9162 -1.5741 -0.7112
 5814TIP3    H241638   2.185   3.780   2.101  1.8283 -1.5943 -0.7610
 5815TIP3   OH241639   2.060   1.907   1.904 -0.0511 -0.1647 -0.7310
 5815TIP3    H141640   2.044   1.945   1.818 -0.1911  1.4846 -0.0072
 5815TIP3    H241641   1.978   1.921   1.952  0.7006  0.8224  0.3160
 5816TIP3   OH241642   4.885   0.575   2.279 -0.4257 -0.2293 -0.0158
 5816TIP3    H141643   4.922   0.663   2.286 -0.5786 -0.2447  1.2522
 5816TIP3    H241644   4.869   0.563   2.185 -0.2753  1.0378 -0.2245
 5817TIP3   OH241645   3.760   6.209   2.424  0.4854 -0.2256 -0.0859
 5817TIP3    H141646   3.710   6.127   2.427 -0.1011  0.0708 -1.2810
 5817TIP3    H241647   3.823   6.201   2.495 -1.5289 -0.4177  1.7685
 5818TIP3   OH241648   5.331   5.588   3.519  0.4500  0.0513  0.4472
 5818TIP3    H141649   5.261   5.597   3.455  1.8079  1.1590 -0.9540
 5818TIP3    H241650   5.388   5.663   3.505  2.5504 -1.3787  0.7238
 5819TIP3   OH241651   0.256   6.891   1.454 -0.4060  0.2666  0.3772
 5819TIP3    H141652   0.191   6.947   1.410 -1.4740 -0.2495  1.2638
 5819TIP3    H241653   0.255   6.809   1.405 -0.7697  0.0921  0.6754
 5820TIP3   OH241654   6.858   4.456   3.148 -0.0818  0.9620 -0.0658
 5820TIP3    H141655   6.950   4.442   3.170 -0.3100 -0.7125 -0.0543
 5820TIP3    H241656   6.848   4.551   3.148  1.4535  1.1608  0.7049
 5821TIP3   OH241657   4.649   2.784   1.141  0.0544 -0.0109 -0.3241
 5821TIP3    H141658   4.712   2.833   1.194  0.4879 -0.5237 -0.3634
 5821TIP3    H241659   4.564   2.822   1.164  0.1983 -0.3993  0.9405
 5822TIP3   OH241660   1.239   0.693   0.583  0.5799  0.1611 -0.0236
 5822TIP3    H141661   1.268   0.760   0.645  0.9118  0.9420 -0.9837
 5822TIP3    H241662   1.145   0.704   0.576  0.7014  0.9281 -0.5987
 5823TIP3   OH241663   3.650   1.655   0.676  0.0601 -0.6651  0.4082
 5823TIP3    H141664   3.697   1.713   0.615 -0.8896 -1.3764 -1.0702
 5823TIP3    H241665   3.719   1.607   0.721  0.8093  0.3449  0.3698
 5824TIP3   OH241666   3.458   5.063   2.924 -0.2980 -0.1324  0.2554
 5824TIP3    H141667   3.495   5.011   2.996 -1.7676  1.2776  2.1247
 5824TIP3    H241668   3.511   5.143   2.924  0.6125 -0.6954 -1.2337
 5825TIP3   OH241669   2.398   0.057   3.295  0.0005 -0.5934 -0.5854
 5825TIP3    H141670   2.406  -0.026   3.249  1.6059  0.0405 -1.5449
 5825TIP3    H241671   2.464   0.113   3.254  2.0165 -0.1590  2.9189
 5826TIP3   OH241672   3.180   2.039   1.381  0.5390  0.1074  0.5587
 5826TIP3    H141673   3.104   1.983   1.392 -0.0614  0.8689  0.4399
 5826TIP3    H241674   3.227   2.034   1.463 -0.0152  0.1522  0.8844
 5827TIP3   OH241675   3.871   6.926   0.699 -0.1418 -0.0543 -0.5352
 5827TIP3    H141676   3.951   6.943   0.650 -0.5134 -2.3566 -2.0713
 5827TIP3    H241677   3.901   6.897   0.785  0.6547 -0.0598 -0.8105
 5828TIP3   OH241678   6.150   1.474   1.029 -0.2144  0.7175  0.4147
 5828TIP3    H141679   6.142   1.378   1.030  1.4716  0.5487  0.1364
 5828TIP3    H241680   6.068   1.504   0.991 -1.2383 -0.5468  1.4979
 5829TIP3   OH241681   4.567   5.053   3.066  0.2952 -0.2432  0.1551
 5829TIP3    H141682   4.511   5.017   3.135 -0.9156 -0.0386 -0.6744
 5829TIP3    H241683   4.625   4.982   3.042  0.8351 -0.2772  1.4687
 5830TIP3   OH241684   5.877   3.142   1.508  0.3168  0.0743  0.5702
 5830TIP3    H141685   5.851   3.222   1.553 -1.3569 -0.8575  1.3501
 5830TIP3    H241686   5.838   3.150   1.421  1.8843  0.9833 -0.0918
 5831TIP3   OH241687   6.770   6.430   3.566 -0.1114  0.3409  0.1988
 5831TIP3    H141688   6.766   6.525   3.574 -1.5799  0.3537 -0.4612
 5831TIP3    H241689   6.679   6.401   3.569  0.3804 -1.3265  3.3155
 5832TIP3   OH241690   1.466   6.701   1.503 -0.5445 -0.3010  0.1766
 5832TIP3    H141691   1.428   6.779   1.462  0.0571  0.0568  0.2842
 5832TIP3    H241692   1.561   6.714   1.496 -0.4302 -0.3638  1.4392
 5833TIP3   OH241693   0.901   6.286   2.620  0.1777 -0.4234 -0.2676
 5833TIP3    H141694   0.934   6.312   2.534  1.5272 -0.8137  0.1057
 5833TIP3    H241695   0.979   6.270   2.672 -0.6173 -0.2876  1.0170
 5834TIP3   OH241696   1.961   5.340   1.956  0.1226 -0.2509 -0.3325
 5834TIP3    H141697   1.974   5.350   2.050 -0.0973  0.9513 -0.4080
 5834TIP3    H241698   1.879   5.387   1.938  0.8492  0.6892 -1.3018
 5835TIP3   OH241699   2.059   1.241   1.916 -0.1083  0.3501 -0.1150
 5835TIP3    H141700   2.147   1.213   1.942 -0.7271 -1.2284  0.3995
 5835TIP3    H241701   2.056   1.334   1.937  0.6159 -0.0961  2.2585
 5836TIP3   OH241702   4.372   6.673   2.844  0.5196 -0.2549 -0.0971
 5836TIP3    H141703   4.318   6.725   2.903  0.9103 -0.6513  0.6368
 5836TIP3    H241704   4.401   6.734   2.776  0.6564  0.3937  0.5321
 5837TIP3   OH241705   6.810   6.885   0.602  0.2041 -0.0769  0.3123
 5837TIP3    H141706   6.815   6.860   0.695 -0.8435  4.2508  1.7427
 5837TIP3    H241707   6.901   6.882   0.572  0.7831 -0.1333  1.9432
 5838TIP3   OH241708   2.750   3.788   1.325  0.0703  0.4041 -0.1525
 5838TIP3    H141709   2.720   3.745   1.244  0.7513 -2.4675  1.0030
 5838TIP3    H241710   2.845   3.781   1.322  0.0898 -0.0674  1.0184
 5839TIP3   OH241711   6.048   1.337   0.664  0.1318 -0.6009 -0.2631
 5839TIP3    H141712   5.956   1.338   0.639 -0.2488 -1.0997  1.0207
 5839TIP3    H241713   6.092   1.390   0.598 -1.3167  0.9737 -0.0218
 5840TIP3   OH241714   6.931   0.453   0.916 -0.1050  0.4768  0.3688
 5840TIP3    H141715   6.912   0.441   1.009 -0.3524 -1.5596  0.0993
 5840TIP3    H241716   6.886   0.381   0.873 -1.3592  2.2922 -1.5499
 5841TIP3   OH241717   2.817   4.280   1.453  0.4898  0.3076  0.4047
 5841TIP3    H141718   2.909   4.253   1.452  0.1137 -1.0804 -0.2862
 5841TIP3    H241719   2.785   4.257   1.365 -0.5979  0.4458  0.7510
 5842TIP3   OH241720   0.975   2.309   3.661 -0.1204  0.5603 -0.1972
 5842TIP3    H141721   1.006   2.256   3.588 -0.2963 -1.6474  1.2387
 5842TIP3    H241722   0.880   2.312   3.651 -0.0081  2.1497 -1.2141
 5843TIP3   OH241723   7.610   5.201   2.244 -0.2412 -0.0053 -0.1142
 5843TIP3    H141724   7.536   5.252   2.277 -0.8457  0.1542 -1.6060
 5843TIP3    H241725   7.620   5.130   2.307 -1.1710  0.4054  0.5325
 5844TIP3   OH241726   7.019   0.196   2.747  0.1546 -0.5795 -0.0925
 5844TIP3    H141727   6.942   0.196   2.803 -0.5514 -2.1767 -0.9871
 5844TIP3    H241728   7.060   0.281   2.762 -2.8848  1.2127 -1.1167
 5845TIP3   OH241729   7.215   2.634   2.179 -0.5549 -0.2044  0.1990
 5845TIP3    H141730   7.269   2.669   2.250 -1.2312  1.4717 -0.0685
 5845TIP3    H241731   7.262   2.656   2.099 -0.2435 -1.2809  0.0753
 5846TIP3   OH241732   5.734   3.133   1.281  0.3023 -0.1700  0.2450
 5846TIP3    H141733   5.738   3.180   1.198 -0.8623  0.8558  0.7202
 5846TIP3    H241734   5.707   3.044   1.257  0.7842 -0.1156 -0.5312
 5847TIP3   OH241735   6.963   0.235   1.598 -0.2494 -0.3387 -0.0584
 5847TIP3    H141736   6.924   0.268   1.679 -1.3904 -2.9822  0.6034
 5847TIP3    H241737   6.939   0.299   1.531 -1.6254  0.5446  1.2150
 5848TIP3   OH241738   2.768   6.982   2.510  0.3076  0.5579 -0.4470
 5848TIP3    H141739   2.841   6.996   2.571 -1.4167  2.9485  1.2770
 5848TIP3    H241740   2.783   7.046   2.440 -0.5335  1.7391  0.4026
 5849TIP3   OH241741   7.626   1.713   0.514  0.3430 -0.1858  0.1466
 5849TIP3    H141742   7.564   1.643   0.492 -0.0629  0.4022 -0.6429
 5849TIP3    H241743   7.584   1.762   0.584  1.2227 -1.5041  1.6649
 5850TIP3   OH241744   4.287   6.343   0.695 -0.1970  0.3007  0.5243
 5850TIP3    H141745   4.267   6.348   0.601  0.9245  4.9436  0.2815
 5850TIP3    H241746   4.376   6.310   0.699  0.5298  2.0555 -0.2934
 5851TIP3   OH241747   0.272   2.983   1.862  0.4627  0.0693 -0.0795
 5851TIP3    H141748   0.356   2.938   1.861 -0.5965 -1.9993 -0.9304
 5851TIP3    H241749   0.256   3.008   1.771  0.1163  0.4161  0.0698
 5852TIP3   OH241750   6.389   2.282   1.044 -1.0418 -0.0442 -0.2014
 5852TIP3    H141751   6.318   2.308   1.103  0.0833  2.1840  0.2912
 5852TIP3    H241752   6.367   2.325   0.961 -0.7993 -0.1954 -0.3435
 5853TIP3   OH241753   0.410   1.875   2.660  0.2383 -0.2377 -0.8468
 5853TIP3    H141754   0.438   1.957   2.620 -0.0630 -0.2502 -1.0933
 5853TIP3    H241755   0.332   1.898   2.711  1.7381  0.1590  1.3757
 5854TIP3   OH241756   6.186   3.367   1.107 -0.2908 -0.3740 -0.2102
 5854TIP3    H141757   6.213   3.291   1.159 -0.4306  1.0297  2.0665
 5854TIP3    H241758   6.267   3.398   1.066  0.3216 -0.1797  1.0809
 5855TIP3   OH241759   4.360   2.748   1.374  0.2025 -0.1267 -0.0245
 5855TIP3    H141760   4.356   2.780   1.284  0.3930  0.9089  0.3216
 5855TIP3    H241761   4.273   2.768   1.410  0.5082  0.5372  0.3624
 5856TIP3   OH241762   1.430   5.676   0.666  0.0241 -0.5993 -0.5904
 5856TIP3    H141763   1.464   5.732   0.736  0.6951 -1.4387 -0.2253
 5856TIP3    H241764   1.339   5.704   0.655 -0.3263 -0.9529  1.1406
 5857TIP3   OH241765   4.072   4.777   1.372 -0.3887  0.2402  0.3551
 5857TIP3    H141766   4.097   4.685   1.365 -0.1406  0.3064  0.3820
 5857TIP3    H241767   4.076   4.795   1.466 -2.1575 -0.2061  0.5690
 5858TIP3   OH241768   2.057   7.207   2.980 -0.5446 -1.0253  0.1565
 5858TIP3    H141769   2.024   7.136   3.035  0.1360 -1.1909  0.3680
 5858TIP3    H241770   2.118   7.164   2.921  1.4142 -0.3799  1.5855
 5859TIP3   OH241771   2.893   0.997   2.730  0.3863  0.2046  0.2239
 5859TIP3    H141772   2.982   0.969   2.751  0.4974 -0.6431 -1.2038
 5859TIP3    H241773   2.893   1.002   2.634 -1.0880  0.2401  0.2149
 5860TIP3   OH241774   1.586   6.859   1.823  0.7726 -0.7100  0.1928
 5860TIP3    H141775   1.620   6.850   1.735 -1.1733 -0.7479 -0.6037
 5860TIP3    H241776   1.577   6.769   1.855  2.8324 -0.6696  1.0355
 5861TIP3   OH241777   7.157   1.734   3.021 -0.1495 -0.0081  0.4817
 5861TIP3    H141778   7.145   1.786   3.100  0.1493 -0.1225  0.6040
 5861TIP3    H241779   7.252   1.735   3.006 -0.0661 -1.0797  0.8705
 5862TIP3   OH241780   6.365   1.437   0.878  0.5345  0.2854 -0.4164
 5862TIP3    H141781   6.284   1.466   0.921  1.1663  0.4799  0.6991
 5862TIP3    H241782   6.343   1.352   0.841  0.2286 -0.4262  1.2791
 5863TIP3   OH241783   0.762   2.381   2.645  0.1265  0.3919 -0.2918
 5863TIP3    H141784   0.851   2.394   2.679 -0.0143 -0.4123  0.4062
 5863TIP3    H241785   0.773   2.316   2.576 -0.0016 -0.1905  0.2286
 5864TIP3   OH241786   4.627   3.904   1.924 -0.0144  0.2757  0.1857
 5864TIP3    H141787   4.675   3.895   2.007  0.0635 -1.1957  0.0155
 5864TIP3    H241788   4.649   3.991   1.893  2.2964 -0.2098  0.2937
 5865TIP3   OH241789   3.343   3.381   0.966 -0.1000 -0.4420 -0.0511
 5865TIP3    H141790   3.350   3.425   1.051  0.7476  0.4713 -0.5738
 5865TIP3    H241791   3.252   3.352   0.961 -0.8951  1.8623  0.0575
 5866TIP3   OH241792   3.597   5.443   1.619 -0.1519 -0.3777 -0.4968
 5866TIP3    H141793   3.569   5.531   1.642  0.7347 -0.0235 -0.7423
 5866TIP3    H241794   3.651   5.414   1.692 -1.2618 -1.1232  0.0525
 5867TIP3   OH241795   2.115   3.490   1.719  0.6726 -0.1498 -0.2914
 5867TIP3    H141796   2.095   3.431   1.792  0.6461 -1.6806 -1.4659
 5867TIP3    H241797   2.071   3.572   1.741 -0.5547 -1.0346  0.7326
 5868TIP3   OH241798   1.822   6.290   0.977 -0.9636  0.0232  0.1163
 5868TIP3    H141799   1.744   6.244   0.947 -1.1059  0.7022 -0.6041
 5868TIP3    H241800   1.787   6.368   1.021 -0.6973  1.2057 -1.6691
 5869TIP3   OH241801   7.474   6.740   2.009  0.8586  0.3952  0.5692
 5869TIP3    H141802   7.441   6.777   2.091  1.7743  1.6336  0.4049
 5869TIP3    H241803   7.497   6.816   1.956  2.5549 -0.4028  0.1125
 5870TIP3   OH241804   1.015   5.292   1.346 -0.0485  0.1745  0.1355
 5870TIP3    H141805   0.924   5.301   1.318  0.1582  0.8893 -0.3239
 5870TIP3    H241806   1.010   5.289   1.442 -0.7206 -1.9402  0.0781
 5871TIP3   OH241807   5.816   5.412   0.850 -0.1706  0.0212 -0.5265
 5871TIP3    H141808   5.907   5.434   0.827 -0.0729  1.6100  1.1151
 5871TIP3    H241809   5.807   5.440   0.941 -2.1559 -0.6223 -0.4802
 5872TIP3   OH241810   0.601   0.286   1.922 -0.3614 -0.7021  0.7434
 5872TIP3    H141811   0.663   0.213   1.918 -0.9661 -1.1717 -0.7331
 5872TIP3    H241812   0.552   0.272   2.004  0.2440 -1.3483  1.0007
 5873TIP3   OH241813   6.826   3.320   1.484  0.0734 -0.3181  0.4436
 5873TIP3    H141814   6.736   3.298   1.459  0.7738 -0.7105 -1.9101
 5873TIP3    H241815   6.821   3.331   1.579 -2.1244 -1.9608  0.6254
 5874TIP3   OH241816   4.033   1.405   1.327  0.3327  0.0571  0.0341
 5874TIP3    H141817   4.074   1.371   1.248 -0.5438 -1.0824  0.0434
 5874TIP3    H241818   4.103   1.453   1.372  0.7494  1.0628 -1.6006
 5875TIP3   OH241819   6.851   3.371   2.667 -0.0825 -0.2052 -0.2853
 5875TIP3    H141820   6.785   3.425   2.624 -0.4453 -1.3544 -1.2186
 5875TIP3    H241821   6.888   3.317   2.597  0.4738 -0.9578  0.5594
 5876TIP3   OH241822   4.873   0.031   1.854  0.5358  0.0734 -0.7429
 5876TIP3    H141823   4.835  -0.032   1.916 -0.7471  0.8489 -0.7102
 5876TIP3    H241824   4.901  -0.023   1.779  1.4754 -0.7857  0.1923
 5877TIP3   OH241825   1.043   0.255   0.428 -0.2416 -0.5093  0.2116
 5877TIP3    H141826   1.102   0.308   0.375  0.7193 -2.7822 -1.1360
 5877TIP3    H241827   1.082   0.257   0.515  0.9228 -0.6315 -0.2848
 5878TIP3   OH241828   5.977   2.340   0.537 -0.0639  0.4408 -0.2524
 5878TIP3    H141829   5.968   2.406   0.468 -0.0182 -0.1828 -0.8636
 5878TIP3    H241830   6.070   2.342   0.560 -0.2240  1.2211  0.3787
 5879TIP3   OH241831   2.531   4.654   1.040  0.2903 -0.0791  0.0133
 5879TIP3    H141832   2.438   4.630   1.046 -0.0957  1.5089  1.2036
 5879TIP3    H241833   2.535   4.742   1.078  2.3358 -0.2310  0.2495
 5880TIP3   OH241834   7.488   7.173   2.306  0.0080 -0.0995  0.7103
 5880TIP3    H141835   7.420   7.197   2.369 -1.1317 -1.2661 -0.0208
 5880TIP3    H241836   7.497   7.250   2.249 -0.5241  0.1572  0.9706
 5881TIP3   OH241837   5.069   2.452   1.438  0.0850  0.7215 -0.2847
 5881TIP3    H141838   5.034   2.537   1.466 -1.0917  0.1486  0.0461
 5881TIP3    H241839   5.062   2.453   1.343 -2.0655  0.1356 -0.1692
 5882TIP3   OH241840   3.621   2.125   3.573  0.1008  0.1448 -0.0775
 5882TIP3    H141841   3.715   2.142   3.578  0.1356  0.0665 -0.4110
 5882TIP3    H241842   3.597   2.091   3.659  0.2039  1.0126  0.3067
 5883TIP3   OH241843   5.035   4.482   1.416  0.0245 -0.8307  0.4845
 5883TIP3    H141844   5.104   4.523   1.469 -1.6191  0.5966  1.6228
 5883TIP3    H241845   5.060   4.500   1.326  1.3244 -0.6613  0.8555
 5884TIP3   OH241846   1.654   0.044   1.261  0.0653  0.5177  0.1255
 5884TIP3    H141847   1.631   0.020   1.351  0.1485  0.6613  0.1838
 5884TIP3    H241848   1.579   0.095   1.230  0.3710  1.1093  0.3642
 5885TIP3   OH241849   3.744   0.537   0.961 -0.0868  0.1394  0.0246
 5885TIP3    H141850   3.741   0.599   0.888 -0.4417 -1.5605 -1.4765
 5885TIP3    H241851   3.809   0.573   1.020 -0.3369  1.9826 -0.7343
 5886TIP3   OH241852   5.635   2.474   1.219 -0.3348 -0.1972  0.0553
 5886TIP3    H141853   5.646   2.558   1.176 -0.5053 -0.8065 -1.2441
 5886TIP3    H241854   5.562   2.433   1.173  0.0088 -1.2180  0.3859
 5887TIP3   OH241855   4.119   0.372   3.212  0.6455  0.5014 -0.3669
 5887TIP3    H141856   4.150   0.453   3.172  0.0447  0.6547 -0.5320
 5887TIP3    H241857   4.198   0.323   3.232  1.1192  1.7310  1.0149
 5888TIP3   OH241858   4.195   7.062   2.407 -0.2933  0.4477  0.0108
 5888TIP3    H141859   4.190   7.157   2.415 -0.6864  0.3640  0.9027
 5888TIP3    H241860   4.167   7.044   2.317  0.2448  1.2007 -0.3183
 5889TIP3   OH241861   6.999   2.777   2.899 -0.0211 -0.2349  0.1636
 5889TIP3    H141862   7.065   2.821   2.953  0.9610 -2.2335  0.6933
 5889TIP3    H241863   7.048   2.707   2.854 -1.7536 -1.8419  0.6561
 5890TIP3   OH241864   5.975   6.797   1.432  0.0865 -0.1846 -0.0037
 5890TIP3    H141865   5.907   6.743   1.391  0.8916 -0.8920 -0.4256
 5890TIP3    H241866   6.056   6.771   1.389  0.7499  0.0688  1.0617
 5891TIP3   OH241867   0.320   3.954   2.396  0.3585 -0.0003  0.6570
 5891TIP3    H141868   0.252   3.913   2.343  1.2222 -0.6373  0.0024
 5891TIP3    H241869   0.325   3.900   2.475  0.4602 -0.2732  0.4667
 5892TIP3   OH241870   1.070   7.182   3.527 -0.0010  0.7887  0.0868
 5892TIP3    H141871   1.038   7.253   3.582 -1.4613  0.6407 -0.5358
 5892TIP3    H241872   1.036   7.102   3.569 -0.5169  0.6310 -0.6120
 5893TIP3   OH241873   7.231   4.734   1.939 -0.2895  0.0873 -0.2949
 5893TIP3    H141874   7.300   4.682   1.981  0.0896 -0.2416 -1.3111
 5893TIP3    H241875   7.250   4.824   1.966 -0.7762 -0.2263  1.2332
 5894TIP3   OH241876   2.982   4.504   1.709  0.0573 -0.1692  0.6939
 5894TIP3    H141877   2.894   4.503   1.744  0.1631  0.7608  1.0200
 5894TIP3    H241878   3.010   4.412   1.710 -1.2545 -0.6216 -0.3468
 5895TIP3   OH241879   2.014   5.745   3.214 -0.2920 -0.5689  0.7050
 5895TIP3    H141880   2.009   5.651   3.232  0.9356 -0.7656  0.1494
 5895TIP3    H241881   1.923   5.774   3.210 -0.6849 -1.7373  0.8753
 5896TIP3   OH241882   2.727   4.276   1.716  0.0040  0.0044 -0.0116
 5896TIP3    H141883   2.755   4.261   1.625  1.6367 -0.5054  0.5355
 5896TIP3    H241884   2.708   4.189   1.749  2.2968 -0.1789  0.9806
 5897TIP3   OH241885   5.464   2.155   1.734 -0.6246  0.4142  0.5362
 5897TIP3    H141886   5.451   2.127   1.825  2.0891  0.3724  0.9824
 5897TIP3    H241887   5.400   2.103   1.684 -1.8387  0.0812  2.3319
 5898TIP3   OH241888   2.673   0.901   0.809  0.3896 -0.1263 -0.0836
 5898TIP3    H141889   2.610   0.952   0.758  1.5398  1.9071  0.4220
 5898TIP3    H241890   2.756   0.911   0.761  0.8932 -0.5009  0.6925
 5899TIP3   OH241891   0.001   3.847   1.368  0.7788 -0.1686  0.0421
 5899TIP3    H141892   0.041   3.849   1.281 -0.2728  1.2853 -0.4605
 5899TIP3    H241893   0.071   3.820   1.426  2.4096  1.8474 -0.8531
 5900TIP3   OH241894   3.727   0.525   2.433  0.0639 -0.0467 -0.6908
 5900TIP3    H141895   3.663   0.575   2.383  1.2417  0.4351 -1.7846
 5900TIP3    H241896   3.785   0.487   2.366 -0.4546 -2.4267  0.1274
 5901TIP3   OH241897   1.318   6.463   1.200 -0.2748 -0.3154 -0.0933
 5901TIP3    H141898   1.258   6.390   1.184 -0.7166  0.2059 -0.9053
 5901TIP3    H241899   1.368   6.470   1.119 -1.3705  1.3180 -0.6765
 5902TIP3   OH241900   3.998   0.881   1.539 -0.1039  0.5408 -0.1159
 5902TIP3    H141901   3.963   0.969   1.556  0.5372  0.4926  1.6569
 5902TIP3    H241902   4.053   0.862   1.615  0.7668 -0.9051 -1.0542
 5903TIP3   OH241903   7.042   5.915   1.987 -0.3564 -0.8831  0.1968
 5903TIP3    H141904   7.014   5.895   2.076  0.0797  1.0706  0.8294
 5903TIP3    H241905   6.961   5.913   1.936 -1.3555  1.9219  1.4606
 5904TIP3   OH241906   0.155   4.768   3.380  0.2158 -0.4496 -0.5013
 5904TIP3    H141907   0.065   4.802   3.380  0.2691 -0.3124 -0.8468
 5904TIP3    H241908   0.149   4.685   3.333  0.2041 -0.6225 -0.2015
 5905TIP3   OH241909   0.040   2.580   1.720  0.0026 -0.2073  0.1789
 5905TIP3    H141910   0.110   2.636   1.754  1.2232 -2.3433  1.4021
 5905TIP3    H241911   0.085   2.513   1.670 -1.1725 -1.5856  0.9113
 5906TIP3   OH241912   1.323   1.431   3.050 -0.1039  0.1216  0.0506
 5906TIP3    H141913   1.286   1.403   3.134  1.1398  0.7621  0.8380
 5906TIP3    H241914   1.252   1.420   2.988 -0.6077 -1.8037  0.9025
 5907TIP3   OH241915   2.588   2.975   1.592 -0.7833  0.0813 -0.3188
 5907TIP3    H141916   2.660   2.964   1.530 -2.4182 -0.6580 -2.1926
 5907TIP3    H241917   2.542   3.053   1.561 -1.1169  0.2174  0.5114
 5908TIP3   OH241918   1.577   4.595   1.142  0.0355 -0.4060 -0.1560
 5908TIP3    H141919   1.502   4.654   1.128  0.2053 -0.0300  0.4707
 5908TIP3    H241920   1.567   4.565   1.232  1.2243  0.4981  0.3008
 5909TIP3   OH241921   0.780   1.431   0.949  0.5255 -0.4434  0.1076
 5909TIP3    H141922   0.710   1.367   0.934 -0.6405  0.6173  0.8934
 5909TIP3    H241923   0.792   1.431   1.044  2.0639 -1.0736 -0.0671
 5910TIP3   OH241924   4.151   7.422   1.893 -0.1246 -0.2843  0.3838
 5910TIP3    H141925   4.231   7.408   1.843  0.0074  1.0862  0.1652
 5910TIP3    H241926   4.182   7.436   1.983 -0.1174  0.1462  0.3169
 5911TIP3   OH241927   1.817   0.076   2.305 -0.5491 -0.1937 -0.2296
 5911TIP3    H141928   1.872   0.152   2.283  0.5236 -0.5564  1.0771
 5911TIP3    H241929   1.868   0.001   2.275 -1.6796 -0.4340 -1.6651
 5912TIP3   OH241930   7.128   2.830   1.544  0.2934 -0.6313  0.2569
 5912TIP3    H141931   7.105   2.915   1.506 -1.7579 -1.0892  0.3305
 5912TIP3    H241932   7.048   2.802   1.589  1.1347 -2.3116  0.7770
 5913TIP3   OH241933   4.047   2.924   1.136 -0.2640  0.0203  0.0751
 5913TIP3    H141934   4.067   2.831   1.135 -2.9837 -0.6279 -0.5815
 5913TIP3    H241935   3.992   2.937   1.213 -0.3045  1.0165 -0.1003
 5914TIP3   OH241936   5.296   7.101   1.130 -0.1650 -0.6501 -0.3196
 5914TIP3    H141937   5.288   7.008   1.152  0.0093  0.0769  3.5335
 5914TIP3    H241938   5.205   7.131   1.121 -0.2366 -1.0787 -1.0965
 5915TIP3   OH241939   7.161   0.715   2.890  0.0261 -0.9642 -0.0213
 5915TIP3    H141940   7.114   0.698   2.972 -1.0888 -2.1475 -0.8735
 5915TIP3    H241941   7.123   0.797   2.857 -0.9895 -1.5499 -0.3528
 5916TIP3   OH241942   0.623   2.857   1.465  0.0832  0.5641 -0.0013
 5916TIP3    H141943   0.610   2.765   1.490 -1.5082  0.6770 -0.3307
 5916TIP3    H241944   0.675   2.894   1.537 -1.9962  0.1934  1.8036
 5917TIP3   OH241945   2.569   6.251   1.261 -0.2093 -0.0665  0.1051
 5917TIP3    H141946   2.665   6.250   1.269 -0.3385 -0.2505  1.9702
 5917TIP3    H241947   2.548   6.343   1.240  0.3352  0.0810  0.1797
 5918TIP3   OH241948   0.371   1.426   1.818 -0.6057  0.4658 -0.2276
 5918TIP3    H141949   0.311   1.373   1.767  2.6511 -0.9971 -2.9481
 5918TIP3    H241950   0.371   1.512   1.774 -2.1708  1.1794  1.0891
 5919TIP3   OH241951   3.550   6.646   2.277 -0.8682 -0.1521  0.5381
 5919TIP3    H141952   3.599   6.704   2.218 -0.8238  0.1780  0.8923
 5919TIP3    H241953   3.618   6.600   2.326 -0.9053  0.2038  0.9314
 5920TIP3   OH241954   2.747   6.995   1.793  0.1259  0.0792 -0.1926
 5920TIP3    H141955   2.682   6.949   1.739  0.6081  0.1026 -0.8077
 5920TIP3    H241956   2.812   7.027   1.730 -0.3898  1.9421  0.1589
 5921TIP3   OH241957   1.996   4.726   2.501  0.3627  0.0528  0.0580
 5921TIP3    H141958   2.061   4.780   2.456  2.1566 -0.9552  1.2873
 5921TIP3    H241959   1.911   4.762   2.475  1.4467  2.6561 -0.0995
 5922TIP3   OH241960   2.081   5.165   2.791  0.4380 -0.7801  0.4057
 5922TIP3    H141961   1.996   5.136   2.759  0.0029  0.9608 -0.1300
 5922TIP3    H241962   2.132   5.179   2.711  0.2437  0.9737  0.5581
 5923TIP3   OH241963   6.672   7.069   0.939 -0.3331 -0.4441 -0.2914
 5923TIP3    H141964   6.763   7.048   0.920 -0.3933 -0.6493 -0.3524
 5923TIP3    H241965   6.624   6.989   0.919 -0.6994  0.0729 -1.6185
 5924TIP3   OH241966   2.168   4.922   0.889  0.3783 -0.2102 -0.1737
 5924TIP3    H141967   2.119   4.847   0.922 -0.6224  0.1364 -0.8175
 5924TIP3    H241968   2.203   4.894   0.805  0.2899 -0.0651 -0.2592
 5925TIP3   OH241969   2.599   5.737   0.776 -0.5219 -0.2670 -0.4766
 5925TIP3    H141970   2.635   5.824   0.792 -0.2264 -0.5180  0.2485
 5925TIP3    H241971   2.611   5.690   0.859 -0.9293 -0.9100 -0.7735
 5926TIP3   OH241972   2.024   0.493   1.101  0.5091 -0.7554 -0.0157
 5926TIP3    H141973   2.113   0.513   1.129  0.9470 -1.9198 -0.5029
 5926TIP3    H241974   2.017   0.531   1.014 -0.2279  1.2375  0.8633
 5927TIP3   OH241975   4.337   1.842   2.792  0.3252 -0.2204 -0.0179
 5927TIP3    H141976   4.429   1.857   2.771  0.2451  2.3037  1.0002
 5927TIP3    H241977   4.288   1.884   2.721 -0.0898 -2.1141 -0.8985
 5928TIP3   OH241978   2.382   2.560   3.467 -0.7439  0.0092  0.0462
 5928TIP3    H141979   2.398   2.635   3.410 -0.8273  1.6372  2.0644
 5928TIP3    H241980   2.295   2.530   3.444 -1.5521  1.8477  0.5714
 5929TIP3   OH241981   6.491   7.271   0.877  0.3920  0.4109  0.0950
 5929TIP3    H141982   6.546   7.197   0.903  0.4809  0.3012 -0.3981
 5929TIP3    H241983   6.468   7.253   0.786  0.5516  1.0775 -0.0839
 5930TIP3   OH241984   2.642   5.182   2.091 -0.5646  0.1135 -0.2191
 5930TIP3    H141985   2.590   5.149   2.164 -0.7134 -0.0225 -0.3859
 5930TIP3    H241986   2.609   5.271   2.076  0.6498  0.8164  1.0152
 5931TIP3   OH241987   6.466   1.421   2.246 -0.1744 -0.2585 -0.2459
 5931TIP3    H141988   6.398   1.480   2.277 -0.0714 -0.0795 -0.3639
 5931TIP3    H241989   6.497   1.460   2.164  0.8731  0.2793  0.3828
 5932TIP3   OH241990   3.872   3.169   1.566 -0.0781  0.4013 -0.2602
 5932TIP3    H141991   3.810   3.122   1.511  1.5368 -2.1840  0.0120
 5932TIP3    H241992   3.818   3.204   1.638 -1.3154 -1.4640 -0.2111
 5933TIP3   OH241993   1.002   6.618   1.826  0.2197 -0.5773 -0.0304
 5933TIP3    H141994   1.094   6.629   1.801  0.2499  0.2439  0.4256
 5933TIP3    H241995   0.953   6.653   1.752  0.3078  3.8438  1.7535
 5934TIP3   OH241996   6.390   6.608   2.852  0.0665 -0.3001  0.5649
 5934TIP3    H141997   6.464   6.552   2.876 -0.5926 -1.4460  0.0525
 5934TIP3    H241998   6.320   6.546   2.830 -0.3413  0.7076 -1.1623
 5935TIP3   OH241999   4.299   1.911   3.134 -0.2717  0.1155 -0.0261
 5935TIP3    H142000   4.389   1.894   3.161 -0.4285 -1.1305 -0.2212
 5935TIP3    H242001   4.279   1.998   3.169  0.6874 -0.0022  0.8506
 5936TIP3   OH242002   1.569   5.360   1.484 -0.1066  0.0498 -0.4967
 5936TIP3    H142003   1.539   5.309   1.409 -0.2807 -0.9031  0.2108
 5936TIP3    H242004   1.492   5.370   1.539  0.1664  0.1993 -0.1357
 5937TIP3   OH242005   0.351   0.604   1.855 -0.2974  0.0635  0.1906
 5937TIP3    H142006   0.434   0.596   1.903 -0.4790  0.5963  0.6001
 5937TIP3    H242007   0.378   0.618   1.764  0.1055  1.5928  0.5117
 5938TIP3   OH242008   3.764   5.298   3.350  0.0820  0.9584 -0.2265
 5938TIP3    H142009   3.819   5.276   3.425  0.0802  0.9618 -0.2243
 5938TIP3    H242010   3.720   5.216   3.328  0.3761  0.8657 -0.4689
 5939TIP3   OH242011   6.382   3.809   2.808 -0.6073 -0.8093 -0.0757
 5939TIP3    H142012   6.430   3.727   2.807 -1.8791 -1.5722 -0.2779
 5939TIP3    H242013   6.353   3.821   2.717  0.0800  0.1781 -0.1764
 5940TIP3   OH242014   5.807   2.770   2.041  0.3562  0.9993 -0.7346
 5940TIP3    H142015   5.872   2.708   2.074 -1.2680 -0.0092  0.6881
 5940TIP3    H242016   5.784   2.823   2.118  0.3553  2.1649 -1.5106
 5941TIP3   OH242017   3.106   5.869   0.973 -0.2194 -0.3168 -0.2348
 5941TIP3    H142018   3.153   5.933   0.919 -1.8135  1.4969  0.4331
 5941TIP3    H242019   3.024   5.853   0.925 -1.1683  0.4766  1.0680
 5942TIP3   OH242020   4.574   5.548   1.785 -0.4695  0.3522 -0.2855
 5942TIP3    H142021   4.488   5.518   1.755  0.7703 -3.8316 -0.2470
 5942TIP3    H242022   4.592   5.495   1.862  1.9044  1.6170  0.1209
 5943TIP3   OH242023   6.618   6.187   2.895 -0.2672 -0.3907 -0.0239
 5943TIP3    H142024   6.608   6.267   2.946  1.7086 -0.0109 -0.1485
 5943TIP3    H242025   6.565   6.201   2.817 -0.7536  0.3559  0.4299
 5944TIP3   OH242026   2.807   0.366   1.526 -0.0167 -0.0853  0.1243
 5944TIP3    H142027   2.854   0.286   1.500  1.2066 -0.2309  2.4937
 5944TIP3    H242028   2.774   0.348   1.614  1.1126  2.2879  1.1406
 5945TIP3   OH242029   4.198   3.661   1.012  0.2112 -0.1588 -0.3818
 5945TIP3    H142030   4.290   3.646   1.034  0.7128  1.0017 -1.5406
 5945TIP3    H242031   4.199   3.744   0.964 -1.4935  0.0300 -0.1295
 5946TIP3   OH242032   7.671   2.821   2.701 -0.2715 -0.4203 -0.5485
 5946TIP3    H142033   7.645   2.888   2.637 -1.8123  0.0329  0.4939
 5946TIP3    H242034   7.765   2.831   2.709 -0.1733  0.1160 -2.0766
 5947TIP3   OH242035   7.649   0.549   3.144  0.2757 -0.1853  0.6648
 5947TIP3    H142036   7.691   0.493   3.209  0.7073 -1.1382 -0.4152
 5947TIP3    H242037   7.721   0.580   3.089 -0.0419  0.9025  0.8337
 5948TIP3   OH242038   7.664   1.343   2.934  0.0899 -0.3848  0.3268
 5948TIP3    H142039   7.603   1.385   2.995  1.2374  1.5606  0.2325
 5948TIP3    H242040   7.687   1.260   2.976 -1.0597 -0.2177  1.3236
 5949TIP3   OH242041   2.233   4.018   0.787 -0.4330  0.1061 -0.4117
 5949TIP3    H142042   2.139   4.027   0.769 -0.1763  0.2821 -1.7459
 5949TIP3    H242043   2.273   4.091   0.741  0.4236 -0.3408 -0.3856
 5950TIP3   OH242044   1.814   0.723   2.584  0.0549 -0.6638 -0.3977
 5950TIP3    H142045   1.761   0.677   2.649  0.2934  1.8935  1.7712
 5950TIP3    H242046   1.904   0.718   2.617  0.4049 -0.4992 -1.2725
 5951TIP3   OH242047   3.561   1.416   1.429  0.0109 -0.2241 -0.3996
 5951TIP3    H142048   3.532   1.388   1.342 -1.2117 -1.1400  0.2780
 5951TIP3    H242049   3.481   1.434   1.477  0.6669  0.1523  0.5942
 5952TIP3   OH242050   0.254   1.752   3.125 -0.8837  0.0874 -0.0587
 5952TIP3    H142051   0.165   1.773   3.097 -1.8128 -0.6351  2.1220
 5952TIP3    H242052   0.263   1.797   3.210  0.9037  0.2856 -0.3257
 5953TIP3   OH242053   1.405   6.998   1.978  0.8302 -0.2564  0.0710
 5953TIP3    H142054   1.329   6.951   2.013  0.5632 -0.9200 -1.3125
 5953TIP3    H242055   1.451   6.933   1.925  2.0986  0.2772  0.4754
 5954TIP3   OH242056   2.358   5.668   2.562  0.1374 -0.0402 -0.1684
 5954TIP3    H142057   2.307   5.588   2.546  0.5387 -0.1340 -1.0478
 5954TIP3    H242058   2.299   5.739   2.536 -0.2495 -0.0387  0.6927
 5955TIP3   OH242059   5.497   2.796   1.657  0.1440  0.3130  0.5796
 5955TIP3    H142060   5.570   2.736   1.672  1.4280  1.5079 -0.5399
 5955TIP3    H242061   5.451   2.759   1.582 -0.0124 -0.0840  0.8657
 5956TIP3   OH242062   3.160   7.537   7.767 -0.3594 -0.0289  0.1306
 5956TIP3    H142063   3.164   7.534   7.862  0.7389 -0.1919  0.0906
 5956TIP3    H242064   3.196   7.622   7.744 -1.5944  0.4513 -0.1106
 5957TIP3   OH242065   0.241   2.005   1.260  0.4753  0.0495  0.2922
 5957TIP3    H142066   0.206   2.051   1.336 -1.3029 -1.2932  0.3561
 5957TIP3    H242067   0.302   1.940   1.296 -0.5372 -0.7402  0.6296
 5958TIP3   OH242068   1.222   6.321   2.838 -0.4143  0.0277 -0.5843
 5958TIP3    H142069   1.291   6.357   2.782 -0.4520 -0.4115 -0.9174
 5958TIP3    H242070   1.166   6.396   2.858  0.4657  0.5206  0.1613
 5959TIP3   OH242071   0.245   1.044   1.014 -0.0835  0.2480 -0.6793
 5959TIP3    H142072   0.303   1.109   0.974  0.9816 -0.3942 -0.2373
 5959TIP3    H242073   0.166   1.047   0.961  0.4033  1.0538 -1.4019
 5960TIP3   OH242074   1.706   3.179   0.644 -0.1862 -0.3081 -0.1251
 5960TIP3    H142075   1.692   3.128   0.565  2.7450  0.2078 -1.1083
 5960TIP3    H242076   1.778   3.134   0.689  0.8099  1.5291  0.2176
 5961TIP3   OH242077   3.980   2.196   1.927  0.3579 -0.0498 -0.1268
 5961TIP3    H142078   4.004   2.289   1.932  0.8017 -0.1944  0.6768
 5961TIP3    H242079   4.020   2.157   2.005 -0.0278 -0.8727 -0.3300
 5962TIP3   OH242080   3.557   1.090   3.280 -0.1099 -0.7198 -0.6254
 5962TIP3    H142081   3.464   1.115   3.277  0.4161  1.3413 -2.2020
 5962TIP3    H242082   3.556   0.994   3.282 -2.2722 -0.7310  0.4171
 5963TIP3   OH242083   1.822   4.013   1.520 -0.0589 -0.6360  0.2661
 5963TIP3    H142084   1.773   3.955   1.463 -0.0567 -2.1983  1.7827
 5963TIP3    H242085   1.789   3.995   1.608  0.0668  1.5523  0.8207
 5964TIP3   OH242086   0.827   5.527   3.366 -0.2121  0.7441  0.5736
 5964TIP3    H142087   0.867   5.451   3.324  0.5434  1.7146 -0.4979
 5964TIP3    H242088   0.831   5.597   3.301 -0.7652  1.7637  1.5793
 5965TIP3   OH242089   5.896   1.287   0.918  0.2643  0.4295 -0.4135
 5965TIP3    H142090   5.934   1.350   0.857 -0.6698 -0.4196 -1.9367
 5965TIP3    H242091   5.857   1.220   0.862  0.0111 -0.7767  1.1410
 5966TIP3   OH242092   6.138   5.125   0.652  0.0999  0.6012  0.0766
 5966TIP3    H142093   6.118   5.032   0.666  0.9486  0.2238 -1.0845
 5966TIP3    H242094   6.073   5.154   0.589 -0.3902  0.9112  0.7073
 5967TIP3   OH242095   1.481   1.630   2.929 -0.3260  0.3256  0.1825
 5967TIP3    H142096   1.428   1.574   2.986 -0.3239  0.9243  0.7853
 5967TIP3    H242097   1.560   1.649   2.981  1.3966 -2.0190 -1.3516
 5968TIP3   OH242098   3.026   0.037   1.099  0.0765  0.2531  0.5751
 5968TIP3    H142099   3.038   0.121   1.056  0.5679  0.7072  1.5649
 5968TIP3    H242100   3.074  -0.025   1.044  3.0411  1.2464  1.8307
 5969TIP3   OH242101   0.262   1.330   0.417  0.2721  0.1769  0.4366
 5969TIP3    H142102   0.353   1.301   0.408  0.3301  0.0070  1.5261
 5969TIP3    H242103   0.265   1.423   0.396  0.4268 -0.1354 -1.0395
 5970TIP3   OH242104   4.354   2.178   2.058  0.1710 -0.4067  0.0467
 5970TIP3    H142105   4.437   2.223   2.076  0.6898 -1.7745  1.3049
 5970TIP3    H242106   4.377   2.110   1.994 -0.2107 -0.1116 -0.4102
 5971TIP3   OH242107   4.499   5.601   3.023  0.1255  0.3606  0.1147
 5971TIP3    H142108   4.561   5.653   3.075  2.0964  1.2226 -2.8187
 5971TIP3    H242109   4.538   5.514   3.020 -0.1942  0.2076  0.4109
 5972TIP3   OH242110   5.670   0.104   1.790  0.1670 -0.1638  0.7694
 5972TIP3    H142111   5.656   0.197   1.808 -1.0566  0.2275 -1.7808
 5972TIP3    H242112   5.756   0.100   1.750 -0.5117  0.1745 -0.7790
 5973TIP3   OH242113   2.187   4.949   1.170  0.6272  0.1303 -0.4900
 5973TIP3    H142114   2.277   4.917   1.180  0.8541  0.8299 -0.2203
 5973TIP3    H242115   2.183   4.982   1.081  0.1365 -1.4015 -1.0636
 5974TIP3   OH242116   1.297   5.111   2.994  0.8151 -0.0766  0.1383
 5974TIP3    H142117   1.373   5.135   2.940  0.6582  0.7496  0.2682
 5974TIP3    H242118   1.266   5.029   2.957  1.0355  0.2073 -0.6974
 5975TIP3   OH242119   0.417   7.120   1.077  0.3303 -0.3168  0.2533
 5975TIP3    H142120   0.443   7.131   0.985  1.4879  0.1704  0.6182
 5975TIP3    H242121   0.389   7.029   1.083  1.1239 -0.6188 -0.3824
 5976TIP3   OH242122   0.211   3.320   0.932 -0.5300  0.0786 -0.0571
 5976TIP3    H142123   0.134   3.264   0.928  1.3362 -2.8508  1.3305
 5976TIP3    H242124   0.279   3.271   0.886  0.8644  1.9436 -0.1071
 5977TIP3   OH242125   4.085   6.021   2.720 -0.1721  0.3476 -0.3868
 5977TIP3    H142126   4.141   6.036   2.796 -0.5628  0.6708 -0.1573
 5977TIP3    H242127   4.146   6.015   2.646  0.1022  2.6712 -0.4543
 5978TIP3   OH242128   5.654   5.715   1.646 -0.1146 -0.9065 -0.3811
 5978TIP3    H142129   5.666   5.664   1.725  0.5357  0.2616  0.3011
 5978TIP3    H242130   5.637   5.804   1.677 -1.2758 -0.6893 -1.5235
 5979TIP3   OH242131   0.514   2.024   0.693  0.0848  0.2748 -0.0011
 5979TIP3    H142132   0.539   2.116   0.703 -1.4970  0.5845  1.6308
 5979TIP3    H242133   0.434   2.027   0.641  1.3588 -0.4237 -2.1125
 5980TIP3   OH242134   7.115   1.650   2.063 -0.4601 -0.0363 -0.0193
 5980TIP3    H142135   7.031   1.653   2.108 -0.5724  0.2917 -0.2437
 5980TIP3    H242136   7.109   1.718   1.995  0.0818  0.1781  0.1369
 5981TIP3   OH242137   2.332   0.008   0.656 -0.5480 -0.0853 -0.4472
 5981TIP3    H142138   2.343   0.091   0.608 -0.2192 -0.2114 -0.5889
 5981TIP3    H242139   2.414  -0.004   0.703 -0.7147 -0.1731 -0.1759
 5982TIP3   OH242140   3.450   5.933   0.696 -0.4103 -0.2661 -0.7143
 5982TIP3    H142141   3.378   5.995   0.685  0.0641  0.5536  0.5023
 5982TIP3    H242142   3.521   5.986   0.734  1.2820 -0.7645 -2.9764
 5983TIP3   OH242143   3.340   2.718   1.439  0.5305  0.1334  0.4005
 5983TIP3    H142144   3.307   2.635   1.404 -0.1831  1.1634 -1.4443
 5983TIP3    H242145   3.348   2.775   1.363 -0.6745  2.3569  1.8585
 5984TIP3   OH242146   2.457   2.756   1.101  0.2360 -0.4187 -0.0691
 5984TIP3    H142147   2.544   2.727   1.076  0.8202  0.7520  0.5522
 5984TIP3    H242148   2.461   2.852   1.096 -1.1394 -0.3571 -0.4382
 5985TIP3   OH242149   0.521   5.744   2.766  0.1509 -0.3904  0.1049
 5985TIP3    H142150   0.427   5.730   2.756 -0.4026  3.4170 -1.8026
 5985TIP3    H242151   0.530   5.800   2.842  0.8478 -0.3761  0.0228
 5986TIP3   OH242152   4.499   5.988   1.653 -0.3097 -0.0230  0.4181
 5986TIP3    H142153   4.570   6.025   1.706  0.6977 -0.6497 -0.4515
 5986TIP3    H242154   4.524   6.007   1.563 -0.6977 -1.2004  0.0451
 5987TIP3   OH242155   0.284   0.479   2.494  0.1734 -0.2705  0.3754
 5987TIP3    H142156   0.264   0.565   2.531  0.1139  0.1136 -0.5292
 5987TIP3    H242157   0.249   0.482   2.405 -2.2034 -2.1574  1.1256
 5988TIP3   OH242158   2.071   2.996   1.642 -0.3836  0.0854  0.1879
 5988TIP3    H142159   2.160   2.971   1.666 -1.1854 -1.6603  1.5319
 5988TIP3    H242160   2.083   3.060   1.571  1.9077 -2.7978 -2.3417
 5989TIP3   OH242161   6.951   6.379   2.275  0.4301 -0.4837  0.0645
 5989TIP3    H142162   6.865   6.421   2.283  0.3530  0.0222 -2.5920
 5989TIP3    H242163   6.963   6.334   2.359 -2.2943 -0.3371  0.6303
 5990TIP3   OH242164   4.944   6.348   1.730  0.0506  0.0566 -0.1223
 5990TIP3    H142165   4.872   6.290   1.757  0.7069 -2.1039 -2.5895
 5990TIP3    H242166   5.015   6.327   1.790 -0.4392  0.0623  0.4771
 5991TIP3   OH242167   1.408   5.999   1.964  0.0523 -0.1439  0.0796
 5991TIP3    H142168   1.479   6.062   1.976  0.2112 -0.4567  0.7878
 5991TIP3    H242169   1.333   6.037   2.010 -0.7040  0.9042 -1.8794
 5992TIP3   OH242170   0.018   0.513   0.457 -0.0136  0.0016  0.2125
 5992TIP3    H142171  -0.012   0.539   0.544  0.1843  0.3364  0.1823
 5992TIP3    H242172  -0.026   0.574   0.397 -0.0307 -0.1311  0.0894
 5993TIP3   OH242173   4.556   2.590   2.789  0.0302  0.1954 -0.4588
 5993TIP3    H142174   4.541   2.678   2.752  1.1009  0.2599 -0.7941
 5993TIP3    H242175   4.574   2.605   2.881 -0.1587  0.2920 -0.4378
 5994TIP3   OH242176   5.328   1.097   1.130  0.7194  0.6379 -0.0203
 5994TIP3    H142177   5.263   1.087   1.198  1.2127  2.2939  0.7488
 5994TIP3    H242178   5.288   1.060   1.051 -0.5445  0.3090  0.7669
 5995TIP3   OH242179   1.742   5.485   1.889  0.1169  0.1911 -0.1437
 5995TIP3    H142180   1.767   5.577   1.897 -2.1433  0.8763 -0.1738
 5995TIP3    H242181   1.745   5.468   1.795 -1.0016  0.7644 -0.3097
 5996TIP3   OH242182   5.486   4.375   2.099 -0.2391 -0.0395 -0.2064
 5996TIP3    H142183   5.505   4.293   2.144 -2.4661 -1.5655 -1.8319
 5996TIP3    H242184   5.431   4.424   2.160  1.2734  0.4121  0.8529
 5997TIP3   OH242185   0.138   0.994   2.253  0.0998 -0.5184  0.0504
 5997TIP3    H142186   0.211   1.054   2.262  0.6905 -0.6894 -2.6196
 5997TIP3    H242187   0.077   1.019   2.322  1.6026  1.2194  0.8233
 5998TIP3   OH242188   0.852   7.614   2.363  0.1773 -0.4384  0.4660
 5998TIP3    H142189   0.763   7.650   2.361  0.2305 -0.2304  1.2686
 5998TIP3    H242190   0.845   7.540   2.425  0.3991 -0.8802 -0.0347
 5999TIP3   OH242191   5.102   5.206   3.003 -0.0826  0.3541 -0.6013
 5999TIP3    H142192   5.161   5.144   3.046 -1.8968 -1.6377 -0.7908
 5999TIP3    H242193   5.016   5.165   3.008 -1.2742  2.5651 -1.4130
 6000TIP3   OH242194   5.217   0.469   2.424  0.0365  0.0350  0.2801
 6000TIP3    H142195   5.205   0.557   2.460  0.8795 -0.0115  0.6908
 6000TIP3    H242196   5.175   0.473   2.338 -0.5274  0.6378  0.5708
 6001TIP3   OH242197   0.426   6.025   3.169 -0.3804  0.2878  0.2735
 6001TIP3    H142198   0.371   5.963   3.121 -1.0598  0.2671  1.0452
 6001TIP3    H242199   0.370   6.055   3.241  0.6076  0.3087  1.0491
 6002TIP3   OH242200   5.198   6.492   0.920 -0.1345 -0.2304  0.1097
 6002TIP3    H142201   5.246   6.556   0.972 -0.5069 -0.2642  0.5049
 6002TIP3    H242202   5.265   6.434   0.884  0.1030 -0.3837  0.7941
 6003TIP3   OH242203   1.003   1.827   0.790  0.3767 -0.2274  0.7331
 6003TIP3    H142204   0.919   1.861   0.760  0.3439 -0.3467  0.6877
 6003TIP3    H242205   0.998   1.733   0.774  0.9310 -0.0979 -0.2760
 6004TIP3   OH242206   2.201   6.885   1.348  0.5256  0.5820  0.6631
 6004TIP3    H142207   2.230   6.953   1.408  0.4541  0.6283  0.6448
 6004TIP3    H242208   2.183   6.931   1.266  0.5490  0.5306  0.6292
 6005TIP3   OH242209   4.210   3.599   2.085 -0.4099  0.5584  0.3435
 6005TIP3    H142210   4.174   3.644   2.009  0.4400 -0.1574 -0.4985
 6005TIP3    H242211   4.169   3.513   2.084 -1.0786  0.8461  1.2339
 6006TIP3   OH242212   4.098   2.155   3.062 -0.5138  0.1037  0.0485
 6006TIP3    H142213   4.188   2.162   3.029 -0.1922  0.3659  0.9496
 6006TIP3    H242214   4.045   2.138   2.984  0.6470 -3.0458 -0.2212
 6007TIP3   OH242215   2.033   1.841   0.650 -0.1028  0.9181 -0.0685
 6007TIP3    H142216   2.039   1.936   0.642  1.1548  0.7231 -2.3171
 6007TIP3    H242217   1.972   1.814   0.582  0.9760  0.0215 -0.7330
 6008TIP3   OH242218   2.725   1.468   0.695  0.0452  0.4471  0.1261
 6008TIP3    H142219   2.697   1.435   0.780  0.4532  0.5624  0.3091
 6008TIP3    H242220   2.795   1.530   0.715  0.3005  0.3050 -0.3055
 6009TIP3   OH242221   0.838   2.821   0.989  0.0955  0.2814  0.0982
 6009TIP3    H142222   0.774   2.892   0.994  0.8865  0.9663  0.9296
 6009TIP3    H242223   0.823   2.770   1.069 -0.7574 -0.7738 -0.7003
 6010TIP3   OH242224   1.820   0.482   2.261  0.7946  0.0151 -0.2207
 6010TIP3    H142225   1.740   0.534   2.270  0.2910 -0.7679 -0.0864
 6010TIP3    H242226   1.836   0.479   2.167 -0.4365 -1.4146 -0.4301
 6011TIP3   OH242227   3.112   0.074   3.283 -0.2685 -0.2921  0.0051
 6011TIP3    H142228   3.104   0.120   3.199  1.1530  0.9044  0.4756
 6011TIP3    H242229   3.205   0.053   3.290 -0.4782 -0.9462  0.9928
 6012TIP3   OH242230   5.766   3.659   2.203  0.2090  0.0757  0.3002
 6012TIP3    H142231   5.846   3.644   2.253  0.1238  0.0952  0.4430
 6012TIP3    H242232   5.776   3.605   2.125 -0.1292 -0.8042  0.8521
 6013TIP3   OH242233   3.287   5.519   2.918 -0.0692  0.1364  0.2659
 6013TIP3    H142234   3.350   5.570   2.969 -2.1869  0.6041  2.5864
 6013TIP3    H242235   3.321   5.523   2.829  3.1667  0.3402  1.3532
 6014TIP3   OH242236   6.200   2.319   1.246  0.1486  0.1744 -0.2092
 6014TIP3    H142237   6.206   2.290   1.337  0.7206  0.3796 -0.1788
 6014TIP3    H242238   6.184   2.413   1.251 -2.7585 -0.2011 -0.2908
 6015TIP3   OH242239   0.753   0.339   2.423  0.1332 -0.2412 -0.4237
 6015TIP3    H142240   0.761   0.409   2.358  1.0921 -0.2618 -0.3468
 6015TIP3    H242241   0.681   0.367   2.480  0.8926  0.9975 -0.0279
 6016TIP3   OH242242   0.227   3.480   1.760  0.2436  0.4807 -0.1388
 6016TIP3    H142243   0.199   3.491   1.669 -0.6821 -1.8260 -0.2006
 6016TIP3    H242244   0.179   3.404   1.791  0.3976  1.3128  2.3801
 6017TIP3   OH242245   1.483   3.002   1.397  0.1985 -0.2616  0.1380
 6017TIP3    H142246   1.555   3.018   1.458  0.4041  1.9373 -0.6150
 6017TIP3    H242247   1.515   2.933   1.339  1.8686  0.8883 -0.3701
 6018TIP3   OH242248   3.200   0.902   2.274  0.3900  0.1285  0.3840
 6018TIP3    H142249   3.280   0.953   2.261  0.1680  0.8482  1.6424
 6018TIP3    H242250   3.189   0.852   2.193  2.0072  0.1517  0.1229
 6019TIP3   OH242251   2.896   0.302   2.982 -0.1217 -0.4293  0.4730
 6019TIP3    H142252   2.901   0.396   3.004 -1.4803 -0.7374  2.3983
 6019TIP3    H242253   2.811   0.293   2.939  0.4352 -0.6347 -0.5939
 6020TIP3   OH242254   5.232   3.185   1.780  0.1510 -0.2833  0.4150
 6020TIP3    H142255   5.249   3.224   1.866  0.7126 -0.4602  0.3851
 6020TIP3    H242256   5.278   3.102   1.781  1.0295  0.1666 -0.4276
 6021TIP3   OH242257   1.917   7.219   1.439  0.1885 -0.2082 -0.3941
 6021TIP3    H142258   1.954   7.245   1.355  1.9678 -2.2429 -0.3247
 6021TIP3    H242259   1.941   7.290   1.499  1.1061  0.0656 -1.0769
 6022TIP3   OH242260   5.018   1.376   3.486  0.2826  0.6981  0.0201
 6022TIP3    H142261   4.991   1.382   3.578 -3.3802  1.1818 -0.9166
 6022TIP3    H242262   5.021   1.282   3.468 -1.1005  0.6067  0.1615
 6023TIP3   OH242263   1.421   3.020   2.673 -0.9509 -0.3732  0.2823
 6023TIP3    H142264   1.486   3.081   2.638  0.2851 -1.7827  0.0593
 6023TIP3    H242265   1.360   3.076   2.723 -0.0140  1.0608 -0.1350
 6024TIP3   OH242266   7.526   4.175   1.319  0.0928  0.4823 -0.3838
 6024TIP3    H142267   7.616   4.142   1.317  0.5535  1.7071 -0.8781
 6024TIP3    H242268   7.490   4.153   1.234 -0.9134 -2.1349  0.6350
 6025TIP3   OH242269   0.934   2.042   2.711 -0.4396 -0.1599 -0.2846
 6025TIP3    H142270   0.940   1.993   2.629 -0.2585 -0.0689 -0.3255
 6025TIP3    H242271   1.024   2.053   2.740 -0.2979  1.8614 -1.2903
 6026TIP3   OH242272   1.989   7.287   2.691 -0.1793  0.2063 -0.2309
 6026TIP3    H142273   1.931   7.221   2.729 -1.6500  2.7378  2.2244
 6026TIP3    H242274   2.069   7.282   2.743 -0.2274  0.2678 -0.1518
 6027TIP3   OH242275   3.096   3.272   0.960 -0.0802 -0.3210 -0.0476
 6027TIP3    H142276   3.037   3.312   0.896  0.4392  0.2653 -0.1705
 6027TIP3    H242277   3.052   3.283   1.044  0.8719  2.2709  0.2126
 6028TIP3   OH242278   4.314   4.270   1.274  0.3727 -0.7877 -0.1066
 6028TIP3    H142279   4.377   4.276   1.202 -2.9345  1.6558 -3.1317
 6028TIP3    H242280   4.238   4.225   1.237 -1.4894  0.5778  1.7956
 6029TIP3   OH242281   3.676   0.969   0.819 -0.3000  0.1021 -0.2042
 6029TIP3    H142282   3.728   1.044   0.792 -0.4788 -0.0087 -0.8874
 6029TIP3    H242283   3.599   0.972   0.762 -1.2547  0.5076  1.0667
 6030TIP3   OH242284   6.310   5.543   3.213 -0.2309  0.4633  0.1872
 6030TIP3    H142285   6.356   5.547   3.296  0.7999 -2.7865 -0.1137
 6030TIP3    H242286   6.379   5.550   3.147 -1.0753  3.4685 -0.5276
 6031TIP3   OH242287   3.931   5.950   3.303  0.0593  0.1242  0.1761
 6031TIP3    H142288   3.935   6.017   3.235 -0.2498  0.4876  0.5122
 6031TIP3    H242289   3.839   5.945   3.326  0.3377  1.0471  1.5910
 6032TIP3   OH242290   2.742   3.412   2.283 -1.2671  0.2066 -0.0408
 6032TIP3    H142291   2.763   3.319   2.284 -2.3086 -0.0361  0.1151
 6032TIP3    H242292   2.746   3.439   2.375 -0.8279  0.3541 -0.1003
 6033TIP3   OH242293   0.526   0.032   1.767 -0.3874  0.2129  0.1833
 6033TIP3    H142294   0.548  -0.022   1.843 -0.4577 -0.7672 -0.4750
 6033TIP3    H242295   0.450   0.084   1.796 -0.2474  0.0490  0.8637
 6034TIP3   OH242296   1.437   5.230   2.785 -0.4640  0.4450 -0.2803
 6034TIP3    H142297   1.448   5.314   2.741  0.1166  0.7018  0.3360
 6034TIP3    H242298   1.520   5.215   2.829 -0.5866 -0.4246 -0.3302
 6035TIP3   OH242299   4.309   0.869   1.485 -0.0008 -0.2109 -0.0085
 6035TIP3    H142300   4.291   0.897   1.575  2.2938 -0.8097  0.7006
 6035TIP3    H242301   4.273   0.781   1.480 -1.5240  0.3999 -0.2024
 6036TIP3   OH242302   6.749   7.639   1.344 -0.2640  0.7316 -0.5719
 6036TIP3    H142303   6.738   7.551   1.380 -1.3278  1.1931  0.2649
 6036TIP3    H242304   6.724   7.698   1.415  0.0723  1.7122 -1.2411
 6037TIP3   OH242305   0.474   6.497   2.841  0.2683  0.6926  0.4442
 6037TIP3    H142306   0.399   6.500   2.781 -0.5661  0.0663  1.4266
 6037TIP3    H242307   0.530   6.428   2.805  1.7221  2.8234 -1.7538
 6038TIP3   OH242308   1.423   4.491   0.791  0.6123 -0.1458  0.2122
 6038TIP3    H142309   1.417   4.585   0.777 -0.2658 -0.4257 -1.5834
 6038TIP3    H242310   1.348   4.469   0.846  0.9171  0.2045  0.7783
 6039TIP3   OH242311   7.612   7.153   1.638 -0.1051 -0.1570  0.0596
 6039TIP3    H142312   7.635   7.074   1.685  0.0256 -0.0100  0.2437
 6039TIP3    H242313   7.686   7.167   1.578  0.0301  0.0099  0.2631
 6040TIP3   OH242314   2.158   3.220   2.507  0.8978  0.2919 -0.3483
 6040TIP3    H142315   2.177   3.271   2.585 -0.6047 -1.1769  1.0367
 6040TIP3    H242316   2.064   3.232   2.492  0.8183 -0.8345 -0.8744
 6041TIP3   OH242317   0.546   5.732   2.487  0.4529  0.1859 -0.2528
 6041TIP3    H142318   0.512   5.772   2.568 -0.9438 -1.7240  0.1801
 6041TIP3    H242319   0.617   5.675   2.517  0.1638 -0.2571 -0.4047
 6042TIP3   OH242320   2.570   5.993   3.011 -0.1346 -0.1623 -0.4216
 6042TIP3    H142321   2.604   5.925   2.953 -0.4439 -0.8211  0.1431
 6042TIP3    H242322   2.480   5.965   3.031 -0.6799  1.0348 -1.1027
 6043TIP3   OH242323   5.326   5.625   1.592  0.8524 -0.4311 -0.0357
 6043TIP3    H142324   5.255   5.592   1.645  0.3248  0.6933 -0.0082
 6043TIP3    H242325   5.306   5.595   1.503 -0.3044  0.8310 -0.2346
 6044TIP3   OH242326   0.247   0.291   1.456 -0.4264 -0.5052  0.3415
 6044TIP3    H142327   0.340   0.285   1.480 -0.5012 -0.9041  0.5373
 6044TIP3    H242328   0.244   0.363   1.393  0.0871 -0.7775 -0.0036
 6045TIP3   OH242329   3.839   6.102   2.196  0.0806  0.5716 -0.4409
 6045TIP3    H142330   3.835   6.138   2.284 -0.3200  1.4055 -0.7890
 6045TIP3    H242331   3.777   6.155   2.145 -0.4031 -0.5015 -1.0115
 6046TIP3   OH242332   3.702   0.831   1.096  0.2791 -0.5394 -0.4570
 6046TIP3    H142333   3.700   0.859   1.005  0.2673 -0.2590 -0.3728
 6046TIP3    H242334   3.790   0.798   1.109  0.4505 -0.0751 -0.4239
 6047TIP3   OH242335   6.974   7.557   2.431 -0.2156  0.1561  0.3837
 6047TIP3    H142336   7.027   7.632   2.457  0.6238 -0.7558  1.3639
 6047TIP3    H242337   6.888   7.575   2.469  0.6411 -0.5403  2.8400
 6048TIP3   OH242338   6.260   2.363   0.533  0.2175  0.1217 -0.1043
 6048TIP3    H142339   6.344   2.401   0.506 -0.5137  1.3897 -0.6683
 6048TIP3    H242340   6.279   2.321   0.617  1.1955  1.3272  0.3200
 6049TIP3   OH242341   3.803   2.636   1.901  0.3666 -0.4531  0.0829
 6049TIP3    H142342   3.800   2.557   1.954 -0.6984  0.1811  1.0036
 6049TIP3    H242343   3.719   2.639   1.856  1.7561 -1.7644 -2.9389
 6050TIP3   OH242344   1.264   1.331   1.939  0.1196 -0.5711 -0.0466
 6050TIP3    H142345   1.177   1.356   1.972  0.9646  2.1528  0.3511
 6050TIP3    H242346   1.317   1.322   2.018  0.3243 -1.9134 -0.3119
 6051TIP3   OH242347   1.586   0.578   0.706 -0.2073 -0.2375 -0.0948
 6051TIP3    H142348   1.668   0.539   0.674 -1.7591 -0.9211 -3.7001
 6051TIP3    H242349   1.579   0.660   0.657 -1.7402 -0.2655  0.0576
 6052TIP3   OH242350   0.650   5.350   1.480  0.0281  0.1794 -0.0579
 6052TIP3    H142351   0.691   5.313   1.402  0.4543  1.9135 -0.7153
 6052TIP3    H242352   0.714   5.415   1.511 -1.1719  1.2142  0.3241
 6053TIP3   OH242353   6.265   3.129   2.309 -0.3540 -0.7039 -0.5645
 6053TIP3    H142354   6.315   3.048   2.313 -0.6447 -0.8324  0.9144
 6053TIP3    H242355   6.194   3.117   2.372  1.0962  1.6940  1.7554
 6054TIP3   OH242356   2.530   2.314   0.715  0.4973 -0.1085  0.1352
 6054TIP3    H142357   2.504   2.406   0.709  0.4889  0.1108  2.4078
 6054TIP3    H242358   2.462   2.275   0.770  2.8357 -0.3840  3.0633
 6055TIP3   OH242359   4.377   3.776   1.880 -0.5313  0.2389 -0.4624
 6055TIP3    H142360   4.454   3.831   1.894  0.8291 -1.8464  0.8629
 6055TIP3    H242361   4.315   3.804   1.947  1.5469 -2.0833  2.6887
 6056TIP3   OH242362   4.540   1.946   2.192 -0.2117  0.5597 -0.5541
 6056TIP3    H142363   4.513   2.001   2.266  0.7209  1.6613 -1.0141
 6056TIP3    H242364   4.555   1.860   2.231 -3.3728  0.0648 -0.0962
 6057TIP3   OH242365   2.733   0.474   1.070  0.1954 -0.3055 -0.2893
 6057TIP3    H142366   2.668   0.418   1.112 -1.4423  0.1958 -2.0198
 6057TIP3    H242367   2.686   0.555   1.050  1.5289  0.3169 -1.0350
 6058TIP3   OH242368   3.613   5.050   3.297  0.1314 -0.0039 -0.8551
 6058TIP3    H142369   3.598   4.986   3.228  1.0022 -0.9591 -0.1722
 6058TIP3    H242370   3.561   5.019   3.371 -0.6546  0.9185 -0.9946
 6059TIP3   OH242371   4.974   7.563   1.636  0.1842  0.5091  0.2579
 6059TIP3    H142372   4.972   7.479   1.590 -1.2160 -0.7207  2.4499
 6059TIP3    H242373   4.976   7.628   1.565 -0.1024 -1.3106 -1.5210
 6060TIP3   OH242374   7.078   6.868   0.899  0.0255 -0.3481  0.1013
 6060TIP3    H142375   7.064   6.962   0.895  1.1291 -0.1874 -0.2659
 6060TIP3    H242376   7.172   6.856   0.883 -0.4106 -1.6449 -1.9031
 6061TIP3   OH242377   1.190   2.679   1.257 -0.3035 -0.0787  0.2650
 6061TIP3    H142378   1.143   2.632   1.326  0.7244  0.0405  1.0739
 6061TIP3    H242379   1.143   2.762   1.248 -2.2860 -1.2625 -1.3411
 6062TIP3   OH242380   1.994   2.287   0.912  0.1752  0.6269 -0.3431
 6062TIP3    H142381   2.016   2.367   0.959 -0.7680  1.3035 -1.0199
 6062TIP3    H242382   1.899   2.281   0.915  0.0187  1.0015 -2.5795
 6063TIP3   OH242383   6.072   1.072   2.376  0.3146 -0.2338  0.0284
 6063TIP3    H142384   6.099   1.051   2.465  0.8680 -0.1798 -0.1237
 6063TIP3    H242385   6.032   0.991   2.344  2.6971 -1.2285 -0.6525
 6064TIP3   OH242386   1.719   6.722   0.988 -0.0234 -0.0636 -0.1377
 6064TIP3    H142387   1.624   6.720   0.978 -0.3078  2.0323  1.5382
 6064TIP3    H242388   1.736   6.797   1.044  2.6884 -0.0333 -0.8477
 6065TIP3   OH242389   3.479   5.399   1.275  0.5779  0.1127  0.1714
 6065TIP3    H142390   3.555   5.443   1.236  1.2909 -0.0214  1.3363
 6065TIP3    H242391   3.515   5.319   1.313  0.3867  1.1811  2.8773
 6066TIP3   OH242392   7.436   7.454   1.177  0.2006 -0.0372  0.1829
 6066TIP3    H142393   7.491   7.442   1.100 -2.3814  0.5565 -1.9131
 6066TIP3    H242394   7.442   7.547   1.198  0.3352 -0.0599  0.2461
 6067TIP3   OH242395   7.607   5.837   2.617 -0.2546 -0.3011 -0.0915
 6067TIP3    H142396   7.568   5.850   2.530  1.2491 -2.0163 -1.1053
 6067TIP3    H242397   7.558   5.763   2.653 -2.1789  1.5769  1.4471
 6068TIP3   OH242398   0.430   1.309   0.954  0.3816  0.9641 -0.0266
 6068TIP3    H142399   0.401   1.399   0.940 -2.6389 -0.1786 -2.1956
 6068TIP3    H242400   0.433   1.271   0.866  0.1111 -1.4547  0.9412
 6069TIP3   OH242401   5.954   2.474   1.873 -0.1435  0.4055 -0.1130
 6069TIP3    H142402   5.899   2.399   1.894 -1.3736  1.3877  0.2643
 6069TIP3    H242403   5.952   2.479   1.778 -0.7679  0.4718 -0.0992
 6070TIP3   OH242404   0.221   1.301   2.526  0.3081 -0.0263 -0.2988
 6070TIP3    H142405   0.290   1.319   2.589  0.6797 -0.8232 -0.4800
 6070TIP3    H242406   0.266   1.272   2.447 -0.1930  0.2560 -0.7024
 6071TIP3   OH242407   0.053   3.558   2.012 -0.0321  0.2753 -0.7394
 6071TIP3    H142408   0.016   3.512   2.088 -1.7522 -2.3916 -2.9781
 6071TIP3    H242409  -0.021   3.606   1.974  0.0403 -0.7338 -2.2534
 6072TIP3   OH242410   2.496   6.827   0.850  0.3709  0.3231 -0.1363
 6072TIP3    H142411   2.417   6.792   0.809  1.2933 -1.9755 -0.0888
 6072TIP3    H242412   2.483   6.813   0.943  1.1695 -0.8854 -0.1892
 6073TIP3   OH242413   4.403   4.328   2.451  0.1955  0.5520  0.2716
 6073TIP3    H142414   4.374   4.380   2.525  1.5267  1.9289 -0.1202
 6073TIP3    H242415   4.432   4.245   2.489 -0.2104  0.8104  1.1491
 6074TIP3   OH242416   0.147   0.652   2.969  0.1686 -0.1271 -0.2341
 6074TIP3    H142417   0.170   0.744   2.977  1.6150 -0.5081  0.2803
 6074TIP3    H242418   0.205   0.619   2.901 -1.9031 -0.1949 -2.0920
 6075TIP3   OH242419   3.408   5.778   1.122  0.0898  0.2418 -0.3307
 6075TIP3    H142420   3.427   5.686   1.107 -0.1729 -0.3773  2.6182
 6075TIP3    H242421   3.489   5.824   1.098  0.0096 -0.5926 -2.4482
 6076TIP3   OH242422   4.452   3.702   2.169 -0.5389  0.0206 -0.1345
 6076TIP3    H142423   4.494   3.658   2.243  0.7744 -0.6027 -1.2300
 6076TIP3    H242424   4.380   3.643   2.144 -0.3906 -0.2290  0.0238
 6077TIP3   OH242425   0.968   0.357   1.188 -0.3492  0.9035 -0.2721
 6077TIP3    H142426   0.990   0.272   1.226 -1.4772 -0.6350 -2.7869
 6077TIP3    H242427   1.044   0.381   1.136  0.6485  2.3452  1.7277
 6078TIP3   OH242428   3.837   3.835   1.700 -0.3302  0.0906  0.0284
 6078TIP3    H142429   3.796   3.914   1.736 -2.0727 -0.6866 -0.1528
 6078TIP3    H242430   3.863   3.860   1.612 -0.2925  0.6319  0.1863
 6079TIP3   OH242431   3.397   0.067   1.438 -0.1221 -0.5959 -0.0894
 6079TIP3    H142432   3.475   0.120   1.452  0.4892 -1.3610 -0.4985
 6079TIP3    H242433   3.405  -0.005   1.501 -0.3350 -0.8324 -0.3268
 6080TIP3   OH242434   4.875   0.374   2.462  0.4875  0.5518  0.0857
 6080TIP3    H142435   4.903   0.295   2.415  0.2833  0.0216  0.8355
 6080TIP3    H242436   4.883   0.445   2.398  1.0579 -0.0140 -0.4766
 6081TIP3   OH242437   4.976   0.832   2.352  0.4036  0.4591 -0.3885
 6081TIP3    H142438   4.949   0.835   2.444 -0.7746 -0.5036 -0.6819
 6081TIP3    H242439   5.069   0.856   2.354  0.2797  0.9187  0.9929
 6082TIP3   OH242440   0.474   4.765   2.577 -0.1842 -0.4165 -0.5287
 6082TIP3    H142441   0.545   4.728   2.523 -0.6321  1.0381 -2.2068
 6082TIP3    H242442   0.518   4.830   2.632  0.1675 -1.4125  0.4023
 6083TIP3   OH242443   0.795   2.272   1.210 -0.2778  0.0672  0.3208
 6083TIP3    H142444   0.712   2.279   1.256  0.1363  1.1103  0.9455
 6083TIP3    H242445   0.810   2.178   1.201 -1.3503 -0.1276  0.5038
 6084TIP3   OH242446   7.676   6.257   0.888 -0.0927  0.4418  0.3871
 6084TIP3    H142447   7.668   6.352   0.894 -3.1546  0.2628  0.6416
 6084TIP3    H242448   7.638   6.235   0.802  1.7991 -0.5026 -0.2641
 6085TIP3   OH242449   4.831   4.344   1.703 -0.0234 -0.5258 -0.7996
 6085TIP3    H142450   4.769   4.417   1.710 -0.2494 -0.8558  1.4911
 6085TIP3    H242451   4.779   4.267   1.725  0.0988 -1.5472 -3.6463
 6086TIP3   OH242452   0.718   2.745   1.940  0.7299 -0.3521 -0.5070
 6086TIP3    H142453   0.678   2.763   2.025 -1.8731  1.1092 -1.9289
 6086TIP3    H242454   0.733   2.650   1.941  0.4612 -0.4232  1.4279
 6087TIP3   OH242455   4.234   4.290   2.776  0.3212 -0.2063 -0.3435
 6087TIP3    H142456   4.183   4.264   2.699 -0.8367  0.2024  0.2652
 6087TIP3    H242457   4.249   4.209   2.823  0.9660 -0.4474 -0.9342
 6088TIP3   OH242458   4.243   0.929   1.755  0.0963 -0.3603  0.2344
 6088TIP3    H142459   4.170   0.977   1.792  0.2398  0.4718 -0.5119
 6088TIP3    H242460   4.320   0.963   1.800  0.2719  0.6582 -0.7771
 6089TIP3   OH242461   6.063   2.320   2.427 -0.1734  0.3801  0.0352
 6089TIP3    H142462   5.985   2.368   2.455 -0.2729  0.1536  0.1482
 6089TIP3    H242463   6.066   2.332   2.332 -1.0649 -0.6616 -0.1488
 6090TIP3   OH242464   1.823   3.350   1.498  0.2045 -0.2671  0.3738
 6090TIP3    H142465   1.850   3.419   1.559  0.1290  0.9868 -0.9272
 6090TIP3    H242466   1.895   3.346   1.435 -1.0731  0.7839 -1.2621
 6091TIP3   OH242467   0.226   2.731   2.497 -0.0652  0.4626  0.1206
 6091TIP3    H142468   0.252   2.816   2.462  2.7171 -0.3707 -0.1029
 6091TIP3    H242469   0.170   2.693   2.429  0.7937  1.0709 -0.9619
 6092TIP3   OH242470   0.583   6.644   1.519 -0.2133 -0.0526  0.2438
 6092TIP3    H142471   0.642   6.586   1.567 -0.8202  0.8255  2.1383
 6092TIP3    H242472   0.633   6.726   1.511 -1.0085  0.5964  1.5919
 6093TIP3   OH242473   6.367   0.315   1.426 -0.0525  0.2886 -0.5052
 6093TIP3    H142474   6.411   0.345   1.506  1.6393 -2.2973 -0.3456
 6093TIP3    H242475   6.413   0.360   1.355  0.7202  0.0662 -0.1592
 6094TIP3   OH242476   5.781   4.234   1.372  0.3651 -0.0188 -0.1091
 6094TIP3    H142477   5.876   4.235   1.360  0.3510  1.1274 -0.1905
 6094TIP3    H242478   5.746   4.226   1.283  0.3808 -0.1118 -0.1070
 6095TIP3   OH242479   4.603   2.334   2.702 -0.1364 -0.4264  0.1367
 6095TIP3    H142480   4.596   2.427   2.725  0.2450 -0.3017 -0.2378
 6095TIP3    H242481   4.648   2.333   2.617 -0.0805 -0.9551  0.1658
 6096TIP3   OH242482   7.665   6.534   0.868 -0.0920  0.4685 -0.1493
 6096TIP3    H142483   7.650   6.605   0.931 -0.1984  0.7899 -0.5391
 6096TIP3    H242484   7.702   6.577   0.791 -1.2415  0.2644 -0.8296
 6097TIP3   OH242485   6.604   4.858   1.329  0.0673 -0.4654  0.1257
 6097TIP3    H142486   6.648   4.773   1.337  0.5709 -0.1968  0.2949
 6097TIP3    H242487   6.589   4.868   1.236 -2.1701 -1.8054  0.2611
 6098TIP3   OH242488   3.696   4.004   2.401  0.4723 -0.0602  0.0898
 6098TIP3    H142489   3.662   3.971   2.318  0.6304  0.7496 -0.3020
 6098TIP3    H242490   3.729   4.091   2.381  1.1350 -0.1200  0.8570
 6099TIP3   OH242491   6.839   4.743   3.112 -0.0968 -0.1693  0.1344
 6099TIP3    H142492   6.770   4.762   3.048 -1.4231 -0.1867  1.4925
 6099TIP3    H242493   6.839   4.820   3.170  1.8439  0.3586 -0.4744
 6100TIP3   OH242494   1.742   2.187   0.985  0.0540  0.2579  0.7775
 6100TIP3    H142495   1.673   2.206   1.048 -1.4708  1.1024 -1.0602
 6100TIP3    H242496   1.696   2.166   0.904  1.9471  0.6216 -0.4591
 6101TIP3   OH242497   1.322   7.351   3.181 -0.0776 -0.6325  0.0433
 6101TIP3    H142498   1.240   7.356   3.132  1.0217  1.8682 -1.8185
 6101TIP3    H242499   1.333   7.439   3.218  3.0994  0.1558 -2.3365
 6102TIP3   OH242500   3.988   5.175   1.119 -0.2574  0.6124  0.2411
 6102TIP3    H142501   4.062   5.234   1.133  1.4740 -1.2562 -0.4856
 6102TIP3    H242502   3.921   5.230   1.079  1.1345  2.1733 -0.0727
 6103TIP3   OH242503   1.046   0.767   2.645 -0.0652  0.5951 -0.1076
 6103TIP3    H142504   1.108   0.823   2.599 -0.0515  0.8002  0.1575
 6103TIP3    H242505   0.988   0.734   2.577 -0.0341  0.8816 -0.2745
 6104TIP3   OH242506   7.373   2.354   0.782  0.4127  0.3894 -0.0679
 6104TIP3    H142507   7.424   2.435   0.785  0.2551  0.5116 -0.7210
 6104TIP3    H242508   7.397   2.313   0.699 -0.2227  0.2279 -0.1733
 6105TIP3   OH242509   4.302   6.736   2.227  0.3245  0.0055 -0.2643
 6105TIP3    H142510   4.321   6.710   2.137 -0.4974  0.9370 -0.7305
 6105TIP3    H242511   4.262   6.823   2.219  0.0321  0.0061  0.9799
 6106TIP3   OH242512   3.479   1.919   1.223  0.5373  0.0341 -0.5226
 6106TIP3    H142513   3.567   1.892   1.250  1.2804 -0.4827 -3.1972
 6106TIP3    H242514   3.476   2.013   1.244  1.1546 -0.2364  0.8955
 6107TIP3   OH242515   0.062   1.543   2.460  0.1468 -0.2318 -0.2355
 6107TIP3    H142516  -0.007   1.490   2.419  1.2087 -0.4044 -1.8919
 6107TIP3    H242517   0.099   1.485   2.527 -2.1684  0.3462  1.6563
 6108TIP3   OH242518   5.601   6.333   3.369 -0.0291 -0.3383  0.8203
 6108TIP3    H142519   5.633   6.351   3.458  1.3847  2.1327 -0.0649
 6108TIP3    H242520   5.564   6.416   3.340  0.7821 -0.6605 -1.3450
 6109TIP3   OH242521   5.389   0.803   1.649 -0.5464  0.2712 -0.3527
 6109TIP3    H142522   5.405   0.711   1.674  1.6091 -0.0345 -2.4834
 6109TIP3    H242523   5.300   0.803   1.615 -0.8370 -0.8616  0.3132
 6110TIP3   OH242524   5.143   7.584   2.668 -0.1107  0.2395 -0.3730
 6110TIP3    H142525   5.183   7.534   2.738  0.5516 -1.3612 -1.8278
 6110TIP3    H242526   5.052   7.554   2.666 -0.5918  1.4873  0.8006
 6111TIP3   OH242527   1.818   0.542   3.018  0.6463  0.5624 -0.3655
 6111TIP3    H142528   1.845   0.501   2.936  1.0499  0.1282 -0.0168
 6111TIP3    H242529   1.896   0.587   3.050  0.8582 -0.3572  0.4359
 6112TIP3   OH242530   3.116   3.367   1.490  0.0031 -0.4464  0.1295
 6112TIP3    H142531   3.154   3.298   1.544 -1.3202 -0.5007  1.0163
 6112TIP3    H242532   3.039   3.396   1.538  0.6287  1.8069 -0.1134
 6113TIP3   OH242533   3.194   1.738   1.601  0.3474  0.1459 -0.0853
 6113TIP3    H142534   3.139   1.761   1.527  0.2586  0.1748 -0.0110
 6113TIP3    H242535   3.253   1.814   1.611  2.2788 -1.0118 -1.8859
 6114TIP3   OH242536   5.680   2.619   1.484 -0.0889  0.2590  0.8652
 6114TIP3    H142537   5.669   2.527   1.462  0.4335  0.5179 -0.5420
 6114TIP3    H242538   5.694   2.619   1.579 -0.5890 -1.0558  0.9538
 6115TIP3   OH242539   4.237   1.898   2.252 -0.1832 -0.0556 -0.7304
 6115TIP3    H142540   4.297   1.864   2.185  0.7219  1.8448 -0.9536
 6115TIP3    H242541   4.276   1.870   2.335  0.9934  0.9927 -0.8789
 6116TIP3   OH242542   7.028   7.253   2.074 -0.5649 -0.2435  0.7516
 6116TIP3    H142543   7.047   7.345   2.058  0.0439 -0.1667  1.7660
 6116TIP3    H242544   7.004   7.250   2.167 -3.6359 -0.6640  0.0248
 6117TIP3   OH242545   5.560   5.352   2.482  0.3043 -0.4441 -0.0982
 6117TIP3    H142546   5.535   5.368   2.390 -0.3795 -0.1834  0.1250
 6117TIP3    H242547   5.540   5.260   2.496  3.3166 -1.3661 -1.0950
 6118TIP3   OH242548   1.453   4.314   1.312 -0.3564  0.3004  0.6271
 6118TIP3    H142549   1.547   4.293   1.306 -0.5939 -0.8095  0.4713
 6118TIP3    H242550   1.415   4.270   1.236 -1.2032 -0.5072  1.4890
 6119TIP3   OH242551   0.880   7.341   0.661  0.1590  0.1948 -0.1887
 6119TIP3    H142552   0.900   7.386   0.579  3.4104  0.6635  0.7406
 6119TIP3    H242553   0.947   7.272   0.667 -1.8026 -1.7455  0.7321
 6120TIP3   OH242554   6.377   7.528   0.984  0.3249 -0.0020  0.1315
 6120TIP3    H142555   6.431   7.460   0.943 -0.5298 -1.0591  0.6945
 6120TIP3    H242556   6.304   7.480   1.022  1.1013  0.9194  2.9818
 6121TIP3   OH242557   3.228   5.107   2.273 -0.4049  0.5471  0.6814
 6121TIP3    H142558   3.165   5.179   2.277 -1.8003 -0.5863 -0.0507
 6121TIP3    H242559   3.246   5.095   2.180 -1.6373 -1.2061  0.6110
 6122TIP3   OH242560   4.446   2.309   1.821 -0.0314 -0.3705  0.5615
 6122TIP3    H142561   4.523   2.293   1.767  0.1592  1.8530  0.0830
 6122TIP3    H242562   4.377   2.256   1.781  0.3520  0.4587 -1.3163
 6123TIP3   OH242563   3.251   3.807   3.359  0.0925 -0.1669  0.3799
 6123TIP3    H142564   3.310   3.869   3.316 -0.2851 -0.0639  0.0148
 6123TIP3    H242565   3.222   3.749   3.290 -1.3602  0.6502  0.2673
 6124TIP3   OH242566   3.488   4.941   2.683 -0.3064 -0.0180 -0.1529
 6124TIP3    H142567   3.481   4.975   2.772  2.5059 -0.0638  0.1717
 6124TIP3    H242568   3.406   4.967   2.641 -1.6637  0.1086  2.3814
 6125TIP3   OH242569   4.060   5.740   0.746  0.0892  0.4076  0.0334
 6125TIP3    H142570   4.099   5.675   0.805 -2.4608  0.0291  1.4723
 6125TIP3    H242571   4.069   5.702   0.659  1.0513 -0.5735  0.5264
 6126TIP3   OH242572   7.532   7.394   2.133 -0.0660  0.4579 -0.1592
 6126TIP3    H142573   7.441   7.419   2.117  0.6761  3.8098  0.0761
 6126TIP3    H242574   7.569   7.380   2.046 -0.3091  1.1168 -0.3685
 6127TIP3   OH242575   5.577   5.944   2.176  0.1947  0.4520 -0.6582
 6127TIP3    H142576   5.524   5.966   2.253  2.6764  0.1708  1.2692
 6127TIP3    H242577   5.561   6.015   2.114 -3.0900 -0.0991 -0.6553
 6128TIP3   OH242578   4.747   3.202   1.765  0.2494  0.4055  0.4029
 6128TIP3    H142579   4.838   3.222   1.743  0.3766 -2.0933 -1.9708
 6128TIP3    H242580   4.752   3.146   1.842  0.6634  0.8527  0.7026
 6129TIP3   OH242581   6.001   5.352   2.161  0.1487 -0.6236  0.3645
 6129TIP3    H142582   5.990   5.278   2.221 -2.1855 -1.2544 -0.7116
 6129TIP3    H242583   5.927   5.410   2.181 -0.2271 -0.4610 -1.3127
 6130TIP3   OH242584   7.583   0.617   2.359  0.2012 -0.0288  0.2798
 6130TIP3    H142585   7.578   0.659   2.273 -0.2365 -0.5984  0.0234
 6130TIP3    H242586   7.654   0.554   2.350  1.6024  1.3759  0.9975
 6131TIP3   OH242587   4.721   3.920   0.943 -0.0433 -0.5337  0.2860
 6131TIP3    H142588   4.810   3.896   0.916  0.2280 -0.5141  1.1249
 6131TIP3    H242589   4.666   3.899   0.868  0.4460 -2.0341  0.3288
 6132TIP3   OH242590   6.794   3.517   0.603 -0.1685 -0.4112 -0.6746
 6132TIP3    H142591   6.718   3.460   0.605 -0.1613 -0.4147  0.7949
 6132TIP3    H242592   6.869   3.458   0.615  0.0433 -0.3603 -1.6742
 6133TIP3   OH242593   4.064   4.469   2.328 -0.2094  0.4764 -0.0062
 6133TIP3    H142594   4.077   4.474   2.233 -2.3527  0.6556 -0.3445
 6133TIP3    H242595   4.088   4.556   2.360 -1.8439  1.2362 -0.7561
 6134TIP3   OH242596   2.173   3.402   2.704 -1.0666  0.1158  0.6927
 6134TIP3    H142597   2.185   3.491   2.736  0.7485  0.0507  0.3270
 6134TIP3    H242598   2.226   3.348   2.763  0.1791 -0.3334 -0.7510
 6135TIP3   OH242599   4.388   1.658   2.036 -0.3852 -0.2467 -0.0423
 6135TIP3    H142600   4.407   1.567   2.010  2.3115  0.3829 -0.5628
 6135TIP3    H242601   4.352   1.699   1.957 -0.5494 -0.5636 -0.1349
 6136TIP3   OH242602   6.615   2.346   1.265  0.0159 -0.3832  0.3758
 6136TIP3    H142603   6.644   2.258   1.290  0.5395 -0.2263  0.3238
 6136TIP3    H242604   6.547   2.331   1.199  0.9134 -0.7360 -0.5026
 6137TIP3   OH242605   5.248   1.455   1.468 -0.0609 -0.0240  0.2241
 6137TIP3    H142606   5.236   1.433   1.560 -0.0246  0.6921  0.4015
 6137TIP3    H242607   5.342   1.465   1.458  0.1227 -1.8141 -0.2999
 6138TIP3   OH242608   2.052   7.376   1.266 -0.5445 -0.3054 -0.0024
 6138TIP3    H142609   2.114   7.375   1.192 -1.0303 -0.3034 -0.4112
 6138TIP3    H242610   1.999   7.454   1.251  0.3123  0.5288  1.1581
 6139TIP3   OH242611   5.865   1.147   2.749  0.4214 -0.0933  0.3757
 6139TIP3    H142612   5.816   1.212   2.798  0.8903 -0.7598  1.8146
 6139TIP3    H242613   5.858   1.067   2.802  3.7764  0.0026  1.1961
 6140TIP3   OH242614   0.865   2.000   3.602 -0.1305 -0.1092 -0.1000
 6140TIP3    H142615   0.881   2.010   3.696 -0.7939  0.5068 -0.0403
 6140TIP3    H242616   0.770   2.014   3.592 -0.3802 -1.9083 -0.6479
 6141TIP3   OH242617   0.162   4.904   2.869 -0.5308 -0.3105  0.0822
 6141TIP3    H142618   0.193   4.818   2.839 -0.4043 -0.9733  1.9748
 6141TIP3    H242619   0.192   4.910   2.960 -2.2797  0.8691  0.6399
 6142TIP3   OH242620   0.570   1.624   2.123 -0.3151  0.3098  0.0646
 6142TIP3    H142621   0.659   1.591   2.130 -0.5743 -0.3661  0.1867
 6142TIP3    H242622   0.545   1.607   2.032 -1.0488 -1.3890  0.5587
 6143TIP3   OH242623   3.116   1.230   0.939 -0.0274  0.0311 -0.6966
 6143TIP3    H142624   3.190   1.227   0.878 -0.1122  0.3134 -0.8139
 6143TIP3    H242625   3.125   1.150   0.992  2.4238  1.7379  1.7103
 6144TIP3   OH242626   6.085   0.122   2.841 -0.0072  0.1892 -0.0445
 6144TIP3    H142627   5.991   0.128   2.829 -0.2850 -0.3044  1.6558
 6144TIP3    H242628   6.107   0.032   2.814  0.1325  0.5428 -1.1838
 6145TIP3   OH242629   3.692   2.198   2.533 -0.2317 -0.3096 -0.8720
 6145TIP3    H142630   3.641   2.238   2.462 -0.6506  0.1561 -0.3162
 6145TIP3    H242631   3.741   2.270   2.571 -1.4764 -0.1764  0.5545
 6146TIP3   OH242632   6.149   2.178   0.742 -0.6366  0.7490  0.1532
 6146TIP3    H142633   6.103   2.167   0.825 -1.3854  1.0624 -0.2113
 6146TIP3    H242634   6.131   2.098   0.693 -1.8863  1.4007 -0.4975
 6147TIP3   OH242635   3.616   0.937   1.982  0.1393  0.0050  0.2751
 6147TIP3    H142636   3.657   0.967   1.901 -0.8129  0.0140 -0.2212
 6147TIP3    H242637   3.687   0.899   2.033  0.3698 -2.5391 -1.7542
 6148TIP3   OH242638   5.714   5.104   0.593 -0.0357 -0.2920 -0.4662
 6148TIP3    H142639   5.794   5.130   0.547 -0.4382  0.7920 -0.5794
 6148TIP3    H242640   5.741   5.094   0.684  0.4388 -0.9203 -0.6718
 6149TIP3   OH242641   2.480   6.178   3.430  0.4610  0.4838  0.4341
 6149TIP3    H142642   2.536   6.101   3.421 -0.1575  0.2012 -1.4564
 6149TIP3    H242643   2.393   6.143   3.447  0.1941  0.7593 -0.3315
 6150TIP3   OH242644   1.657   2.010   1.694  0.5942 -0.0304 -0.3998
 6150TIP3    H142645   1.746   1.976   1.689  1.0794  0.4223  2.9935
 6150TIP3    H242646   1.601   1.932   1.688  1.3186 -0.5701 -0.2450
 6151TIP3   OH242647   2.542   5.796   2.710  0.3755 -0.5071  0.4571
 6151TIP3    H142648   2.489   5.734   2.660  1.5798 -1.4820  0.3452
 6151TIP3    H242649   2.537   5.764   2.800 -0.6100  0.4094  0.7477
 6152TIP3   OH242650   0.188   7.557   1.717  0.3613 -0.3595  0.2707
 6152TIP3    H142651   0.182   7.499   1.793 -0.6959  0.9492  1.2402
 6152TIP3    H242652   0.186   7.645   1.754 -0.8994  0.3202 -1.3059
 6153TIP3   OH242653   0.005   1.563   1.306  0.0805 -0.2016  0.2137
 6153TIP3    H142654   0.038   1.627   1.369 -0.6307 -0.5230  0.9133
 6153TIP3    H242655  -0.083   1.542   1.335  0.0015 -0.8958 -0.4769
 6154TIP3   OH242656   2.700   5.248   2.405 -0.3112  0.2771  0.5681
 6154TIP3    H142657   2.639   5.182   2.370 -1.3715  1.2462  0.5287
 6154TIP3    H242658   2.744   5.204   2.477 -1.9438 -0.0932  1.3917
 6155TIP3   OH242659   1.893   1.397   1.700 -0.0634  0.1987 -0.5953
 6155TIP3    H142660   1.896   1.477   1.647 -0.9066  0.4024 -0.3526
 6155TIP3    H242661   1.913   1.427   1.789 -1.8252  0.4099 -0.2347
 6156TIP3   OH242662   0.848   6.469   1.452 -0.3219 -1.1925 -0.2196
 6156TIP3    H142663   0.792   6.392   1.455 -3.2099  0.7639 -0.1051
 6156TIP3    H242664   0.819   6.522   1.526  1.9712 -0.1768  0.0417
 6157TIP3   OH242665   0.404   5.705   1.876  0.1746  0.1686  0.2904
 6157TIP3    H142666   0.364   5.658   1.949 -1.7600  1.1078 -0.1009
 6157TIP3    H242667   0.426   5.637   1.812 -0.5926 -0.4064  0.6299
 6158TIP3   OH242668   5.548   3.073   1.740  0.7870  0.3207 -0.5208
 6158TIP3    H142669   5.603   3.065   1.818  1.7432  0.1868 -1.1909
 6158TIP3    H242670   5.518   2.984   1.723  0.7122  0.3225 -0.3981
 6159TIP3   OH242671   3.012   7.449   1.488  0.1146 -0.0084  0.8303
 6159TIP3    H142672   3.039   7.531   1.447  1.1536 -1.1684 -0.9181
 6159TIP3    H242673   2.937   7.420   1.436  0.6382 -0.8551  0.5216
 6160TIP3   OH242674   4.484   6.240   2.024  0.0222 -0.3345 -1.0803
 6160TIP3    H142675   4.546   6.294   2.074 -0.0902  0.1959 -1.5032
 6160TIP3    H242676   4.538   6.193   1.961  0.0903 -0.5017 -0.8961
 6161TIP3   OH242677   2.472   2.749   2.932  0.0839 -0.1774  0.5551
 6161TIP3    H142678   2.521   2.679   2.889  0.3586  0.8510 -0.8491
 6161TIP3    H242679   2.536   2.793   2.988  0.3630  0.1029  0.0197
 6162TIP3   OH242680   6.505   0.089   0.956 -0.1241  0.2773  0.0240
 6162TIP3    H142681   6.483  -0.001   0.931 -2.2151  0.9095 -0.6076
 6162TIP3    H242682   6.446   0.108   1.029  0.6232  0.9983  0.4538
 6163TIP3   OH242683   1.108   0.682   3.510 -0.2119  0.0714  0.0740
 6163TIP3    H142684   1.125   0.767   3.551 -1.6083  0.4257 -0.0477
 6163TIP3    H242685   1.013   0.672   3.512 -0.1510 -0.9948 -0.9114
 6164TIP3   OH242686   0.298   2.508   3.055 -0.1191  0.2304 -0.0515
 6164TIP3    H142687   0.284   2.574   2.987 -0.8134 -0.8825 -1.0226
 6164TIP3    H242688   0.382   2.469   3.034 -0.5815 -0.4923 -0.6355
 6165TIP3   OH242689   3.525   3.807   2.161 -0.0764  0.2028  0.5326
 6165TIP3    H142690   3.530   3.711   2.167  0.8321  0.2004  0.0045
 6165TIP3    H242691   3.431   3.826   2.158 -0.4403 -0.4331  3.9022
 6166TIP3   OH242692   0.426   3.705   1.037  0.2674 -0.1037 -0.2140
 6166TIP3    H142693   0.404   3.762   1.111 -0.7962  0.1220 -0.6751
 6166TIP3    H242694   0.341   3.677   1.003  0.6503  1.1791 -2.4238
 6167TIP3   OH242695   0.946   5.485   2.246  0.1942 -0.0332 -0.4251
 6167TIP3    H142696   0.922   5.554   2.308  2.6589  0.3991  0.1591
 6167TIP3    H242697   0.913   5.404   2.286 -0.5694  0.5267  0.1116
 6168TIP3   OH242698   1.920   2.051   2.553 -0.0235 -0.0144  0.0889
 6168TIP3    H142699   1.979   2.111   2.598 -1.2813  2.4093 -1.2927
 6168TIP3    H242700   1.834   2.068   2.590 -0.4686 -0.7282 -0.5752
 6169TIP3   OH242701   0.122   0.980   8.887  0.0990 -0.2729  0.0825
 6169TIP3    H142702   0.154   0.899   8.847  0.5152  0.4364 -1.0660
 6169TIP3    H242703   0.033   0.990   8.853 -0.0587 -0.4005  0.4572
 6170TIP3   OH242704   0.903   0.788   1.549 -0.3047  0.0829  0.2430
 6170TIP3    H142705   0.991   0.820   1.571 -0.7567  1.4400  0.1411
 6170TIP3    H242706   0.895   0.801   1.454 -1.2706  1.7055  0.5151
 6171TIP3   OH242707   3.972   6.407   2.825  0.1827 -0.0213 -0.2443
 6171TIP3    H142708   3.978   6.441   2.914  0.1072  1.1898 -0.6855
 6171TIP3    H242709   4.063   6.392   2.800  0.1307 -2.8270  0.9074
 6172TIP3   OH242710   7.414   0.029   1.294 -0.5946  0.3610 -0.1098
 6172TIP3    H142711   7.480   0.098   1.286 -0.2476  0.1019  0.4972
 6172TIP3    H242712   7.361   0.054   1.369 -2.5951  1.7236 -1.8627
 6173TIP3   OH242713   0.623   0.488   3.000 -0.8343 -0.3145  0.4209
 6173TIP3    H142714   0.590   0.571   3.034  0.5341  0.3376  0.2216
 6173TIP3    H242715   0.705   0.473   3.047 -0.6925 -1.1766 -0.0762
 6174TIP3   OH242716   6.265   1.139   0.807 -0.0200  0.4087  0.5626
 6174TIP3    H142717   6.234   1.061   0.853 -0.3965  0.0148 -0.3526
 6174TIP3    H242718   6.192   1.167   0.753  0.5757  0.5877 -0.1665
 6175TIP3   OH242719   0.238   5.936   0.643  0.0825  0.1191 -0.2727
 6175TIP3    H142720   0.145   5.920   0.656 -0.0533  1.3018  0.3742
 6175TIP3    H242721   0.242   5.996   0.569  0.2515  0.8607  0.3252
 6176TIP3   OH242722   1.132   2.224   2.371  0.6221 -0.0834  0.4395
 6176TIP3    H142723   1.128   2.214   2.466 -2.1824 -1.1364  0.3033
 6176TIP3    H242724   1.062   2.167   2.338  0.8173  1.0654 -2.1836
 6177TIP3   OH242725   4.673   2.400   2.436 -0.2532 -0.0877 -0.6815
 6177TIP3    H142726   4.768   2.413   2.439 -0.2835  0.7702 -2.4900
 6177TIP3    H242727   4.643   2.460   2.369 -2.3651  1.1230  1.2195
 6178TIP3   OH242728   6.445   4.592   1.083  0.0388 -0.0091 -0.3393
 6178TIP3    H142729   6.522   4.637   1.119  0.5642  0.8939 -2.4186
 6178TIP3    H242730   6.482   4.529   1.021 -0.8782  0.3624 -1.2870
 6179TIP3   OH242731   0.655   4.685   1.432  0.3800  0.4364  0.5160
 6179TIP3    H142732   0.567   4.665   1.400  1.0167 -0.5046 -0.7438
 6179TIP3    H242733   0.652   4.777   1.457 -1.2192  0.1624  1.4466
 6180TIP3   OH242734   2.219   2.527   2.273 -0.1066 -0.7297 -0.5412
 6180TIP3    H142735   2.156   2.483   2.330  0.8047 -2.5000 -0.8506
 6180TIP3    H242736   2.190   2.507   2.184 -0.4192  0.4064 -0.7094
 6181TIP3   OH242737   6.300   3.637   2.385 -0.6539  0.1368  0.0141
 6181TIP3    H142738   6.394   3.647   2.401 -0.7175  1.4007 -0.2805
 6181TIP3    H242739   6.287   3.543   2.372  0.8675  0.1075 -1.6800
 6182TIP3   OH242740   1.101   6.085   3.107  0.3550  0.1514  0.4652
 6182TIP3    H142741   1.066   6.021   3.169  1.3036 -0.7537  0.1028
 6182TIP3    H242742   1.119   6.162   3.160  1.4279 -0.7051  1.4200
 6183TIP3   OH242743   0.056   1.938   2.166 -0.0670 -0.2294  0.0207
 6183TIP3    H142744   0.119   1.900   2.227 -1.0671 -0.6248  0.8552
 6183TIP3    H242745   0.013   1.863   2.125  0.6575  0.0355 -1.2753
 6184TIP3   OH242746   0.803   0.137   0.506  0.3510  0.4346 -0.3890
 6184TIP3    H142747   0.777   0.193   0.579 -3.0524  1.1103 -1.8873
 6184TIP3    H242748   0.866   0.189   0.456  1.4438  0.6176  1.1320
 6185TIP3   OH242749   4.838   4.439   2.251 -0.3753 -0.3370 -0.2848
 6185TIP3    H142750   4.890   4.393   2.186  0.2936  1.0038 -0.7415
 6185TIP3    H242751   4.792   4.370   2.299  0.7711 -1.4666 -0.7675
 6186TIP3   OH242752   7.247   5.801   1.817  0.0421  0.1753 -0.6351
 6186TIP3    H142753   7.184   5.821   1.886 -0.3790 -2.1645 -0.2577
 6186TIP3    H242754   7.332   5.799   1.862  0.0388  0.6408 -0.6020
 6187TIP3   OH242755   0.453   4.582   2.185  0.3382  0.1095 -0.5178
 6187TIP3    H142756   0.386   4.636   2.226  1.7225  0.7180  1.0645
 6187TIP3    H242757   0.481   4.521   2.254  1.4395 -0.0908 -1.1075
 6188TIP3   OH242758   2.483   3.374   0.748 -0.6279  0.5396  0.3333
 6188TIP3    H142759   2.543   3.428   0.800  0.1347 -0.6187  0.6912
 6188TIP3    H242760   2.435   3.437   0.694  1.1168  1.4856 -0.1738
 6189TIP3   OH242761   2.783   1.680   3.189  0.3668 -0.2057  0.2646
 6189TIP3    H142762   2.741   1.757   3.150 -0.7489 -1.4724 -1.1608
 6189TIP3    H242763   2.876   1.695   3.178  0.1274  0.4909 -0.9191
 6190TIP3   OH242764   1.102   3.573   1.107  0.1188 -0.0767 -0.4006
 6190TIP3    H142765   1.189   3.535   1.118  0.5526  0.8947 -0.3625
 6190TIP3    H242766   1.062   3.521   1.038 -0.1421 -1.9891  1.1183
 6191TIP3   OH242767   7.521   4.296   2.162 -0.3774 -0.1037  0.2795
 6191TIP3    H142768   7.446   4.240   2.143 -0.0725 -0.6924  0.7669
 6191TIP3    H242769   7.546   4.274   2.252 -0.4826  1.0980  0.6229
 6192TIP3   OH242770   0.339   3.133   0.707 -0.1056 -0.2814 -0.1589
 6192TIP3    H142771   0.352   3.039   0.698 -0.4356 -0.3333 -0.1219
 6192TIP3    H242772   0.424   3.167   0.732 -0.3136 -0.7628  1.2792
 6193TIP3   OH242773   1.703   1.550   2.068  0.6170  0.2238 -0.0810
 6193TIP3    H142774   1.668   1.481   2.012 -2.8771 -1.3681  3.6228
 6193TIP3    H242775   1.682   1.631   2.022 -0.4337 -0.9946 -1.8830
 6194TIP3   OH242776   2.893   7.034   2.248 -0.6712  0.2680  0.2145
 6194TIP3    H142777   2.890   6.951   2.296 -0.0531  1.0838  1.7608
 6194TIP3    H242778   2.981   7.037   2.210 -0.6562  0.2630  0.2492
 6195TIP3   OH242779   1.582   3.225   1.639  0.0508 -0.2333 -0.2009
 6195TIP3    H142780   1.499   3.265   1.614  0.2936 -0.5158 -1.5932
 6195TIP3    H242781   1.640   3.242   1.564  1.3564  0.2249  0.8546
 6196TIP3   OH242782   7.253   4.585   1.687 -0.6060 -0.1727  0.3944
 6196TIP3    H142783   7.273   4.631   1.768 -1.8889  1.2389 -0.0489
 6196TIP3    H242784   7.227   4.497   1.715 -0.5108  0.1255  1.4639
 6197TIP3   OH242785   7.403   3.285   2.238 -0.1404  0.0819 -0.0612
 6197TIP3    H142786   7.333   3.219   2.236  0.0740 -0.1392 -0.3947
 6197TIP3    H242787   7.384   3.342   2.164 -0.3134  0.3862  0.2154
 6198TIP3   OH242788   3.642   4.997   2.482 -1.1190  0.4250  0.3723
 6198TIP3    H142789   3.704   4.926   2.467 -1.1790  0.3969  0.2551
 6198TIP3    H242790   3.595   4.973   2.561 -0.4954  0.7833  0.8643
 6199TIP3   OH242791   1.731   1.554   0.995  0.1448  0.1126  0.4389
 6199TIP3    H142792   1.717   1.490   1.064 -0.4385 -0.8291 -0.5134
 6199TIP3    H242793   1.702   1.637   1.033  0.7798 -0.2014  1.6411
 6200TIP3   OH242794   4.056   5.876   1.730 -0.5755  0.1609 -0.6456
 6200TIP3    H142795   4.021   5.909   1.813  0.1731  0.5466 -0.4714
 6200TIP3    H242796   3.980   5.872   1.672 -0.9820  0.5675 -0.1561
 6201TIP3   OH242797   5.555   6.643   2.372 -0.5863  0.0375 -0.2139
 6201TIP3    H142798   5.606   6.591   2.434  0.3491 -1.6981 -2.2678
 6201TIP3    H242799   5.476   6.591   2.357 -1.4675  1.1261  0.5300
 6202TIP3   OH242800   4.158   7.103   1.747 -0.2266  0.4555  0.1246
 6202TIP3    H142801   4.072   7.093   1.787 -0.4314 -0.9855 -0.5668
 6202TIP3    H242802   4.140   7.108   1.653  0.4414 -0.3610 -0.0687
 6203TIP3   OH242803   4.937   0.490   2.011  0.0499  0.5373  0.0982
 6203TIP3    H142804   5.019   0.448   2.035 -0.2963 -0.8134 -0.9786
 6203TIP3    H242805   4.960   0.544   1.935 -0.1124 -0.1008 -0.4107
 6204TIP3   OH242806   5.888   6.439   0.910  0.0307 -0.0542 -0.1333
 6204TIP3    H142807   5.899   6.431   0.815 -0.4458 -0.6300 -0.1497
 6204TIP3    H242808   5.961   6.494   0.938 -0.2435  0.7282 -0.9229
 6205TIP3   OH242809   1.727   1.811   1.411  0.0973  0.0208  0.3778
 6205TIP3    H142810   1.673   1.760   1.350  0.5884  0.2748 -0.2807
 6205TIP3    H242811   1.674   1.888   1.431 -0.3843 -0.4251  0.8836
 6206TIP3   OH242812   6.956   5.825   0.795 -0.7517  0.1000  0.1200
 6206TIP3    H142813   6.921   5.755   0.851 -1.9405  0.0498 -0.6428
 6206TIP3    H242814   6.901   5.822   0.717  0.5933  0.4517 -0.8757
 6207TIP3   OH242815   3.524   0.877   0.528 -0.1884 -0.0181 -0.2047
 6207TIP3    H142816   3.563   0.956   0.490 -0.4205 -0.1437 -0.7040
 6207TIP3    H242817   3.443   0.863   0.479 -0.9135  0.2754  0.8567
 6208TIP3   OH242818   2.786   4.365   2.033 -0.0735 -0.0817 -0.1317
 6208TIP3    H142819   2.781   4.308   2.110 -2.1215 -0.8259 -0.7475
 6208TIP3    H242820   2.840   4.439   2.062 -0.9206 -0.2318  2.0987
 6209TIP3   OH242821   2.836   6.320   1.339  0.2464 -0.1472 -0.1731
 6209TIP3    H142822   2.855   6.412   1.322  0.7768 -0.4594 -1.4672
 6209TIP3    H242823   2.841   6.311   1.434 -0.9156  1.3721  0.0606
 6210TIP3   OH242824   2.374   7.063   1.498 -0.3575  0.0017  0.4002
 6210TIP3    H142825   2.345   7.154   1.487  0.1478  0.1192  0.0003
 6210TIP3    H242826   2.373   7.048   1.592  1.8603  1.1946  0.6627
 6211TIP3   OH242827   6.646   5.954   3.252 -0.3857 -0.2191 -0.1513
 6211TIP3    H142828   6.557   5.919   3.264 -0.7167  0.6561  0.0161
 6211TIP3    H242829   6.656   6.017   3.323  0.2363 -0.0455 -0.3916
 6212TIP3   OH242830   2.065   6.165   2.217  0.3576  0.0770  0.3944
 6212TIP3    H142831   2.133   6.106   2.184 -0.8342 -1.0118 -0.2093
 6212TIP3    H242832   1.998   6.106   2.252 -1.3492  0.9908 -1.1541
 6213TIP3   OH242833   1.806   2.137   1.439  0.4264  0.0622 -0.0097
 6213TIP3    H142834   1.755   2.097   1.369  0.4820 -0.6207  0.3357
 6213TIP3    H242835   1.741   2.173   1.499  0.3550  2.7735 -1.5648
 6214TIP3   OH242836   1.188   5.680   1.733  0.1146 -0.3146  0.7716
 6214TIP3    H142837   1.162   5.673   1.641  0.7132 -0.8302  0.6369
 6214TIP3    H242838   1.136   5.753   1.767 -0.7909 -0.7129  0.2703
 6215TIP3   OH242839   4.970   4.861   1.673  0.0098  0.2071  0.2697
 6215TIP3    H142840   4.898   4.819   1.720 -0.0190 -0.2179 -0.1372
 6215TIP3    H242841   4.936   4.873   1.584 -1.5546  4.9243  1.2430
 6216TIP3   OH242842   6.788   4.915   2.211 -0.0734  0.2705  0.1485
 6216TIP3    H142843   6.875   4.881   2.186 -0.1510  0.2759 -0.1380
 6216TIP3    H242844   6.734   4.836   2.220 -0.4367  0.3276 -1.2116
 6217TIP3   OH242845   6.808   5.293   1.952 -0.0003  0.5969 -0.3704
 6217TIP3    H142846   6.716   5.272   1.967 -0.0269  0.4202 -0.7867
 6217TIP3    H242847   6.828   5.256   1.866 -0.0811  2.3390 -1.1797
 6218TIP3   OH242848   2.706   0.072   2.641 -0.1277 -0.3356  0.4865
 6218TIP3    H142849   2.689   0.089   2.548  0.8876  1.3865  0.5598
 6218TIP3    H242850   2.743  -0.016   2.643 -0.2676 -0.4371 -0.7385
 6219TIP3   OH242851   0.093   5.716   3.303 -0.0180  0.3574 -0.2701
 6219TIP3    H142852   0.047   5.668   3.235 -2.0415 -0.6488  1.7046
 6219TIP3    H242853   0.116   5.650   3.368  1.9212  1.2764  0.0563
 6220TIP3   OH242854   2.451   6.582   2.442 -0.5316  0.0171  0.0545
 6220TIP3    H142855   2.399   6.558   2.365 -0.0955  1.7391 -0.8302
 6220TIP3    H242856   2.400   6.652   2.484 -0.6272 -0.7121  1.1930
 6221TIP3   OH242857   7.331   2.089   0.618 -0.4103  0.0886 -0.5043
 6221TIP3    H142858   7.237   2.085   0.635 -0.1305  0.3231  1.1831
 6221TIP3    H242859   7.337   2.120   0.527 -1.9728 -1.7431 -1.3005
 6222TIP3   OH242860   5.496   5.373   1.698 -0.1267  0.4454 -0.1563
 6222TIP3    H142861   5.420   5.431   1.694 -0.2866  0.2412 -0.0982
 6222TIP3    H242862   5.460   5.285   1.681  0.1716  0.4103 -0.6310
 6223TIP3   OH242863   4.839   5.335   2.353 -0.1160  0.5667  0.0101
 6223TIP3    H142864   4.786   5.327   2.432 -0.0956  1.5526  0.1454
 6223TIP3    H242865   4.802   5.272   2.291 -1.0882  0.8481  0.2928
 6224TIP3   OH242866   6.645   0.622   0.902  0.0166 -0.1909 -0.2646
 6224TIP3    H142867   6.606   0.663   0.979  1.1953  0.5160 -0.0117
 6224TIP3    H242868   6.613   0.532   0.903 -0.6406  0.0453  0.5877
 6225TIP3   OH242869   3.786   4.421   3.088  0.2595 -0.0663  0.3342
 6225TIP3    H142870   3.792   4.405   3.183  0.0374  0.8587  0.5119
 6225TIP3    H242871   3.837   4.501   3.074 -1.8777  1.3622  0.1095
 6226TIP3   OH242872   0.534   6.037   0.921  0.1966 -0.2013  0.4782
 6226TIP3    H142873   0.458   6.095   0.912 -0.1994 -0.4860  1.7733
 6226TIP3    H242874   0.500   5.950   0.903 -0.0749 -0.4747  2.1628
 6227TIP3   OH242875   7.610   3.402   0.486  0.6655  0.0758 -0.3799
 6227TIP3    H142876   7.634   3.316   0.518  0.9511  1.3046  3.1080
 6227TIP3    H242877   7.690   3.437   0.446  1.2785 -0.3443  0.4609
 6228TIP3   OH242878   3.395   3.848   1.107 -0.0190  0.4683  0.5858
 6228TIP3    H142879   3.489   3.853   1.091  0.0839  0.0605  1.0262
 6228TIP3    H242880   3.383   3.768   1.158 -0.9083 -0.7960 -1.4731
 6229TIP3   OH242881   0.471   3.811   1.844  0.3028  0.1091 -0.1662
 6229TIP3    H142882   0.471   3.889   1.789  0.6820  0.5687  0.4750
 6229TIP3    H242883   0.514   3.838   1.924 -1.6038 -0.1148  0.9966
 6230TIP3   OH242884   6.065   4.839   1.550  0.2265 -0.0125 -0.1660
 6230TIP3    H142885   6.004   4.913   1.547  1.7048  1.2239 -1.3653
 6230TIP3    H242886   6.009   4.762   1.553 -1.4369  1.0564 -1.6244
 6231TIP3   OH242887   6.296   0.174   1.140  0.3505 -0.2632 -0.2814
 6231TIP3    H142888   6.300   0.088   1.182  1.7546 -0.5304 -0.8929
 6231TIP3    H242889   6.316   0.235   1.210 -2.9236 -0.1618  0.7181
 6232TIP3   OH242890   4.024   0.810   2.741  0.4184  0.0822  0.4283
 6232TIP3    H142891   3.998   0.889   2.694 -0.0573 -0.4632 -0.2427
 6232TIP3    H242892   4.032   0.838   2.832  0.0153  0.8447  0.2386
 6233TIP3   OH242893   6.830   4.047   2.173 -0.4515 -0.5363  0.3174
 6233TIP3    H142894   6.802   4.048   2.265 -0.5810  0.8743  0.2897
 6233TIP3    H242895   6.749   4.043   2.123 -0.4307 -0.3032  0.2630
 6234TIP3   OH242896   2.230   2.180   2.363 -0.2285 -0.0882  0.3096
 6234TIP3    H142897   2.173   2.252   2.389 -0.5175 -0.3447  0.3873
 6234TIP3    H242898   2.253   2.200   2.272 -1.0703 -0.3812  0.0203
 6235TIP3   OH242899   0.711   3.525   1.410 -0.3189  0.0389  0.2245
 6235TIP3    H142900   0.710   3.620   1.425  1.8618 -0.3071  3.9673
 6235TIP3    H242901   0.803   3.501   1.422 -1.1712 -2.7961  1.9731
 6236TIP3   OH242902   2.253   0.792   0.614 -0.7044  0.7179  0.2793
 6236TIP3    H142903   2.271   0.821   0.704  1.6514 -2.8395  1.1519
 6236TIP3    H242904   2.332   0.814   0.566 -0.5325 -0.5159 -0.0221
 6237TIP3   OH242905   1.181   1.847   2.444  0.5630  0.3131 -0.1810
 6237TIP3    H142906   1.213   1.867   2.356  0.7547  2.6302  0.3519
 6237TIP3    H242907   1.241   1.893   2.503 -1.2540  1.3288  0.9952
 6238TIP3   OH242908   4.623   4.680   2.705 -0.0634 -0.0982 -0.0649
 6238TIP3    H142909   4.578   4.596   2.695 -0.9264  0.4182 -0.6910
 6238TIP3    H242910   4.567   4.742   2.659  0.3852  0.8855  0.6943
 6239TIP3   OH242911   1.220   5.446   3.616  0.0603 -0.4088  0.6706
 6239TIP3    H142912   1.170   5.405   3.546  0.8367 -0.3549  0.0768
 6239TIP3    H242913   1.168   5.523   3.640  1.0143  1.0751 -1.6601
 6240TIP3   OH242914   6.821   4.457   1.798  0.1203  0.2871  0.3006
 6240TIP3    H142915   6.850   4.543   1.829  0.9214  0.7305 -1.5033
 6240TIP3    H242916   6.820   4.466   1.702 -0.1210 -1.6135  0.0866
 6241TIP3   OH242917   0.818   6.807   0.427  0.7567  0.2745 -0.5048
 6241TIP3    H142918   0.732   6.787   0.464  1.0057 -1.4788 -0.8021
 6241TIP3    H242919   0.799   6.855   0.347 -0.0486 -1.3482 -1.3331
 6242TIP3   OH242920   2.867   1.541   1.113  0.1000 -0.0506 -0.0139
 6242TIP3    H142921   2.842   1.570   1.201 -2.0431  1.1650 -0.9653
 6242TIP3    H242922   2.957   1.573   1.102 -0.6980  2.6069  0.5963
 6243TIP3   OH242923   0.879   1.630   2.002 -0.0497  0.3059 -0.2753
 6243TIP3    H142924   0.817   1.582   1.948 -1.4915 -1.1341  2.4576
 6243TIP3    H242925   0.963   1.620   1.957 -1.1601 -0.6290 -2.2850
 6244TIP3   OH242926   2.488   1.038   2.312 -0.0502 -0.0832 -0.1057
 6244TIP3    H142927   2.493   1.038   2.408  2.1156 -1.2004 -0.1481
 6244TIP3    H242928   2.568   1.083   2.284  0.7414 -2.0972 -1.3368
 6245TIP3   OH242929   0.546   3.559   1.771 -0.6001  0.0804 -0.2651
 6245TIP3    H142930   0.527   3.643   1.814 -0.6761 -0.5742  1.0410
 6245TIP3    H242931   0.465   3.509   1.780 -0.1097 -0.6451  0.2636
 6246TIP3   OH242932   6.292   4.183   3.108 -0.0473 -0.0007  0.5959
 6246TIP3    H142933   6.368   4.131   3.135 -0.4139 -0.9396 -0.1064
 6246TIP3    H242934   6.310   4.206   3.017 -0.4994 -0.0436  0.4929
 6247TIP3   OH242935   4.010   1.937   0.767  0.5074  0.9149  0.5923
 6247TIP3    H142936   4.030   2.028   0.747  0.0056  0.6762 -1.1669
 6247TIP3    H242937   4.079   1.910   0.826  1.8252  1.8682 -0.4447
 6248TIP3   OH242938   0.540   5.505   1.721  0.1628 -0.3797  0.2427
 6248TIP3    H142939   0.496   5.432   1.764 -0.6688  0.0412  0.1141
 6248TIP3    H242940   0.544   5.480   1.628  0.5255 -0.5726  0.3058
 6249TIP3   OH242941   7.401   7.076   1.036  0.1420  0.0147 -0.0006
 6249TIP3    H142942   7.375   7.051   1.124 -0.0903 -0.5217 -0.2152
 6249TIP3    H242943   7.356   7.159   1.020 -1.5529 -0.9385 -0.4035
 6250TIP3   OH242944   4.437   4.108   2.619  0.3736  0.1736  0.5830
 6250TIP3    H142945   4.353   4.061   2.615 -0.0117  0.9710 -1.9059
 6250TIP3    H242946   4.451   4.122   2.713 -1.6213 -1.1114  1.1476
 6251TIP3   OH242947   2.771   4.259   2.300 -0.4063 -0.4721  0.1560
 6251TIP3    H142948   2.848   4.253   2.357 -0.2145  0.9698  0.0944
 6251TIP3    H242949   2.700   4.288   2.358 -0.0822  1.5563 -0.3811
 6252TIP3   OH242950   0.900   6.891   2.140 -0.1677 -0.0816 -0.0944
 6252TIP3    H142951   0.871   6.981   2.134 -0.5581 -0.2565 -0.8294
 6252TIP3    H242952   0.858   6.857   2.219 -1.4735 -0.1545 -0.8095
 6253TIP3   OH242953   1.496   5.548   2.412 -0.1133  0.0921  0.1323
 6253TIP3    H142954   1.425   5.611   2.405 -0.6619 -0.2452  1.9952
 6253TIP3    H242955   1.531   5.540   2.323 -2.2615  0.4068 -0.7961
 6254TIP3   OH242956   7.096   4.496   2.038 -0.2795  0.1248 -0.1602
 6254TIP3    H142957   7.191   4.488   2.035  0.0904  2.3562  1.9248
 6254TIP3    H242958   7.066   4.412   2.071  1.1763 -0.0003  0.9496
 6255TIP3   OH242959   0.057   7.445   2.294  0.3719  0.9755  0.2717
 6255TIP3    H142960   0.023   7.519   2.345 -0.1087  0.7456  0.2952
 6255TIP3    H242961  -0.018   7.416   2.242  0.8185  1.1131 -0.4534
 6256TIP3   OH242962   7.488   1.299   0.759 -0.1122 -0.5754 -0.1220
 6256TIP3    H142963   7.504   1.392   0.776 -0.5245 -0.4264 -0.5230
 6256TIP3    H242964   7.575   1.259   0.759  0.0438 -0.2407  0.3352
 6257TIP3   OH242965   2.126   3.161   1.421 -0.0296 -0.0964  0.3186
 6257TIP3    H142966   2.215   3.195   1.421 -0.0148 -0.1349  0.3775
 6257TIP3    H242967   2.073   3.231   1.382 -0.1128  0.2976  1.1142
 6258TIP3   OH242968   2.643   7.388   2.379  0.0117 -0.1123  0.2892
 6258TIP3    H142969   2.720   7.355   2.333 -1.2259 -2.1896 -0.4120
 6258TIP3    H242970   2.585   7.419   2.310 -0.6645 -0.5786  0.6352
 6259TIP3   OH242971   6.828   0.524   1.578 -0.5227  0.3720 -0.1754
 6259TIP3    H142972   6.904   0.581   1.585 -1.0413  1.0944 -0.3544
 6259TIP3    H242973   6.754   0.579   1.602 -1.1244  0.0071 -1.1391
 6260TIP3   OH242974   6.947   1.469   1.037 -0.0686  0.6398  0.0811
 6260TIP3    H142975   7.035   1.501   1.057  0.4338 -0.6893  0.0861
 6260TIP3    H242976   6.961   1.382   1.001 -1.3822  0.4720 -0.0600
 6261TIP3   OH242977   4.242   3.915   1.416 -0.2119 -0.5175  0.4140
 6261TIP3    H142978   4.243   3.911   1.512  0.6562 -1.3324  0.3873
 6261TIP3    H242979   4.248   3.824   1.388 -1.4800 -0.3561 -0.4310
 6262TIP3   OH242980   2.853   1.335   2.636  0.3015  0.4126  0.1063
 6262TIP3    H142981   2.847   1.315   2.542 -1.4576  2.1828 -0.2216
 6262TIP3    H242982   2.794   1.271   2.677  1.4890 -0.7213  0.1107
 6263TIP3   OH242983   2.558   6.918   1.324  0.4125  0.3360  0.2842
 6263TIP3    H142984   2.498   6.969   1.377  0.9029  0.7565  0.4428
 6263TIP3    H242985   2.612   6.983   1.279  0.4115 -0.0276 -0.2497
 6264TIP3   OH242986   2.084   7.285   0.771  0.6313 -0.1374  0.1946
 6264TIP3    H142987   2.096   7.364   0.718  1.3202 -0.6541 -0.4319
 6264TIP3    H242988   2.132   7.217   0.724 -0.9600 -1.2178  0.0773
 6265TIP3   OH242989   7.610   7.354   2.957 -0.0257  0.1434  0.8276
 6265TIP3    H142990   7.524   7.313   2.955 -0.7300  1.5169  1.1873
 6265TIP3    H242991   7.666   7.297   2.904 -1.1955 -0.6746  0.4332
 6266TIP3   OH242992   5.994   0.211   1.214  0.4335 -0.1500 -0.0935
 6266TIP3    H142993   6.089   0.216   1.223  0.2017  3.4483  2.4623
 6266TIP3    H242994   5.972   0.284   1.156 -0.8231 -0.8573 -0.5330
 6267TIP3   OH242995   2.480   4.367   2.789  0.0242 -0.6009 -0.4720
 6267TIP3    H142996   2.525   4.288   2.817  0.0270 -0.1637  0.8379
 6267TIP3    H242997   2.541   4.438   2.810 -0.4159 -0.1648 -0.6363
 6268TIP3   OH242998   0.968   0.938   1.973  0.5860 -0.0022  0.1003
 6268TIP3    H142999   1.052   0.894   1.961  1.2848  1.2639  0.2516
 6268TIP3    H243000   0.915   0.908   1.899  1.3017 -0.4780 -0.2317
 6269TIP3   OH243001   5.007   6.935   1.792  0.2458  0.0895 -0.1369
 6269TIP3    H143002   5.068   6.920   1.865  0.1054  0.6521  0.0995
 6269TIP3    H243003   5.019   6.858   1.736 -0.0833 -0.6521  0.7767
 6270TIP3   OH243004   4.665   1.585   1.163 -0.4663  0.4624 -0.5706
 6270TIP3    H143005   4.727   1.637   1.213 -0.8169  1.6346 -1.3151
 6270TIP3    H243006   4.584   1.589   1.215 -0.8149  1.6331 -1.1613
 6271TIP3   OH243007   3.370   2.851   2.144  0.3713 -0.3981  0.2896
 6271TIP3    H143008   3.459   2.876   2.168  0.9935  0.3367 -2.4372
 6271TIP3    H243009   3.328   2.933   2.119 -0.5847 -0.9411  0.0466
 6272TIP3   OH243010   3.322   6.861   1.713  0.2299 -0.1108  0.0787
 6272TIP3    H143011   3.324   6.950   1.748 -0.4316  0.6689 -1.7693
 6272TIP3    H243012   3.243   6.822   1.752  0.0327  0.4012  0.1995
 6273TIP3   OH243013   2.825   0.633   1.526 -0.4219 -0.3050  0.1092
 6273TIP3    H143014   2.802   0.541   1.515 -1.3015 -0.0671 -0.1349
 6273TIP3    H243015   2.854   0.640   1.617  0.5004 -0.9868 -0.1208
 6274TIP3   OH243016   0.153   4.924   3.162 -0.0128  0.3496  0.0028
 6274TIP3    H143017   0.187   4.892   3.246  0.6062 -1.2173 -0.7935
 6274TIP3    H243018   0.060   4.941   3.179  0.0853 -0.0171  0.9833
 6275TIP3   OH243019   1.166   6.917   2.840 -0.6715 -0.7313 -0.2015
 6275TIP3    H143020   1.095   6.980   2.852  2.0197  2.3387  0.7885
 6275TIP3    H243021   1.145   6.846   2.900 -2.3489  0.6077  0.8965
 6276TIP3   OH243022   3.334   2.429   1.920 -0.6771 -0.1504 -0.1204
 6276TIP3    H143023   3.281   2.462   1.993 -1.2877 -0.0990 -0.5775
 6276TIP3    H243024   3.354   2.339   1.943 -0.1532  0.1163  0.5027
 6277TIP3   OH243025   3.363   0.683   0.772 -0.6561  0.0260  0.1962
 6277TIP3    H143026   3.397   0.605   0.729 -0.2634  0.3488 -0.0830
 6277TIP3    H243027   3.422   0.698   0.845  0.1955  0.9451 -0.6507
 6278TIP3   OH243028   5.069   6.679   1.689  0.6536  0.6155  0.3045
 6278TIP3    H143029   5.058   6.706   1.598 -1.1195  2.4464  0.9806
 6278TIP3    H243030   5.045   6.586   1.689  0.9297  0.5264 -1.1308
 6279TIP3   OH243031   3.584   1.133   0.414  0.0848  0.2852  0.5270
 6279TIP3    H143032   3.516   1.125   0.347  0.9261  0.9890 -0.4505
 6279TIP3    H243033   3.618   1.222   0.403  0.5924  0.2419  1.5630
 6280TIP3   OH243034   0.328   1.600   0.385 -0.3977 -0.1700  0.0987
 6280TIP3    H143035   0.418   1.596   0.354  0.5471  1.1277  2.4729
 6280TIP3    H243036   0.294   1.682   0.350 -0.3682 -0.1861  0.0307
 6281TIP3   OH243037   5.813   6.565   1.835  0.0613  0.0132 -0.6893
 6281TIP3    H143038   5.760   6.528   1.906  1.0993  0.8741  0.6032
 6281TIP3    H243039   5.785   6.519   1.757  0.0940 -2.2548  0.5415
 6282TIP3   OH243040   2.516   3.728   1.077  0.1341 -0.0840  0.4213
 6282TIP3    H143041   2.513   3.708   1.170  0.9642  0.0067  0.4706
 6282TIP3    H243042   2.552   3.649   1.036  0.3126  0.0872  0.2444
 6283TIP3   OH243043   1.225   0.425   3.503  0.0718  0.4017  0.0417
 6283TIP3    H143044   1.181   0.508   3.522 -1.4647 -0.1274 -0.9988
 6283TIP3    H243045   1.292   0.447   3.438  0.9355  1.0967  1.1177
 6284TIP3   OH243046   4.759   3.082   2.019  0.0949  0.2260  0.1190
 6284TIP3    H143047   4.702   3.007   2.036  0.2825 -0.0414 -0.4225
 6284TIP3    H243048   4.841   3.061   2.063 -0.3476  0.8094  1.2827
 6285TIP3   OH243049   3.620   7.046   0.876  0.0403 -0.2218 -0.2965
 6285TIP3    H143050   3.585   6.990   0.806  0.0742  0.9500 -1.2686
 6285TIP3    H243051   3.693   6.996   0.912  1.7651  0.2504 -2.9053
 6286TIP3   OH243052   6.414   0.938   1.449  0.2414 -0.2848  0.4285
 6286TIP3    H143053   6.482   1.005   1.456 -0.1605  0.0533  1.2279
 6286TIP3    H243054   6.362   0.964   1.372  1.1162 -0.6563 -0.3079
 6287TIP3   OH243055   4.548   0.590   2.703  0.5285  0.8489  0.3626
 6287TIP3    H143056   4.461   0.630   2.698  0.2809  0.3647  0.7312
 6287TIP3    H243057   4.576   0.583   2.612  0.6520  2.0086  0.2944
 6288TIP3   OH243058   1.872   5.936   2.138 -0.0470 -0.0122  0.5002
 6288TIP3    H143059   1.864   6.008   2.076  0.0072 -2.1986 -2.2442
 6288TIP3    H243060   1.808   5.956   2.206 -1.4856  1.6194 -1.2164
 6289TIP3   OH243061   5.815   5.641   1.456  0.3627 -0.0807  0.1634
 6289TIP3    H143062   5.782   5.660   1.544  0.6322 -0.8886  0.4531
 6289TIP3    H243063   5.907   5.617   1.471  0.4592 -0.0438 -0.3645
 6290TIP3   OH243064   1.158   6.097   2.674  0.4403 -0.5050 -0.2967
 6290TIP3    H143065   1.163   6.165   2.741 -1.9481  0.8466 -1.3068
 6290TIP3    H243066   1.100   6.031   2.711  1.0040 -0.9069 -0.1366
 6291TIP3   OH243067   3.233   7.354   1.619 -0.3553 -0.1748 -0.0527
 6291TIP3    H143068   3.290   7.430   1.630 -1.1812  0.2453  1.5172
 6291TIP3    H243069   3.150   7.390   1.588 -0.3700 -0.5833 -0.5088
 6292TIP3   OH243070   5.296   4.325   1.364  0.9374 -0.0968 -0.1436
 6292TIP3    H143071   5.251   4.364   1.289 -0.6755 -2.0091 -0.2557
 6292TIP3    H243072   5.382   4.300   1.331  0.1354 -1.1935 -1.4857
 6293TIP3   OH243073   7.553   7.494   0.929  0.0492  0.0586  0.1242
 6293TIP3    H143074   7.629   7.502   0.987 -0.8672 -0.2216  1.4183
 6293TIP3    H243075   7.580   7.536   0.848  1.7078 -0.3622  0.4243
 6294TIP3   OH243076   6.779   3.848   1.002 -0.8147 -0.1034  0.1580
 6294TIP3    H143077   6.750   3.769   1.047  0.6414 -0.2194  0.9388
 6294TIP3    H243078   6.834   3.816   0.931  1.8954  0.1763  1.9774
 6295TIP3   OH243079   1.289   0.737   1.633  0.1851 -0.4440 -0.2366
 6295TIP3    H143080   1.376   0.699   1.618  0.2909  0.0562 -1.0070
 6295TIP3    H243081   1.232   0.690   1.572 -0.0371 -0.5901  0.0813
 6296TIP3   OH243082   6.944   6.109   1.238  0.3928 -0.4385  0.2904
 6296TIP3    H143083   6.886   6.070   1.172  0.2885 -1.8497  1.1709
 6296TIP3    H243084   6.892   6.180   1.277  0.2672  0.0587 -0.7496
 6297TIP3   OH243085   7.603   3.637   0.827  0.0607 -0.6648  0.3628
 6297TIP3    H143086   7.617   3.542   0.824  1.7513 -0.4372 -0.1317
 6297TIP3    H243087   7.569   3.659   0.740 -2.0488 -0.9986  1.0325
 6298TIP3   OH243088   3.540   6.377   2.495  0.0719 -0.0521 -0.8617
 6298TIP3    H143089   3.625   6.333   2.486  1.2145  1.9272 -0.3860
 6298TIP3    H243090   3.491   6.322   2.556  0.5908 -1.7571 -1.8854
 6299TIP3   OH243091   6.364   4.679   1.899  0.0267  0.1715 -0.1121
 6299TIP3    H143092   6.333   4.589   1.891 -0.3601  0.4010 -1.5607
 6299TIP3    H243093   6.459   4.672   1.904 -0.0560 -0.3635  0.8795
 6300TIP3   OH243094   3.839   7.531   2.068  0.6324  0.1524 -0.0586
 6300TIP3    H143095   3.745   7.542   2.084  0.7270 -0.0295  0.6325
 6300TIP3    H243096   3.849   7.437   2.050  0.6894  0.1624 -0.0802
 6301TIP3   OH243097   2.465   6.883   2.209  0.1014 -0.0100  0.0578
 6301TIP3    H143098   2.419   6.922   2.134  1.8323  2.3501  0.1286
 6301TIP3    H243099   2.557   6.899   2.191  0.6478 -0.9403  1.8984
 6302TIP3   OH243100   6.062   0.644   0.953 -0.0312  0.1954 -0.1764
 6302TIP3    H143101   5.993   0.594   0.909  0.7057  0.9789 -2.3375
 6302TIP3    H243102   6.132   0.581   0.969 -0.0848  0.0148 -0.6446
 6303TIP3   OH243103   6.025   1.790   1.020  0.0602 -0.0908 -0.2821
 6303TIP3    H143104   5.955   1.767   0.959  0.1803  0.8922 -0.8077
 6303TIP3    H243105   6.104   1.750   0.982  0.0399  0.0646 -0.4907
 6304TIP3   OH243106   3.759   6.745   2.750  0.1069 -0.1596 -0.2207
 6304TIP3    H143107   3.744   6.835   2.779  0.3414  0.6541 -2.4367
 6304TIP3    H243108   3.851   6.729   2.769  0.2118  0.2790 -0.3555
 6305TIP3   OH243109   0.727   5.696   3.588 -0.1452 -0.1915 -0.3731
 6305TIP3    H143110   0.631   5.699   3.591 -0.1196  0.1526  0.1544
 6305TIP3    H243111   0.746   5.632   3.519 -0.7387  1.6257 -2.3268
 6306TIP3   OH243112   7.380   0.598   0.909 -0.4728 -0.0798  0.1896
 6306TIP3    H143113   7.384   0.692   0.891  0.3664  0.0090  0.8279
 6306TIP3    H243114   7.287   0.576   0.899 -0.4919  0.5350 -1.3336
 6307TIP3   OH243115   2.385   2.850   2.267 -0.0953  0.4704  0.1432
 6307TIP3    H143116   2.359   2.942   2.277  1.0400  1.0249 -1.6583
 6307TIP3    H243117   2.325   2.802   2.325 -0.1981  2.3955  1.7196
 6308TIP3   OH243118   6.848   4.064   1.455  0.3262  0.4451 -0.2813
 6308TIP3    H143119   6.925   4.119   1.440  0.0508  0.6510 -0.9618
 6308TIP3    H243120   6.823   4.083   1.546 -0.3808  2.2610 -0.8157
 6309TIP3   OH243121   1.757   5.544   3.447 -0.2448 -0.3588  0.3004
 6309TIP3    H143122   1.702   5.521   3.521 -0.7235 -1.1592 -0.2914
 6309TIP3    H243123   1.714   5.619   3.407 -0.7289 -0.7682  0.0435
 6310TIP3   OH243124   1.035   2.414   2.718  0.7208 -0.0582 -0.5459
 6310TIP3    H143125   1.068   2.325   2.715 -1.0441 -0.7648 -0.3488
 6310TIP3    H243126   1.070   2.450   2.799 -0.9541 -1.6352  0.9834
 6311TIP3   OH243127   3.002   1.845   1.360 -0.1080 -0.2608 -0.0303
 6311TIP3    H143128   2.970   1.762   1.393 -0.0491 -0.6529 -0.9395
 6311TIP3    H243129   2.949   1.862   1.282  0.3751  0.1893 -0.2668
 6312TIP3   OH243130   5.456   5.431   1.015 -0.8411  0.0512  0.5833
 6312TIP3    H143131   5.448   5.412   1.108  3.3026 -0.7608  0.9225
 6312TIP3    H243132   5.521   5.502   1.010 -1.3177  0.4176 -1.6989
 6313TIP3   OH243133   1.740   3.100   2.011 -0.5371  0.1052  0.6289
 6313TIP3    H143134   1.815   3.071   2.062 -3.1800 -2.1007  3.6102
 6313TIP3    H243135   1.664   3.083   2.067 -3.3744  1.6209 -2.4056
 6314TIP3   OH243136   2.942   4.585   2.782  0.1665 -0.0580 -0.4228
 6314TIP3    H143137   3.007   4.628   2.837 -1.5993  1.1833  0.8138
 6314TIP3    H243138   2.872   4.650   2.772 -1.3096 -1.6375 -0.9064
 6315TIP3   OH243139   0.363   6.228   1.574  0.4671  0.3525 -0.7096
 6315TIP3    H143140   0.325   6.251   1.659 -0.5500  0.2830 -1.1270
 6315TIP3    H243141   0.446   6.186   1.595  0.4052  0.6878  0.2346
 6316TIP3   OH243142   6.507   6.472   0.831 -0.6896 -0.7944  0.3400
 6316TIP3    H143143   6.554   6.478   0.748 -1.3951  0.4057  0.0046
 6316TIP3    H243144   6.572   6.440   0.893  0.1583 -0.6079 -0.4307
 6317TIP3   OH243145   4.686   5.259   3.321  0.0334  0.3170 -0.1017
 6317TIP3    H143146   4.707   5.351   3.307  0.7217  0.2118  0.1855
 6317TIP3    H243147   4.768   5.213   3.302  0.9214  0.0975  3.4059
 6318TIP3   OH243148   0.096   2.404   1.345  0.3432  0.0794 -0.0431
 6318TIP3    H143149   0.114   2.347   1.421 -1.4273 -2.1529 -1.1922
 6318TIP3    H243150   0.001   2.414   1.344  0.3315  0.0609 -1.9588
 6319TIP3   OH243151   4.514   5.197   1.707 -0.6309  0.4323  0.4516
 6319TIP3    H143152   4.544   5.242   1.786  0.6126  1.2849 -0.4661
 6319TIP3    H243153   4.558   5.112   1.709  0.1046  0.7962  0.2632
 6320TIP3   OH243154   2.744   1.105   1.316  0.1666  0.8122  0.0827
 6320TIP3    H143155   2.669   1.086   1.258 -0.2140 -0.1425  0.8620
 6320TIP3    H243156   2.771   1.019   1.349  0.6618  1.2984  0.9758
 6321TIP3   OH243157   2.188   4.041   2.231  0.2210 -0.2699 -0.3223
 6321TIP3    H143158   2.164   3.952   2.259 -1.0170  0.0556 -0.3000
 6321TIP3    H243159   2.186   4.093   2.311 -1.1039  0.1920 -0.6281
 6322TIP3   OH243160   6.522   1.180   1.507 -0.5183 -0.7960  0.4159
 6322TIP3    H143161   6.495   1.182   1.599  0.5175 -0.3139  0.7343
 6322TIP3    H243162   6.614   1.207   1.509 -0.1346 -1.9396 -0.6483
 6323TIP3   OH243163   1.506   5.408   3.642  0.0774 -0.1115  0.0828
 6323TIP3    H143164   1.538   5.485   3.690 -0.3440 -1.0815  2.0167
 6323TIP3    H243165   1.412   5.421   3.636  0.2812  0.9156 -2.2867
 6324TIP3   OH243166   7.320   7.349   0.917 -0.0930  0.0510  0.4000
 6324TIP3    H143167   7.248   7.411   0.929  0.6554  1.1667 -0.6448
 6324TIP3    H243168   7.398   7.403   0.912  0.4589 -0.8165 -1.7790
 6325TIP3   OH243169   6.055   1.211   1.127  0.1203  0.7935  0.3078
 6325TIP3    H143170   6.003   1.218   1.047  1.2901 -0.9301 -0.6557
 6325TIP3    H243171   6.003   1.156   1.185  0.5057 -0.2946 -0.3622
 6326TIP3   OH243172   3.172   6.300   2.110 -0.1923 -0.0878  0.0553
 6326TIP3    H143173   3.256   6.313   2.154 -0.6392 -0.1277  0.9510
 6326TIP3    H243174   3.186   6.227   2.050  0.9143  1.0884 -1.1910
 6327TIP3   OH243175   2.159   2.587   0.716 -0.1349  0.3135  0.1339
 6327TIP3    H143176   2.200   2.551   0.795 -0.8153  0.6866  0.6711
 6327TIP3    H243177   2.231   2.601   0.655  0.3644 -0.2558  0.5805
 6328TIP3   OH243178   4.246   0.600   0.923 -0.5109  0.1305  0.1801
 6328TIP3    H143179   4.284   0.673   0.875  0.3020  0.4026  1.1937
 6328TIP3    H243180   4.186   0.558   0.861  0.2877  0.6331 -0.9543
 6329TIP3   OH243181   2.328   3.223   2.861  0.0495  0.1969  0.1847
 6329TIP3    H143182   2.350   3.132   2.840  0.3487  0.6688 -1.6715
 6329TIP3    H243183   2.410   3.271   2.848  0.0295  0.6909  1.6529
 6330TIP3   OH243184   3.127   1.165   0.456 -0.0191  0.1755  0.5568
 6330TIP3    H143185   3.143   1.259   0.448  1.2403 -0.0092  0.7302
 6330TIP3    H243186   3.154   1.143   0.545 -2.0913 -0.0375  1.1840
 6331TIP3   OH243187   4.595   0.921   0.926 -0.2035 -0.3169  0.0947
 6331TIP3    H143188   4.626   1.011   0.936 -1.0802 -0.0368  0.3080
 6331TIP3    H243189   4.669   0.875   0.885  1.7270 -0.3763  3.2524
 6332TIP3   OH243190   3.342   2.343   1.065 -0.1534  0.0083  0.4982
 6332TIP3    H143191   3.257   2.378   1.038 -0.1129 -0.1289  0.1853
 6332TIP3    H243192   3.369   2.288   0.991 -0.6074 -1.3769  1.3224
 6333TIP3   OH243193   3.921   2.036   1.138 -0.5479  0.1972  0.0226
 6333TIP3    H143194   3.876   2.066   1.217  0.4822  1.3403  0.1952
 6333TIP3    H243195   3.856   1.980   1.094 -1.2970 -0.1002  1.4275
 6334TIP3   OH243196   4.810   5.913   3.034  0.1038 -0.3138  0.4936
 6334TIP3    H143197   4.898   5.951   3.032  0.0118 -0.1059 -0.5923
 6334TIP3    H243198   4.785   5.907   2.941 -0.2890 -2.0776  0.6819
 6335TIP3   OH243199   4.428   7.250   1.445 -0.0883 -0.3775 -0.1793
 6335TIP3    H143200   4.424   7.338   1.481 -1.3402 -0.1034 -0.9316
 6335TIP3    H243201   4.498   7.207   1.495 -0.1726  0.7003  0.9195
 6336TIP3   OH243202   2.401   4.162   0.642 -0.2919  0.3974  0.2980
 6336TIP3    H143203   2.445   4.211   0.712 -1.6476  1.5541  0.3895
 6336TIP3    H243204   2.390   4.226   0.571 -0.0264 -0.4299 -0.5025
 6337TIP3   OH243205   5.626   7.541   1.638 -0.1299  0.1130 -0.2693
 6337TIP3    H143206   5.616   7.548   1.543  0.1767 -0.9937 -0.4067
 6337TIP3    H243207   5.619   7.630   1.670  2.9846  0.9809 -1.6393
 6338TIP3   OH243208   6.875   0.664   2.105 -0.1338  0.5127  0.0492
 6338TIP3    H143209   6.785   0.639   2.087  0.6617 -2.2849 -0.6310
 6338TIP3    H243210   6.894   0.733   2.041 -1.6477  0.8545 -0.0650
 6339TIP3   OH243211   6.242   3.150   1.241 -0.2779  0.0966  0.3743
 6339TIP3    H143212   6.181   3.131   1.312 -0.0297  0.9447  0.8286
 6339TIP3    H243213   6.302   3.074   1.240  1.4387  1.2568  2.9426
 6340TIP3   OH243214   3.911   6.535   1.315 -0.1792  0.3513 -0.2403
 6340TIP3    H143215   3.925   6.630   1.324  2.1012 -0.1209  2.6865
 6340TIP3    H243216   3.998   6.497   1.330 -1.5983 -2.3087  2.0514
 6341TIP3   OH243217   7.336   1.047   2.123  0.0460  0.1399 -0.4694
 6341TIP3    H143218   7.252   1.075   2.086 -0.5304 -0.1209  0.5965
 6341TIP3    H243219   7.365   1.121   2.177 -0.3647 -0.4101  0.5412
 6342TIP3   OH243220   7.313   0.297   2.643 -0.4083  0.0070  0.5876
 6342TIP3    H143221   7.346   0.385   2.664 -0.3221  0.2867 -0.6123
 6342TIP3    H243222   7.306   0.297   2.548  0.1512 -1.5051  0.5218
 6343TIP3   OH243223   2.352   2.221   0.958  0.2773  0.6417  0.5202
 6343TIP3    H143224   2.303   2.192   1.034  0.1634  2.4347  1.1768
 6343TIP3    H243225   2.379   2.140   0.914  0.1492 -0.4307  2.3251
 6344TIP3   OH243226   1.362   7.306   2.823 -0.3133  0.6735  0.0987
 6344TIP3    H143227   1.272   7.325   2.853  0.2565  2.2702  0.9075
 6344TIP3    H243228   1.351   7.276   2.733 -1.7404 -0.1734  0.5094
 6345TIP3   OH243229   3.487   2.558   2.125  0.5234  0.7193  0.2519
 6345TIP3    H143230   3.406   2.511   2.143  0.1609  0.8313 -0.9456
 6345TIP3    H243231   3.483   2.635   2.182  0.0934  0.3945  0.6666
 6346TIP3   OH243232   3.199   6.511   1.444  0.2730 -0.3220  0.2432
 6346TIP3    H143233   3.211   6.421   1.414  0.4070 -0.0240 -0.6205
 6346TIP3    H243234   3.148   6.503   1.525 -2.2222 -1.0220 -1.3024
 6347TIP3   OH243235   0.824   7.171   1.726  0.0547  0.1832 -0.0729
 6347TIP3    H143236   0.773   7.114   1.784  0.0113  1.1968  0.9277
 6347TIP3    H243237   0.774   7.252   1.722  1.0385  0.8222  0.0680
 6348TIP3   OH243238   2.574   0.496   0.746  0.3560  0.3685 -0.0983
 6348TIP3    H143239   2.592   0.407   0.778  1.9760  1.0818  1.1437
 6348TIP3    H243240   2.633   0.507   0.671  1.7757  1.0819  1.0665
 6349TIP3   OH243241   7.160   2.796   0.501  0.3737 -0.0842  0.4204
 6349TIP3    H143242   7.172   2.717   0.554  0.1319  0.8187  1.8767
 6349TIP3    H243243   7.066   2.804   0.490  0.3809  0.1542  0.5246
 6350TIP3   OH243244   3.995   0.532   0.790  0.5215 -0.2578 -0.5971
 6350TIP3    H143245   3.943   0.612   0.785  0.8591  0.0162  0.1417
 6350TIP3    H243246   4.002   0.502   0.699  0.2727  0.4708 -0.8603
 6351TIP3   OH243247   1.155   0.977   0.668 -0.4722 -0.0422  0.3611
 6351TIP3    H143248   1.212   1.035   0.617  1.4558 -0.0809  2.3045
 6351TIP3    H243249   1.211   0.946   0.739 -3.0497  0.2276  2.6650
 6352TIP3   OH243250   7.468   3.139   2.820 -0.0391 -0.0365  0.1154
 6352TIP3    H143251   7.433   3.069   2.875 -0.6040  1.0998  1.2666
 6352TIP3    H243252   7.556   3.109   2.795 -0.8278 -1.8018 -0.7021
 6353TIP3   OH243253   0.204   1.799   1.593  0.3468 -0.2129  0.0215
 6353TIP3    H143254   0.119   1.828   1.560  0.3121  0.1344  0.4047
 6353TIP3    H243255   0.201   1.704   1.586 -0.3132 -0.2457  0.5965
 6354TIP3   OH243256   3.892   4.997   1.322  0.4568 -0.2234  0.3934
 6354TIP3    H143257   3.950   4.922   1.322 -0.1627 -0.7168  0.8094
 6354TIP3    H243258   3.922   5.051   1.249 -1.6122 -2.8738 -2.6971
 6355TIP3   OH243259   0.523   1.283   0.453 -0.9840 -0.1052  0.0988
 6355TIP3    H143260   0.611   1.252   0.474 -0.5159  0.6909 -0.5772
 6355TIP3    H243261   0.536   1.374   0.427 -1.8956 -0.2179 -0.8231
 6356TIP3   OH243262   0.210   5.162   2.793 -0.5702  0.0613  0.1370
 6356TIP3    H143263   0.231   5.225   2.862  0.2910  0.9113 -0.8720
 6356TIP3    H243264   0.186   5.082   2.840  0.3755  0.4949  1.4150
 6357TIP3   OH243265   7.137   3.050   2.393 -0.5186 -0.2942 -0.2014
 6357TIP3    H143266   7.212   3.022   2.445 -0.7802  1.1295  0.9944
 6357TIP3    H243267   7.170   3.056   2.304  0.8861  0.6705  0.3623
 6358TIP3   OH243268   0.294   5.130   0.996 -0.4638 -0.2952  0.2521
 6358TIP3    H143269   0.246   5.213   1.004  0.8200  0.4198  0.8873
 6358TIP3    H243270   0.228   5.063   1.008 -1.7032  0.6003 -1.1218
 6359TIP3   OH243271   2.139   3.358   3.321  0.0959  0.3593  0.1959
 6359TIP3    H143272   2.124   3.264   3.320  0.5859  0.2187  2.1349
 6359TIP3    H243273   2.199   3.373   3.248  0.5550 -0.9421  0.2748
 6360TIP3   OH243274   3.734   0.750   2.753 -0.5180  0.2211 -0.1572
 6360TIP3    H143275   3.815   0.772   2.800 -1.0191  1.3457  0.2090
 6360TIP3    H243276   3.742   0.796   2.669 -0.4278 -0.3234 -0.4517
 6361TIP3   OH243277   7.568   6.870   3.466  0.4115  0.1464 -0.0887
 6361TIP3    H143278   7.512   6.935   3.508  1.2895  0.0188  1.3532
 6361TIP3    H243279   7.646   6.919   3.439 -0.0111  0.1620 -1.3088
 6362TIP3   OH243280   0.048   7.257   0.939 -0.4025  0.0180 -0.1705
 6362TIP3    H143281   0.001   7.186   0.896  0.2727  0.0527 -0.9837
 6362TIP3    H243282   0.019   7.336   0.894 -1.8094  0.4007  1.2880
 6363TIP3   OH243283   2.427   1.083   2.593 -0.0385 -0.3939  0.4072
 6363TIP3    H143284   2.339   1.061   2.625 -0.8027 -1.0852 -1.9687
 6363TIP3    H243285   2.434   1.178   2.604 -1.1062 -0.3248  0.5932
 6364TIP3   OH243286   1.865   6.241   2.446  0.4787  0.6464  0.3829
 6364TIP3    H143287   1.825   6.160   2.478 -0.6065  0.3850 -1.4585
 6364TIP3    H243288   1.951   6.243   2.487  0.7087 -1.6891  0.1526
 6365TIP3   OH243289   2.047   0.886   2.198 -0.1228 -0.2933  0.4474
 6365TIP3    H143290   2.019   0.976   2.182  1.7212  0.0238 -1.4661
 6365TIP3    H243291   1.994   0.833   2.138 -0.9700 -0.4671  1.3311
 6366TIP3   OH243292   5.042   2.406   2.250  0.2880 -0.0898 -0.1800
 6366TIP3    H143293   5.004   2.457   2.321 -0.9152  1.7489 -2.0086
 6366TIP3    H243294   5.047   2.468   2.177  1.8778 -1.7570 -1.5846
 6367TIP3   OH243295   6.606   7.493   1.147 -0.8229 -0.2076  0.0595
 6367TIP3    H143296   6.525   7.534   1.118 -0.1868  1.3889  0.4709
 6367TIP3    H243297   6.637   7.547   1.219  0.6914 -0.6804 -0.1912
 6368TIP3   OH243298   7.079   0.665   0.916  0.3226 -0.0941  0.4127
 6368TIP3    H143299   7.022   0.738   0.891 -0.0387 -0.2420  0.7817
 6368TIP3    H243300   7.020   0.590   0.924  0.5626 -0.2471  0.8105
 6369TIP3   OH243301   0.675   1.718   1.603  0.2183  0.2935 -0.3569
 6369TIP3    H143302   0.627   1.655   1.549  1.2658 -1.9038  1.1181
 6369TIP3    H243303   0.767   1.707   1.576  0.7388 -0.7123  1.6173
 6370TIP3   OH243304   1.328   7.515   1.391 -0.1004  0.1644 -0.4746
 6370TIP3    H143305   1.373   7.529   1.475 -2.3549  1.9039  0.5521
 6370TIP3    H243306   1.275   7.437   1.405  1.6700 -1.2901 -1.3556
 6371TIP3   OH243307   1.289   4.881   0.961  0.1829 -0.0178  0.2833
 6371TIP3    H143308   1.371   4.920   0.988  0.6455 -0.1391 -0.8847
 6371TIP3    H243309   1.288   4.795   1.003  0.3589  0.2142  0.7730
 6372TIP3   OH243310   0.530   4.238   2.649  0.2558  0.3130 -0.3654
 6372TIP3    H143311   0.503   4.182   2.721 -0.7188 -2.0250 -2.3893
 6372TIP3    H243312   0.448   4.267   2.609  0.6454 -1.3751 -2.5883
 6373TIP3   OH243313   5.568   2.910   2.493  0.1290 -0.2118  0.0860
 6373TIP3    H143314   5.540   3.000   2.472  1.5128 -0.1161 -1.6038
 6373TIP3    H243315   5.489   2.867   2.525 -1.3467  0.7729 -1.9682
 6374TIP3   OH243316   6.969   4.240   1.847 -0.2975  0.9235 -0.7917
 6374TIP3    H143317   7.005   4.250   1.935  0.7450  0.9171 -1.1954
 6374TIP3    H243318   6.905   4.310   1.839 -1.2884  0.1860  0.3843
 6375TIP3   OH243319   1.479   6.513   3.019  0.8090  0.6357 -0.7872
 6375TIP3    H143320   1.544   6.468   3.074 -1.2808 -2.1108 -0.3819
 6375TIP3    H243321   1.395   6.490   3.058 -0.5285  3.3704 -1.8150
 6376TIP3   OH243322   1.577   6.875   2.620  0.7490 -0.0175 -0.3488
 6376TIP3    H143323   1.537   6.788   2.629  0.7009 -0.0169 -0.5554
 6376TIP3    H243324   1.504   6.934   2.604  0.2743  0.7081  3.5576
 6377TIP3   OH243325   3.083   5.748   2.267  0.3696  0.0502 -0.0216
 6377TIP3    H143326   3.105   5.752   2.360 -0.5423  3.2543  0.1902
 6377TIP3    H243327   3.014   5.682   2.262 -0.1982  0.4366  1.7532
 6378TIP3   OH243328   2.805   2.229   2.254  0.3891 -0.0239  0.2288
 6378TIP3    H143329   2.814   2.304   2.196  0.7684 -0.9487 -0.9600
 6378TIP3    H243330   2.717   2.238   2.291  0.5860  1.2075  0.4412
 6379TIP3   OH243331   2.290   4.554   2.161 -0.0521 -0.2246 -0.1089
 6379TIP3    H143332   2.290   4.474   2.214  0.7872  0.2447  0.6390
 6379TIP3    H243333   2.199   4.566   2.134 -0.5988 -0.2650  1.6041
 6380TIP3   OH243334   3.300   4.338   1.201 -0.2970 -0.0444 -0.1078
 6380TIP3    H143335   3.320   4.293   1.119  0.0747  0.6094 -0.3916
 6380TIP3    H243336   3.271   4.425   1.174  1.4545  0.7723  0.4875
 6381TIP3   OH243337   6.443   4.316   1.244  0.3368  0.3356  0.1091
 6381TIP3    H143338   6.426   4.410   1.247 -1.3710  0.0485  0.8559
 6381TIP3    H243339   6.527   4.305   1.288  1.2411  1.6296 -1.2340
 6382TIP3   OH243340   1.782   5.498   1.602 -0.1666 -0.0276  0.4008
 6382TIP3    H143341   1.724   5.436   1.557 -0.3387 -0.6461  1.4578
 6382TIP3    H243342   1.746   5.584   1.579 -0.4326 -0.3355 -0.3914
 6383TIP3   OH243343   5.657   4.289   0.776 -0.1584  0.2093  0.1380
 6383TIP3    H143344   5.667   4.278   0.681 -0.2886  2.2062 -0.1624
 6383TIP3    H243345   5.651   4.384   0.788 -3.3736 -0.0532  1.8124
 6384TIP3   OH243346   1.542   2.836   1.804 -0.4147  0.2152  0.3141
 6384TIP3    H143347   1.620   2.878   1.841 -0.4016  1.3519 -0.9413
 6384TIP3    H243348   1.567   2.812   1.715 -1.4162  0.3601 -0.0207
 6385TIP3   OH243349   7.611   1.051   2.435 -0.0866  0.8584 -0.5570
 6385TIP3    H143350   7.609   1.061   2.530 -0.9389  0.2899 -0.5085
 6385TIP3    H243351   7.527   1.012   2.413  1.0077 -1.2315 -1.2967
 6386TIP3   OH243352   5.265   0.052   1.027 -0.2505 -0.4154 -0.3990
 6386TIP3    H143353   5.199   0.037   0.960 -0.3377 -2.8829  0.1210
 6386TIP3    H243354   5.315  -0.030   1.031  2.8073  1.2659 -0.6674
 6387TIP3   OH243355   7.647   3.344   2.529  0.2276 -0.2573  0.4511
 6387TIP3    H143356   7.643   3.261   2.576 -1.1739 -1.0974 -1.0749
 6387TIP3    H243357   7.560   3.382   2.539 -0.1290 -0.4957 -1.4725
 6388TIP3   OH243358   2.954   4.965   0.701  0.2723 -0.1108 -0.3528
 6388TIP3    H143359   2.914   5.049   0.680  0.7556  0.0468 -0.6545
 6388TIP3    H243360   2.939   4.954   0.795 -0.8456 -0.2542 -0.5325
 6389TIP3   OH243361   3.727   0.155   1.930 -0.5561  0.2311 -0.1414
 6389TIP3    H143362   3.712   0.234   1.878  1.1638  1.3048  0.8674
 6389TIP3    H243363   3.823   0.145   1.931 -0.6653 -0.9640  1.0319
 6390TIP3   OH243364   6.775   0.143   2.885  0.3967 -0.4415  0.6853
 6390TIP3    H143365   6.801   0.118   2.974  0.9587 -2.4479 -0.0072
 6390TIP3    H243366   6.698   0.090   2.866  1.0952 -1.0834 -0.5037
 6391TIP3   OH243367   1.527   7.229   2.421  1.2872 -0.6744 -0.2108
 6391TIP3    H143368   1.578   7.215   2.500  0.4147 -0.2749  0.4459
 6391TIP3    H243369   1.437   7.210   2.447  1.0283 -0.8619 -1.1963
 6392TIP3   OH243370   4.612   5.800   1.029  0.1432 -0.5690  0.5246
 6392TIP3    H143371   4.664   5.874   1.060 -0.7045  1.3033 -2.1680
 6392TIP3    H243372   4.656   5.772   0.949  0.1238 -2.6893  1.1959
 6393TIP3   OH243373   3.291   0.265   0.606  0.3560  0.5930  0.0048
 6393TIP3    H143374   3.203   0.294   0.583  0.3595  1.7088  1.2984
 6393TIP3    H243375   3.348   0.336   0.576  0.8878 -0.3426 -1.2727
 6394TIP3   OH243376   4.659   4.275   2.387  0.6443  0.0877  0.9371
 6394TIP3    H143377   4.656   4.180   2.376 -0.3138  0.0446  1.4782
 6394TIP3    H243378   4.568   4.301   2.400  0.8382  1.1471  0.3104
 6395TIP3   OH243379   4.976   3.915   0.812  1.2378 -0.0542 -0.2171
 6395TIP3    H143380   5.045   3.863   0.853  1.2980 -0.7658 -1.1875
 6395TIP3    H243381   4.963   3.874   0.726 -1.7611 -1.1890  0.6592
 6396TIP3   OH243382   4.359   5.065   6.854  0.2469  0.5075  0.5604
 6396TIP3    H143383   4.266   5.045   6.839  0.0242 -0.2542  2.6635
 6396TIP3    H243384   4.358   5.150   6.897  0.7266  1.6259 -1.5147
 6397TIP3   OH243385   7.100   0.138   3.504  0.0682  0.2288 -0.1953
 6397TIP3    H143386   7.053   0.070   3.552  0.8890 -0.6307 -0.5781
 6397TIP3    H243387   7.183   0.097   3.478  1.1619  1.7714  0.6684
 6398TIP3   OH243388   4.560   6.276   0.724 -0.1954  0.0434  0.4341
 6398TIP3    H143389   4.635   6.216   0.719 -1.1508 -1.5622  3.1221
 6398TIP3    H243390   4.583   6.338   0.793 -2.0045 -1.7236  2.8068
 6399TIP3   OH243391   0.159   6.750   2.580  0.2084  0.6133  0.0667
 6399TIP3    H143392   0.177   6.671   2.632 -0.1836  0.6779  0.3047
 6399TIP3    H243393   0.067   6.741   2.554  0.6263  0.1447 -1.3717
 6400TIP3   OH243394   1.656   4.967   2.032 -0.9777 -0.2596  0.7854
 6400TIP3    H143395   1.629   4.945   1.943  0.7252 -1.2873  0.4859
 6400TIP3    H243396   1.672   5.061   2.030  0.3800 -0.4880 -0.3952
 6401TIP3   OH243397   1.162   3.234   1.265  0.3851 -0.1557 -0.2216
 6401TIP3    H143398   1.071   3.234   1.294 -0.6758  2.1479 -3.1142
 6401TIP3    H243399   1.157   3.234   1.169  3.3738  1.1768 -0.4889
 6402TIP3   OH243400   5.288   6.134   1.635 -0.5732 -0.0026 -0.1089
 6402TIP3    H143401   5.287   6.058   1.578 -1.2800 -0.1650  0.1142
 6402TIP3    H243402   5.286   6.098   1.724 -1.6661  0.2856 -0.0126
 6403TIP3   OH243403   3.603   6.069   2.644  0.4806  0.3687  0.4393
 6403TIP3    H143404   3.562   6.136   2.698  1.7490  1.0348  0.6257
 6403TIP3    H243405   3.531   6.027   2.598 -0.5683  0.2564  2.1060
 6404TIP3   OH243406   1.499   7.081   1.596 -0.5373  0.1706 -0.4724
 6404TIP3    H143407   1.537   7.090   1.508 -0.3233 -0.0390 -0.4038
 6404TIP3    H243408   1.538   7.000   1.630 -1.2374 -0.1856 -0.4988
 6405TIP3   OH243409   1.588   1.566   3.176  0.1967  0.3949 -0.1908
 6405TIP3    H143410   1.529   1.498   3.210  0.4138  0.3538  0.1110
 6405TIP3    H243411   1.673   1.522   3.170  0.4396  0.7613  0.4383
 6406TIP3   OH243412   1.663   1.418   0.514  0.3277 -0.4725 -0.2304
 6406TIP3    H143413   1.703   1.449   0.596  0.1552 -0.7201 -0.0482
 6406TIP3    H243414   1.604   1.348   0.542  1.0481 -1.2816 -0.6640
 6407TIP3   OH243415   2.817   2.940   1.099  0.1403 -0.1160 -0.0494
 6407TIP3    H143416   2.898   2.954   1.148  0.8278 -0.8781 -0.9252
 6407TIP3    H243417   2.797   2.847   1.109 -0.0742 -0.1438 -0.6422
 6408TIP3   OH243418   5.977   4.112   1.033 -0.1326  0.0672  0.3887
 6408TIP3    H143419   5.951   4.202   1.048  0.9921  0.2986  1.0725
 6408TIP3    H243420   6.025   4.114   0.950  2.6352  0.7324  1.8943
 6409TIP3   OH243421   7.607   7.360   1.856 -0.6720  0.2272  0.0979
 6409TIP3    H143422   7.688   7.405   1.879 -0.1363 -1.5050  1.8605
 6409TIP3    H243423   7.632   7.299   1.787  0.2775 -2.2887  2.5035
 6410TIP3   OH243424   1.089   0.008   2.687 -0.0341  0.7322  0.8123
 6410TIP3    H143425   1.183   0.022   2.694  0.2002 -0.0598 -0.5329
 6410TIP3    H243426   1.056   0.086   2.641  0.2097  0.2719 -0.1585
 6411TIP3   OH243427   3.586   5.390   0.781 -0.2791  0.1125 -0.3825
 6411TIP3    H143428   3.601   5.475   0.740 -0.3936  0.2204 -0.2019
 6411TIP3    H243429   3.618   5.402   0.871 -0.3968 -0.0022 -0.3263
 6412TIP3   OH243430   4.629   1.803   1.354  0.2665  0.7327  0.5642
 6412TIP3    H143431   4.719   1.774   1.338 -0.1335 -0.3372  0.1714
 6412TIP3    H243432   4.624   1.889   1.313  0.6295  0.0764 -0.9419
 6413TIP3   OH243433   0.889   2.419   0.486 -0.3526 -0.2050  0.4912
 6413TIP3    H143434   0.826   2.488   0.506 -1.7382 -1.4593  0.5879
 6413TIP3    H243435   0.960   2.465   0.441  0.2406  1.7848  3.1610
 6414TIP3   OH243436   7.680   7.072   2.561 -0.3975  0.3124  0.1310
 6414TIP3    H143437   7.722   6.989   2.537  0.1662  0.5460  0.3015
 6414TIP3    H243438   7.673   7.120   2.478 -1.2001 -0.1107 -0.0579
 6415TIP3   OH243439   1.964   3.029   2.147 -0.6546 -0.0584  0.4747
 6415TIP3    H143440   2.054   3.054   2.128 -0.7528  0.0783  0.1980
 6415TIP3    H243441   1.965   2.933   2.147 -0.5794 -0.0560  0.1482
 6416TIP3   OH243442   6.171   0.182   2.370 -0.2855 -0.3668  0.4089
 6416TIP3    H143443   6.118   0.138   2.437  0.2893  1.0469  1.8860
 6416TIP3    H243444   6.248   0.213   2.418 -0.5412  1.9664 -0.5528
 6417TIP3   OH243445   2.259   1.456   2.043  0.3185 -0.0278 -0.3278
 6417TIP3    H143446   2.326   1.407   2.092 -0.2558 -1.0538 -0.5340
 6417TIP3    H243447   2.300   1.475   1.959  1.7732  2.8159  0.8780
 6418TIP3   OH243448   0.589   0.832   3.382 -0.3869 -0.2353  0.0114
 6418TIP3    H143449   0.540   0.905   3.343 -0.3120 -0.5069 -0.6137
 6418TIP3    H243450   0.666   0.872   3.421 -0.4487  0.0443 -0.1517
 6419TIP3   OH243451   2.680   0.288   2.813  0.1534  0.0021  0.4872
 6419TIP3    H143452   2.689   0.208   2.760  0.0835  0.2176  0.1500
 6419TIP3    H243453   2.590   0.286   2.843  0.0066  0.2084  0.0668
 6420TIP3   OH243454   7.271   0.199   1.669  0.4588  0.2054 -0.4206
 6420TIP3    H143455   7.328   0.263   1.627 -1.0732  2.9690  1.3315
 6420TIP3    H243456   7.310   0.184   1.755 -0.1706  0.2624 -0.1144
 6421TIP3   OH243457   6.421   2.881   2.552 -0.7270 -0.3488 -0.1430
 6421TIP3    H143458   6.343   2.902   2.602 -0.5983 -0.8903  0.2993
 6421TIP3    H243459   6.480   2.841   2.615  0.0772  0.4247 -0.3825
 6422TIP3   OH243460   4.158   5.929   2.433 -0.4518 -1.1594  0.0910
 6422TIP3    H143461   4.076   5.881   2.438 -0.3897 -1.2376  0.3502
 6422TIP3    H243462   4.135   6.013   2.393 -0.7550 -0.9461  0.7137
 6423TIP3   OH243463   7.433   4.950   1.422 -0.0775  0.0681  0.1305
 6423TIP3    H143464   7.474   5.034   1.443 -0.6786 -0.1043  2.2800
 6423TIP3    H243465   7.472   4.889   1.485 -1.3133 -0.7721  0.1015
 6424TIP3   OH243466   2.075   4.032   1.092  0.1186 -0.6822 -0.5135
 6424TIP3    H143467   2.161   3.990   1.093  0.4006 -0.1143  1.3761
 6424TIP3    H243468   2.034   4.007   1.175 -0.7544  0.6538 -0.5016
 6425TIP3   OH243469   2.734   3.250   1.677  0.8746 -0.0165  0.8164
 6425TIP3    H143470   2.706   3.190   1.746  1.0582 -1.4920 -0.3424
 6425TIP3    H243471   2.656   3.261   1.623  0.7011  1.2175  1.2868
 6426TIP3   OH243472   2.689   5.128   1.139  0.1066  0.1040 -0.5321
 6426TIP3    H143473   2.616   5.119   1.200  0.2947  0.4297 -0.2536
 6426TIP3    H243474   2.762   5.157   1.194 -0.3316  2.8382 -1.2388
 6427TIP3   OH243475   4.646   5.585   3.284 -0.1032 -0.3650 -0.4175
 6427TIP3    H143476   4.644   5.675   3.251 -0.1432  0.3146  1.3433
 6427TIP3    H243477   4.738   5.559   3.276 -0.0756 -0.1465 -0.8614
 6428TIP3   OH243478   1.164   2.038   1.695 -0.9518  0.1133 -0.0187
 6428TIP3    H143479   1.209   2.019   1.778 -1.1373  1.0192  0.2980
 6428TIP3    H243480   1.173   2.132   1.684 -2.7090  0.3130  0.0158
 6429TIP3   OH243481   6.532   4.209   1.532  0.4389 -0.4543 -0.1247
 6429TIP3    H143482   6.514   4.297   1.565  0.9809 -0.4086  0.0595
 6429TIP3    H243483   6.603   4.221   1.468  0.5561 -0.7617 -0.0571
 6430TIP3   OH243484   5.023   3.145   0.654  0.0567  0.2039 -0.0523
 6430TIP3    H143485   5.053   3.160   0.565 -0.9191 -0.8875 -0.5946
 6430TIP3    H243486   5.017   3.050   0.662 -2.2773  0.3120  0.3017
 6431TIP3   OH243487   1.891   3.050   1.255 -0.2020 -0.1975  0.0005
 6431TIP3    H143488   1.881   3.136   1.297 -2.4915 -0.5082  0.2403
 6431TIP3    H243489   1.911   2.990   1.327 -2.0215 -0.3818  0.3979
 6432TIP3   OH243490   5.236   5.747   0.661  0.1675 -0.3092 -0.4796
 6432TIP3    H143491   5.300   5.819   0.653 -1.3991  1.1100 -0.9058
 6432TIP3    H243492   5.287   5.673   0.693  1.9632  0.8491 -0.5014
 6433TIP3   OH243493   0.249   7.109   3.609 -0.0560 -0.2420  0.7962
 6433TIP3    H143494   0.193   7.089   3.534  2.2484 -0.0517 -1.1298
 6433TIP3    H243495   0.192   7.152   3.672 -2.0547 -0.1759 -0.9579
 6434TIP3   OH243496   7.030   6.755   2.045  0.4591 -0.6870  0.3203
 6434TIP3    H143497   7.076   6.839   2.051  0.5782 -0.7576  0.4038
 6434TIP3    H243498   7.100   6.689   2.044  0.3510 -0.8233  0.9777
 6435TIP3   OH243499   0.531   3.710   2.267 -0.6036  0.2187  0.1031
 6435TIP3    H143500   0.580   3.632   2.239 -1.0045 -0.4802  1.2585
 6435TIP3    H243501   0.441   3.691   2.243 -0.7496  0.1833  0.6676
 6436TIP3   OH243502   5.201   3.747   0.865  0.2935  0.0998 -0.5898
 6436TIP3    H143503   5.226   3.830   0.905  0.9299 -0.0694 -0.6138
 6436TIP3    H243504   5.263   3.684   0.901 -2.2827 -1.1109  2.1284
 6437TIP3   OH243505   3.677   2.369   1.954  0.4117 -0.1387  0.2924
 6437TIP3    H143506   3.609   2.425   1.993 -0.5166  0.2019 -1.7053
 6437TIP3    H243507   3.734   2.346   2.028 -0.7470  1.1857  1.6689
 6438TIP3   OH243508   1.708   0.226   0.546  0.2561 -0.0577 -0.8977
 6438TIP3    H143509   1.664   0.232   0.461 -0.3689  1.5292 -0.5086
 6438TIP3    H243510   1.656   0.162   0.595 -2.0156  2.0745 -0.3076
 6439TIP3   OH243511   3.779   2.379   1.681 -0.0251 -0.2620 -0.2240
 6439TIP3    H143512   3.731   2.378   1.764 -1.9203 -0.7915 -1.2735
 6439TIP3    H243513   3.777   2.288   1.652  0.3306 -0.0237 -1.0090
 6440TIP3   OH243514   3.059   6.749   1.055  0.6288 -0.6967 -0.0923
 6440TIP3    H143515   3.107   6.746   0.972  0.2640  2.7359 -0.5867
 6440TIP3    H243516   3.124   6.781   1.118 -0.0451  0.6112 -0.0183
 6441TIP3   OH243517   2.258   0.268   0.548  0.4360  0.5065 -0.0652
 6441TIP3    H143518   2.276   0.349   0.596 -0.0228 -0.9853  2.8012
 6441TIP3    H243519   2.163   0.267   0.537  0.2778 -0.2912  1.2200
 6442TIP3   OH243520   3.445   2.557   2.601 -0.3277 -0.2827 -0.2466
 6442TIP3    H143521   3.376   2.622   2.593  0.0542  0.0809 -0.6650
 6442TIP3    H243522   3.403   2.481   2.642 -0.8368  0.1286 -0.0041
 6443TIP3   OH243523   5.552   6.847   1.716  0.2065  0.8041 -0.0925
 6443TIP3    H143524   5.527   6.772   1.662  0.7887 -0.1115  0.8452
 6443TIP3    H243525   5.648   6.841   1.722  0.1307  0.5133  1.4710
 6444TIP3   OH243526   1.948   6.828   2.434 -0.1568  0.6464  0.8017
 6444TIP3    H143527   2.035   6.869   2.435  0.3333 -0.3329  0.2296
 6444TIP3    H243528   1.899   6.875   2.501  1.0147  0.8280  1.5728
 6445TIP3   OH243529   2.271   5.488   0.444  0.1341 -0.1314  0.1779
 6445TIP3    H143530   2.301   5.550   0.511  0.3639  0.1077 -0.1445
 6445TIP3    H243531   2.176   5.491   0.451  0.1470 -2.0769  2.2948
 6446TIP3   OH243532   0.459   2.298   2.304 -0.5579  0.2769 -0.0725
 6446TIP3    H143533   0.463   2.389   2.275 -0.4980  0.4895  0.5853
 6446TIP3    H243534   0.548   2.278   2.332 -0.4751 -0.1202 -0.5995
 6447TIP3   OH243535   4.878   1.069   2.256 -0.4352  0.2233 -0.4852
 6447TIP3    H143536   4.920   1.007   2.316 -1.5899 -0.0064  0.1372
 6447TIP3    H243537   4.876   1.023   2.172  0.8487  0.3878 -0.6122
 6448TIP3   OH243538   3.904   5.163   1.538  0.0879 -0.3909 -0.1504
 6448TIP3    H143539   3.898   5.100   1.466 -1.4144 -0.6205  0.1291
 6448TIP3    H243540   3.997   5.171   1.556  0.4163 -1.1749 -1.3808
 6449TIP3   OH243541   6.137   0.847   1.913 -0.6146  0.7350 -0.0820
 6449TIP3    H143542   6.117   0.934   1.947 -0.2576  0.8499 -0.1614
 6449TIP3    H243543   6.149   0.793   1.990  0.9815  1.1696  0.0166
 6450TIP3   OH243544   1.460   6.424   0.984  0.4642 -0.7052 -0.6361
 6450TIP3    H143545   1.535   6.450   1.037 -0.2482 -2.4516  1.3615
 6450TIP3    H243546   1.490   6.348   0.934  1.3349  1.2995 -3.4462
 6451TIP3   OH243547   6.664   3.583   1.217  0.0666 -0.3955  0.1292
 6451TIP3    H143548   6.609   3.627   1.281 -0.6944 -1.9474  0.5900
 6451TIP3    H243549   6.751   3.579   1.258  0.1799  0.7337  0.0283
 6452TIP3   OH243550   3.790   4.349   3.356  0.2558 -0.5067 -0.2501
 6452TIP3    H143551   3.830   4.262   3.358  0.8117 -0.3104  3.2933
 6452TIP3    H243552   3.834   4.397   3.426 -2.4296  1.5142  0.1878
 6453TIP3   OH243553   5.908   7.188   1.270  0.1130  0.6970 -0.5901
 6453TIP3    H143554   5.852   7.264   1.286  0.8982  1.1274  0.1707
 6453TIP3    H243555   5.993   7.212   1.305  0.6440 -0.1609 -1.2341
 6454TIP3   OH243556   1.821   2.154   2.310 -0.9128 -0.0368  0.4761
 6454TIP3    H143557   1.852   2.147   2.400 -0.7407 -1.4348  0.3239
 6454TIP3    H243558   1.772   2.074   2.294 -1.1466  0.2984 -0.5987
 6455TIP3   OH243559   7.334   4.094   2.132  0.1801 -0.6542  0.2531
 6455TIP3    H143560   7.281   4.095   2.053 -0.9150  1.1105  0.9461
 6455TIP3    H243561   7.271   4.084   2.204  0.9952 -0.7316  0.9787
 6456TIP3   OH243562   3.701   6.857   3.074  0.4010  0.5064  0.5570
 6456TIP3    H143563   3.657   6.942   3.084 -1.1065 -0.4013  2.3265
 6456TIP3    H243564   3.646   6.796   3.123  2.0222 -1.3084  0.2335
 6457TIP3   OH243565   0.265   6.288   0.661 -0.1169  0.2779  0.6802
 6457TIP3    H143566   0.348   6.286   0.614  0.0948 -0.8075  1.0750
 6457TIP3    H243567   0.286   6.254   0.748 -0.9542  0.0974  0.8209
 6458TIP3   OH243568   5.021   7.055   2.388 -0.0619 -0.2247 -0.3217
 6458TIP3    H143569   5.090   6.989   2.380 -0.1844 -0.3714 -0.1514
 6458TIP3    H243570   5.069   7.138   2.393  0.1435 -0.4054  0.8363
 6459TIP3   OH243571   2.412   3.127   2.423 -0.0364  0.4747  0.3682
 6459TIP3    H143572   2.472   3.120   2.498 -0.7719  0.8307  0.9967
 6459TIP3    H243573   2.328   3.151   2.461 -0.3410  1.0272 -0.6117
 6460TIP3   OH243574   5.149   1.124   1.374  0.6779  0.5205 -0.1402
 6460TIP3    H143575   5.241   1.126   1.400  0.7923 -0.1073 -0.4788
 6460TIP3    H243576   5.105   1.082   1.448  0.3508  2.5459  0.8842
 6461TIP3   OH243577   0.892   6.168   2.240  0.4281  0.0367 -0.3872
 6461TIP3    H143578   0.827   6.238   2.232  1.0809  0.6164 -0.7281
 6461TIP3    H243579   0.935   6.165   2.155  3.1410  1.9746  0.7600
 6462TIP3   OH243580   2.916   1.333   2.356 -0.7499  0.2966 -0.7593
 6462TIP3    H143581   2.934   1.255   2.303 -1.3568 -0.9415  0.8022
 6462TIP3    H243582   2.999   1.381   2.355  0.6162 -1.8292  0.5714
 6463TIP3   OH243583   4.437   1.551   2.596  0.1921  0.2766  0.2367
 6463TIP3    H143584   4.406   1.573   2.684  1.1479  1.0519  0.3935
 6463TIP3    H243585   4.366   1.578   2.538  0.1048  0.9869  0.6650
 6464TIP3   OH243586   2.447   6.194   1.903  0.2032 -0.3862  0.1644
 6464TIP3    H143587   2.374   6.240   1.862  0.7923 -1.1575 -1.8814
 6464TIP3    H243588   2.474   6.251   1.975 -0.5575  1.3243 -0.8335
 6465TIP3   OH243589   1.580   1.916   2.374 -0.1790 -0.1861 -0.2696
 6465TIP3    H143590   1.526   1.922   2.453  0.3758  1.1103  0.0473
 6465TIP3    H243591   1.537   1.974   2.311  0.6195  0.6057 -0.1189
 6466TIP3   OH243592   1.765   3.734   0.477  0.1862 -0.3915 -0.0151
 6466TIP3    H143593   1.724   3.821   0.479  0.6889 -0.1402 -0.2631
 6466TIP3    H243594   1.720   3.687   0.407  1.1900  0.3379 -1.1951
 6467TIP3   OH243595   7.608   2.143   2.511 -0.3949  0.0661 -0.8762
 6467TIP3    H143596   7.650   2.225   2.539 -2.5963  0.5566  1.3754
 6467TIP3    H243597   7.680   2.088   2.482  1.7664  1.1186  2.0102
 6468TIP3   OH243598   2.513   7.414   0.928  0.0911 -0.0182 -0.4611
 6468TIP3    H143599   2.484   7.335   0.883  0.9940 -0.5477 -0.1366
 6468TIP3    H243600   2.609   7.408   0.928  0.1726  1.0199 -0.3265
 6469TIP3   OH243601   3.583   6.056   1.835 -0.2531  0.5807 -0.2873
 6469TIP3    H143602   3.504   6.048   1.888 -0.1981 -0.4319 -0.3421
 6469TIP3    H243603   3.646   6.099   1.893 -0.4937  0.3633  0.1372
 6470TIP3   OH243604   4.173   2.418   1.969  0.1698 -0.3311 -0.0506
 6470TIP3    H143605   4.164   2.383   2.058 -0.6898 -0.3811 -0.1546
 6470TIP3    H243606   4.260   2.388   1.941 -0.1576 -1.5940  0.2229
 6471TIP3   OH243607   4.090   0.660   1.771  0.1389  0.1370  0.0986
 6471TIP3    H143608   4.010   0.712   1.783  0.6264  0.9394 -0.0482
 6471TIP3    H243609   4.104   0.658   1.677 -0.4881 -1.2330  0.0129
 6472TIP3   OH243610   4.042   4.276   2.522 -0.3481 -0.7686 -0.4323
 6472TIP3    H143611   4.072   4.330   2.448  0.1027 -1.2396 -0.5913
 6472TIP3    H243612   3.966   4.324   2.556 -1.5274 -1.3030 -2.1562
 6473TIP3   OH243613   6.458   6.905   0.886 -0.1934  0.0522  0.1379
 6473TIP3    H143614   6.362   6.901   0.886 -0.1654 -3.0751  0.9512
 6473TIP3    H243615   6.484   6.864   0.804  0.5122  2.2894 -0.8208
 6474TIP3   OH243616   6.288   6.525   1.952 -0.1029  0.1066 -0.5573
 6474TIP3    H143617   6.250   6.449   1.996 -0.6737  0.8301  0.2348
 6474TIP3    H243618   6.379   6.526   1.979 -0.2249  0.0087 -0.1409
 6475TIP3   OH243619   1.192   4.937   1.593 -0.4377  0.0427 -0.1117
 6475TIP3    H143620   1.242   5.017   1.612  1.2485 -1.4442  2.2215
 6475TIP3    H243621   1.204   4.925   1.499  1.4869  1.1625 -0.0839
 6476TIP3   OH243622   3.944   3.381   2.320  0.0387  0.3291  0.2733
 6476TIP3    H143623   3.926   3.290   2.344  1.4114  0.3731  1.6430
 6476TIP3    H243624   4.026   3.377   2.270  0.1849  0.8290  0.4664
 6477TIP3   OH243625   3.312   4.101   2.368 -0.2635 -0.0285 -0.3872
 6477TIP3    H143626   3.221   4.095   2.396  0.0489 -0.8483  0.5123
 6477TIP3    H243627   3.329   4.019   2.321 -0.4992  0.9162 -2.1999
 6478TIP3   OH243628   1.941   6.725   0.828 -0.0935  0.2206 -0.9768
 6478TIP3    H143629   1.925   6.796   0.766  0.6602  0.8716 -0.4455
 6478TIP3    H243630   1.864   6.724   0.884  0.8705  2.2289  0.5174
 6479TIP3   OH243631   5.871   2.032   1.027  0.7506  0.1229 -0.4762
 6479TIP3    H143632   5.935   2.103   1.019  1.8293 -0.6556  0.8804
 6479TIP3    H243633   5.910   1.971   1.089 -0.7623 -1.0099 -0.5805
 6480TIP3   OH243634   6.153   1.467   1.327  0.1130  0.6654  0.2067
 6480TIP3    H143635   6.162   1.560   1.345  0.9425  0.5431  0.4875
 6480TIP3    H243636   6.203   1.453   1.247 -0.6144  0.5824 -0.2409
 6481TIP3   OH243637   2.217   4.879   3.192 -0.2653 -0.3832 -0.4530
 6481TIP3    H143638   2.252   4.944   3.252 -0.1694 -1.0204  0.1965
 6481TIP3    H243639   2.129   4.860   3.225 -0.9843  0.6474 -1.6318
 6482TIP3   OH243640   3.891   0.308   3.353  0.3483 -0.4123  0.7246
 6482TIP3    H143641   3.964   0.334   3.298 -0.5898 -0.6611 -0.6802
 6482TIP3    H243642   3.906   0.214   3.369 -0.2563 -0.7390 -0.5350
 6483TIP3   OH243643   3.058   4.683   1.526 -0.0321  0.2426 -0.2748
 6483TIP3    H143644   3.031   4.629   1.600  1.3680  1.2072  0.9807
 6483TIP3    H243645   3.147   4.710   1.547  0.6023  0.1186 -2.5762
 6484TIP3   OH243646   0.348   2.414   0.897  0.2397 -0.1390  0.2395
 6484TIP3    H143647   0.397   2.342   0.936  0.8026 -0.5104 -1.0704
 6484TIP3    H243648   0.338   2.388   0.805 -0.1583  1.1328 -0.0968
 6485TIP3   OH243649   2.145   4.299   1.223  0.2679  0.4497  0.3000
 6485TIP3    H143650   2.131   4.263   1.311  1.0736 -0.4495  0.0695
 6485TIP3    H243651   2.132   4.225   1.164 -0.9347  1.1913 -0.4063
 6486TIP3   OH243652   4.845   5.750   2.117 -0.0384  0.0984  0.1445
 6486TIP3    H143653   4.822   5.664   2.152  2.7644 -0.8252  0.0189
 6486TIP3    H243654   4.777   5.769   2.053 -1.1620 -1.6691  0.7343
 6487TIP3   OH243655   0.141   5.542   0.668 -0.2267  0.5140  0.2575
 6487TIP3    H143656   0.194   5.519   0.591 -0.7837  1.9362 -0.6044
 6487TIP3    H243657   0.202   5.538   0.741  0.6412  0.3784 -0.4532
 6488TIP3   OH243658   5.916   7.411   1.457  0.3344  0.4851 -0.1850
 6488TIP3    H143659   5.888   7.458   1.536 -0.3375  0.1663 -0.2310
 6488TIP3    H243660   5.899   7.472   1.386 -0.9856  0.0102 -0.2962
 6489TIP3   OH243661   4.939   1.698   3.358 -0.2096 -0.3257 -0.1070
 6489TIP3    H143662   4.905   1.727   3.273 -1.2298  1.5664  0.8997
 6489TIP3    H243663   4.862   1.666   3.405  0.1782 -0.3952  0.4884
 6490TIP3   OH243664   1.482   1.773   0.854 -0.7484  0.3236  0.1091
 6490TIP3    H143665   1.463   1.681   0.870 -1.0550  0.2121 -0.8826
 6490TIP3    H243666   1.399   1.810   0.825 -0.5834  0.8758  0.3326
 6491TIP3   OH243667   4.671   2.238   1.654  0.0303 -0.0006  0.0630
 6491TIP3    H143668   4.712   2.155   1.682 -0.7507 -0.2504  0.4873
 6491TIP3    H243669   4.700   2.249   1.564  0.9235 -0.2393  0.3035
 6492TIP3   OH243670   1.087   5.707   0.876  0.0425 -0.5194  0.3964
 6492TIP3    H143671   1.055   5.623   0.908  1.4666 -1.7023 -1.0780
 6492TIP3    H243672   1.024   5.771   0.907 -0.7713 -2.0614  2.0515
 6493TIP3   OH243673   2.267   2.917   0.652  0.2618  0.0012  0.8030
 6493TIP3    H143674   2.293   3.000   0.613 -1.4895 -0.0604 -0.6472
 6493TIP3    H243675   2.322   2.852   0.608  1.6195  0.3244  1.9259
 6494TIP3   OH243676   3.644   2.570   3.011  0.4659  0.0057  0.3921
 6494TIP3    H143677   3.734   2.562   3.045  0.1288 -0.4759  1.2057
 6494TIP3    H243678   3.649   2.642   2.948  1.2310  0.6018  1.1001
 6495TIP3   OH243679   1.323   3.818   3.325 -0.1942 -0.5408  0.3535
 6495TIP3    H143680   1.249   3.840   3.267 -1.3736 -0.7391  1.7109
 6495TIP3    H243681   1.295   3.738   3.369  1.9712 -2.1077 -0.9639
 6496TIP3   OH243682   7.538   0.211   2.215  0.3001  0.3257 -0.7760
 6496TIP3    H143683   7.572   0.165   2.138 -0.0161  0.3012 -0.9028
 6496TIP3    H243684   7.611   0.213   2.276  0.2699 -0.4940 -0.7031
 6497TIP3   OH243685   0.401   0.568   0.674 -0.0360 -0.4766  0.1468
 6497TIP3    H143686   0.403   0.486   0.624  0.1959 -0.0564 -0.5505
 6497TIP3    H243687   0.352   0.629   0.618  0.4153  0.0689  0.3286
 6498TIP3   OH243688   1.738   4.875   2.530  0.3579  0.8718 -0.2524
 6498TIP3    H143689   1.648   4.907   2.521  0.0676 -0.1690 -1.3239
 6498TIP3    H243690   1.733   4.806   2.596  0.6766  1.8304  0.8134
 6499TIP3   OH243691   4.085   3.897   1.965 -0.2878 -0.1262  0.1953
 6499TIP3    H143692   3.998   3.858   1.976 -0.8329  0.6113 -1.1832
 6499TIP3    H243693   4.082   3.978   2.017  0.3348 -1.1076  1.8474
 6500TIP3   OH243694   4.484   7.567   1.775  0.0718 -0.1577  0.7561
 6500TIP3    H143695   4.482   7.483   1.820 -1.7774 -0.1094  0.8246
 6500TIP3    H243696   4.454   7.548   1.686  0.1887  0.3503  0.6025
 6501TIP3   OH243697   4.732   3.756   2.404 -0.5753  0.2769 -0.0883
 6501TIP3    H143698   4.672   3.682   2.414  0.5632 -0.7152 -0.4061
 6501TIP3    H243699   4.805   3.735   2.462 -0.6479  1.6133  0.5220
 6502TIP3   OH243700   0.847   4.291   2.117  0.1119 -0.3377 -0.3011
 6502TIP3    H143701   0.855   4.224   2.185 -0.3843  1.1515  1.3028
 6502TIP3    H243702   0.929   4.284   2.068  1.4585 -0.1294  1.7585
 6503TIP3   OH243703   7.022   3.523   0.849 -0.2818 -0.6969  0.4162
 6503TIP3    H143704   7.064   3.541   0.933  0.0429  1.5078 -0.1332
 6503TIP3    H243705   6.935   3.562   0.857  0.7210  2.2142 -1.1085
 6504TIP3   OH243706   2.989   2.421   3.057 -0.1756  0.0016  0.4428
 6504TIP3    H143707   2.931   2.494   3.078 -3.1087 -1.8933 -0.4769
 6504TIP3    H243708   3.007   2.379   3.142  0.0265  0.7214  0.7609
 6505TIP3   OH243709   3.871   7.146   2.196 -0.6411  0.7293  0.2505
 6505TIP3    H143710   3.872   7.217   2.260 -1.7844  1.0065 -0.0121
 6505TIP3    H243711   3.885   7.189   2.112 -0.0134  0.4693  0.2123
 6506TIP3   OH243712   0.716   4.832   2.221 -0.0281 -0.1340 -0.0390
 6506TIP3    H143713   0.653   4.896   2.254  1.3787  1.7835 -0.8585
 6506TIP3    H243714   0.705   4.756   2.278 -2.7572  0.2477  0.0858
 6507TIP3   OH243715   1.047   7.233   1.928  0.0359  0.1913  0.4941
 6507TIP3    H143716   1.112   7.236   1.857  1.0465  1.0735  1.4037
 6507TIP3    H243717   0.963   7.230   1.884  0.5532  2.5579 -0.8112
 6508TIP3   OH243718   4.674   1.266   1.672 -0.2117 -0.1527 -0.0687
 6508TIP3    H143719   4.644   1.194   1.616 -0.4342  0.1535 -0.3464
 6508TIP3    H243720   4.611   1.336   1.656  0.4426  0.3715 -0.3863
 6509TIP3   OH243721   4.720   3.667   0.678 -0.0664  0.2499  0.5797
 6509TIP3    H143722   4.721   3.602   0.607 -0.3328  0.0029  0.8017
 6509TIP3    H243723   4.729   3.615   0.758 -0.8581  0.4342  0.7931
 6510TIP3   OH243724   0.639   5.250   3.292  0.0572  0.1160 -0.3989
 6510TIP3    H143725   0.679   5.328   3.331 -0.3659  0.1346  0.0119
 6510TIP3    H243726   0.707   5.183   3.297  0.4827  0.5019 -0.9090
 6511TIP3   OH243727   1.651   5.602   0.542  0.4011  0.1185 -0.0614
 6511TIP3    H143728   1.566   5.624   0.581 -0.0719  2.2288 -2.0301
 6511TIP3    H243729   1.630   5.539   0.473  0.7976 -1.1203  0.9107
 6512TIP3   OH243730   2.936   6.750   2.309 -0.5861 -0.0269 -0.2458
 6512TIP3    H143731   2.943   6.685   2.239  1.3981 -2.6591  2.1423
 6512TIP3    H243732   2.877   6.710   2.373  0.7982  0.3890  1.3537
 6513TIP3   OH243733   0.934   1.119   0.704 -0.1346  0.4407  0.0143
 6513TIP3    H143734   1.003   1.058   0.678  0.5466  0.9250  0.6340
 6513TIP3    H243735   0.955   1.142   0.795 -1.6409 -0.1168  0.5302
 6514TIP3   OH243736   2.164   5.161   3.043 -0.7062  0.2547 -0.6763
 6514TIP3    H143737   2.193   5.072   3.062  0.3809  0.8170  0.4851
 6514TIP3    H243738   2.140   5.159   2.951  0.8489 -0.8591 -1.1017
 6515TIP3   OH243739   4.430   1.391   1.909  0.4115  0.0070 -0.1380
 6515TIP3    H143740   4.509   1.342   1.933  1.1163  1.4995  0.7295
 6515TIP3    H243741   4.449   1.427   1.823 -0.2328 -1.4510 -0.9200
 6516TIP3   OH243742   4.697   0.060   1.291  0.4791 -0.2676 -0.4506
 6516TIP3    H143743   4.625   0.029   1.237 -3.2071  0.5505  3.4283
 6516TIP3    H243744   4.679   0.153   1.306  0.9408 -0.5207  2.3779
 6517TIP3   OH243745   7.064   0.695   1.654  0.0154 -0.0907  0.4716
 6517TIP3    H143746   7.120   0.722   1.582 -0.4051 -1.5659 -0.4385
 6517TIP3    H243747   7.117   0.632   1.704  0.0259  0.3341  1.0067
 6518TIP3   OH243748   3.975   3.461   1.949  0.2622  0.2409  0.5695
 6518TIP3    H143749   3.992   3.521   1.876  2.2217 -0.4391  0.4070
 6518TIP3    H243750   3.896   3.495   1.990 -0.9843  0.5951 -1.9340
 6519TIP3   OH243751   4.685   0.334   1.214  0.3056 -0.5633  0.3424
 6519TIP3    H143752   4.751   0.392   1.176 -2.1231  0.9542 -1.8770
 6519TIP3    H243753   4.629   0.392   1.265 -1.1549 -1.2576 -0.4332
 6520TIP3   OH243754   1.252   6.369   2.323  0.6081 -0.2671 -0.2546
 6520TIP3    H143755   1.337   6.406   2.348 -0.2161  0.8980  1.0326
 6520TIP3    H243756   1.232   6.409   2.238 -0.4078  2.7335  1.2387
 6521TIP3   OH243757   4.423   3.410   1.342 -0.1606  0.0278 -0.1805
 6521TIP3    H143758   4.455   3.394   1.431  3.0486  1.8739 -0.8457
 6521TIP3    H243759   4.450   3.333   1.292 -2.3523 -1.2163  0.4132
 6522TIP3   OH243760   2.174   6.815   3.040 -0.2539 -0.1466  0.0449
 6522TIP3    H143761   2.097   6.867   3.064  0.2397  0.1482  1.0618
 6522TIP3    H243762   2.236   6.829   3.112  0.5129 -0.8758 -0.4478
 6523TIP3   OH243763   3.214   0.837   0.583  0.6432 -0.1499 -0.3562
 6523TIP3    H143764   3.245   0.927   0.596  1.2352 -0.3988  0.0470
 6523TIP3    H243765   3.250   0.789   0.658  1.0393 -0.8881 -0.9989
 6524TIP3   OH243766   6.388   0.797   0.879  0.2329 -0.1139  0.0078
 6524TIP3    H143767   6.303   0.839   0.867  0.7139  0.7055 -0.6487
 6524TIP3    H243768   6.434   0.853   0.941  0.1402 -0.8006  0.7082
 6525TIP3   OH243769   7.015   0.355   1.900  0.3754 -0.0189  0.1233
 6525TIP3    H143770   7.100   0.361   1.944  0.9060  2.5124 -0.9998
 6525TIP3    H243771   7.030   0.397   1.815 -1.8698 -0.0346 -0.3454
 6526TIP3   OH243772   6.905   1.797   1.126 -0.7259  0.6523  0.6429
 6526TIP3    H143773   6.949   1.882   1.124 -0.4481  0.5230  1.1575
 6526TIP3    H243774   6.894   1.774   1.034  0.7030  0.4791  0.5024
 6527TIP3   OH243775   6.335   4.576   2.234 -0.4339  0.1097 -0.1646
 6527TIP3    H143776   6.329   4.481   2.231 -0.2169  0.0717  0.4227
 6527TIP3    H243777   6.311   4.598   2.324 -2.2890  0.7488 -0.7652
 6528TIP3   OH243778   4.741   4.010   2.186  0.0236  0.2741 -0.1939
 6528TIP3    H143779   4.762   4.026   2.278  0.7934  1.9044 -0.6070
 6528TIP3    H243780   4.813   3.957   2.153 -0.0540  0.0189  0.0429
 6529TIP3   OH243781   6.279   1.653   1.684 -0.4938  0.4384 -0.8602
 6529TIP3    H143782   6.273   1.707   1.606  0.2048 -0.3133 -1.4490
 6529TIP3    H243783   6.247   1.567   1.657 -1.1905  0.4274 -0.0519
 6530TIP3   OH243784   1.083   5.031   0.849  0.3720  0.3693 -0.0049
 6530TIP3    H143785   1.008   4.980   0.880  0.9060 -0.2875  0.2352
 6530TIP3    H243786   1.159   4.989   0.890  0.7335  2.1910  1.3173
 6531TIP3   OH243787   5.231   7.474   3.202 -0.3683 -0.1414  0.0577
 6531TIP3    H143788   5.160   7.419   3.236  0.5102 -2.4939 -1.6558
 6531TIP3    H243789   5.311   7.428   3.228  0.3998  0.1527 -1.6651
 6532TIP3   OH243790   0.424   1.854   1.428 -0.3053 -0.1805  0.1776
 6532TIP3    H143791   0.427   1.760   1.408 -0.6758 -0.3338  0.8074
 6532TIP3    H243792   0.400   1.858   1.520 -0.3979  0.5436  0.1296
 6533TIP3   OH243793   0.713   4.039   2.455  0.1976 -0.3919 -0.3979
 6533TIP3    H143794   0.740   3.959   2.500 -0.1394 -0.8782 -1.0448
 6533TIP3    H243795   0.759   4.109   2.502 -0.2214 -0.8629  0.7599
 6534TIP3   OH243796   1.414   3.120   1.128 -0.4390  0.3928  0.3870
 6534TIP3    H143797   1.483   3.067   1.088  0.0538  2.1421 -1.2148
 6534TIP3    H243798   1.440   3.127   1.220  1.7555  1.2794 -0.2290
 6535TIP3   OH243799   2.242   0.940   0.860 -0.0380 -0.3974  0.0902
 6535TIP3    H143800   2.188   1.018   0.851 -0.1762 -0.2732  1.6605
 6535TIP3    H243801   2.332   0.972   0.857  0.1033 -0.6969 -3.3875
 6536TIP3   OH243802   5.084   1.323   3.178  0.1939  0.0947 -0.0226
 6536TIP3    H143803   4.994   1.350   3.159  0.9899  1.1267 -2.8061
 6536TIP3    H243804   5.121   1.397   3.227 -0.0599  0.3154 -0.1609
 6537TIP3   OH243805   4.930   5.047   0.614  0.5946 -0.0810 -0.1161
 6537TIP3    H143806   4.997   5.000   0.565  1.8488 -0.1908  1.5985
 6537TIP3    H243807   4.976   5.123   0.652 -0.6584  0.7976 -0.2779
 6538TIP3   OH243808   2.931   6.108   1.179  0.0012  0.2540  0.2855
 6538TIP3    H143809   2.887   6.165   1.242 -1.5152  0.3133 -0.7629
 6538TIP3    H243810   2.916   6.151   1.095  0.6742 -0.6083 -0.2831
 6539TIP3   OH243811   7.083   1.194   2.168 -0.5518  0.4458  0.6319
 6539TIP3    H143812   7.132   1.270   2.137  0.2195 -0.2605  0.0618
 6539TIP3    H243813   6.993   1.210   2.139 -0.3041  0.9187  0.0936
 6540TIP3   OH243814   1.857   6.885   2.679 -0.2438  0.0416  0.1467
 6540TIP3    H143815   1.900   6.807   2.714  1.5354  1.4013  1.1734
 6540TIP3    H243816   1.763   6.866   2.687  0.1238 -2.1488 -0.0765
 6541TIP3   OH243817   5.171   6.298   2.351 -0.0596  0.1764  0.5705
 6541TIP3    H143818   5.119   6.221   2.376  1.7123 -0.9416  0.9551
 6541TIP3    H243819   5.182   6.289   2.256 -1.5010  1.0647  0.2779
 6542TIP3   OH243820   2.391   2.537   0.557  0.4352 -0.1935 -0.1743
 6542TIP3    H143821   2.437   2.479   0.496 -0.0292 -0.3106 -0.4191
 6542TIP3    H243822   2.415   2.625   0.529 -0.5845 -0.2087 -1.2001
 6543TIP3   OH243823   2.652   7.512   1.867 -0.1727 -0.3639 -0.7780
 6543TIP3    H143824   2.728   7.471   1.826 -0.4367 -1.7629  0.0685
 6543TIP3    H243825   2.588   7.520   1.796  1.2300  2.2550 -1.8831
 6544TIP3   OH243826   4.647   6.472   1.796  0.1943  0.4654  0.1857
 6544TIP3    H143827   4.709   6.399   1.787  2.5999  2.3281  0.5421
 6544TIP3    H243828   4.695   6.538   1.847 -1.2227  2.9946 -1.5533
 6545TIP3   OH243829   3.563   1.777   2.066 -0.2677 -0.0414 -0.2761
 6545TIP3    H143830   3.656   1.764   2.046 -0.0850  0.6746  0.0733
 6545TIP3    H243831   3.536   1.695   2.108  0.2836 -0.1380 -0.0980
 6546TIP3   OH243832   4.382   5.673   1.106  0.5950  0.0872  0.1964
 6546TIP3    H143833   4.473   5.697   1.084  0.7450  0.2712  0.9855
 6546TIP3    H243834   4.353   5.743   1.164 -0.7912  1.1869 -1.7358
 6547TIP3   OH243835   0.980   6.876   3.531  0.1841 -0.4329  0.4454
 6547TIP3    H143836   1.030   6.887   3.450  0.1769  0.7863  0.5927
 6547TIP3    H243837   0.938   6.790   3.522 -0.7525  0.1551 -1.3692
 6548TIP3   OH243838   5.672   4.188   2.508 -0.1749  0.1565  0.5236
 6548TIP3    H143839   5.641   4.179   2.417  0.1251 -0.8794  0.5102
 6548TIP3    H243840   5.744   4.125   2.515  1.2144  1.7126  0.8869
 6549TIP3   OH243841   5.622   4.203   1.139 -0.0581  0.0158 -0.0900
 6549TIP3    H143842   5.575   4.140   1.084  0.0171 -0.4423  0.3599
 6549TIP3    H243843   5.586   4.288   1.114 -1.1485 -0.3275  0.2636
 6550TIP3   OH243844   1.440   0.778   1.855 -0.5354  0.0741 -0.5483
 6550TIP3    H143845   1.463   0.685   1.864  0.5590  0.5039  2.1079
 6550TIP3    H243846   1.370   0.779   1.790 -0.6147 -2.6102 -0.6274
 6551TIP3   OH243847   2.579   6.509   1.048 -0.2353 -0.1306  0.5689
 6551TIP3    H143848   2.488   6.487   1.070 -1.0945  2.1231 -0.4488
 6551TIP3    H243849   2.602   6.578   1.111  0.2232  0.3797 -0.1455
 6552TIP3   OH243850   5.233   3.597   1.190 -0.7194  0.0380  0.1735
 6552TIP3    H143851   5.182   3.522   1.222 -0.9325 -0.4878 -1.3424
 6552TIP3    H243852   5.174   3.672   1.202 -0.5008 -0.0030  1.7089
 6553TIP3   OH243853   2.903   4.007   2.906  0.2204  0.1891  0.3099
 6553TIP3    H143854   2.894   3.972   2.994 -2.1939  0.0206  0.0585
 6553TIP3    H243855   2.977   4.067   2.911  1.9033 -1.8396  1.7419
 6554TIP3   OH243856   4.717   4.094   1.559 -0.4438 -0.1257 -0.1562
 6554TIP3    H143857   4.789   4.151   1.530 -0.3586 -0.7169 -1.1559
 6554TIP3    H243858   4.651   4.101   1.489 -0.8362 -0.5238  0.1681
 6555TIP3   OH243859   4.080   2.143   2.168 -0.0686  0.4649 -0.3322
 6555TIP3    H143860   4.175   2.152   2.161  0.2334 -0.5814  1.5922
 6555TIP3    H243861   4.065   2.048   2.172 -1.4316  0.4947 -2.6030
 6556TIP3   OH243862   0.066   0.207   3.041 -0.9250  0.1881  0.4935
 6556TIP3    H143863   0.066   0.145   2.968 -0.2066 -0.8085  1.3054
 6556TIP3    H243864   0.145   0.260   3.027 -0.2445 -0.6557  1.0617
 6557TIP3   OH243865   5.497   1.575   1.539  0.7249 -0.0566  0.2975
 6557TIP3    H143866   5.511   1.618   1.624 -0.9214  2.1317 -0.4268
 6557TIP3    H243867   5.495   1.647   1.476 -0.0264 -1.4321 -1.3403
 6558TIP3   OH243868   1.607   5.155   3.609  0.5106  0.1453  0.3126
 6558TIP3    H143869   1.549   5.230   3.609  1.0561  0.5761  0.1336
 6558TIP3    H243870   1.693   5.191   3.585  1.1751 -0.2343  2.0036
 6559TIP3   OH243871   6.357   3.003   1.975 -0.4571  0.4007  0.0647
 6559TIP3    H143872   6.434   2.961   1.937 -2.0406 -2.1470 -0.5185
 6559TIP3    H243873   6.387   3.038   2.059  1.3092 -0.6265 -0.0999
 6560TIP3   OH243874   6.433   2.716   1.481 -0.2120  0.5578  0.0893
 6560TIP3    H143875   6.436   2.764   1.563  1.1953  1.4610 -0.4472
 6560TIP3    H243876   6.502   2.650   1.490  0.6483  1.3198 -0.7316
 6561TIP3   OH243877   4.298   1.557   2.264 -0.2391 -0.4510 -0.0781
 6561TIP3    H143878   4.352   1.616   2.211  0.7382 -1.1007  0.1719
 6561TIP3    H243879   4.254   1.501   2.200  1.6424 -1.8424 -0.2161
 6562TIP3   OH243880   0.544   2.291   1.339  0.2153 -0.3513  0.0982
 6562TIP3    H143881   0.524   2.385   1.338  1.2286 -0.1207 -0.1894
 6562TIP3    H243882   0.500   2.258   1.417  1.8006  0.8438  1.5917
 6563TIP3   OH243883   5.623   1.999   2.326  0.4873  0.0538 -0.1887
 6563TIP3    H143884   5.707   2.020   2.367 -0.3638  0.2428  1.5646
 6563TIP3    H243885   5.572   1.957   2.395 -0.7319 -0.4108 -1.3210
 6564TIP3   OH243886   3.192   6.492   2.412 -0.0355 -0.0632 -0.5373
 6564TIP3    H143887   3.217   6.551   2.341  1.8084  1.9217  1.5562
 6564TIP3    H243888   3.247   6.415   2.400  1.9489  1.2099 -0.0890
 6565TIP3   OH243889   3.129   5.306   2.574  0.2210  0.5371  0.1383
 6565TIP3    H143890   3.202   5.276   2.627  1.6791  2.7595 -0.4917
 6565TIP3    H243891   3.128   5.401   2.585 -1.4561  0.7501 -1.2918
 6566TIP3   OH243892   1.651   5.326   0.684 -0.1210 -0.0058  0.0153
 6566TIP3    H143893   1.557   5.338   0.671 -0.5258 -0.4979  2.1911
 6566TIP3    H243894   1.683   5.412   0.708 -0.4378 -0.2797  1.4725
 6567TIP3   OH243895   0.850   2.517   1.520 -0.2796  0.1355 -0.0758
 6567TIP3    H143896   0.938   2.505   1.486 -0.6281 -0.1797 -0.8950
 6567TIP3    H243897   0.862   2.541   1.612  0.6617  0.4462 -0.2794
 6568TIP3   OH243898   4.791   3.646   2.799 -0.4670  0.2269  0.1161
 6568TIP3    H143899   4.881   3.665   2.773 -0.7126  0.8730 -0.2834
 6568TIP3    H243900   4.747   3.731   2.795 -1.2114 -0.1718 -0.1541
 6569TIP3   OH243901   1.135   6.869   2.026 -0.4271 -0.4373  0.0925
 6569TIP3    H143902   1.043   6.875   2.053 -0.1668 -0.4732  0.9927
 6569TIP3    H243903   1.130   6.851   1.932 -1.3254  0.7864 -0.1201
 6570TIP3   OH243904   2.346   1.659   1.404 -0.0253 -0.2011  0.5087
 6570TIP3    H143905   2.430   1.638   1.445  1.7873  1.0103 -2.2494
 6570TIP3    H243906   2.331   1.751   1.427  0.2238  0.0316 -0.2166
 6571TIP3   OH243907   4.279   4.209   3.222  0.6831 -0.1943  0.1265
 6571TIP3    H143908   4.218   4.252   3.161  0.4796 -1.1592 -0.3690
 6571TIP3    H243909   4.294   4.123   3.183  1.2100 -0.5095  1.0205
 6572TIP3   OH243910   3.574   1.390   2.553  0.1874  0.2763 -1.0175
 6572TIP3    H143911   3.507   1.453   2.579  1.1432  0.2125  2.0774
 6572TIP3    H243912   3.653   1.419   2.599  0.9518 -2.4831 -0.3864
 6573TIP3   OH243913   4.513   4.742   1.990  0.2123  0.0702 -0.0183
 6573TIP3    H143914   4.458   4.692   1.930  1.5316 -0.0840 -1.1203
 6573TIP3    H243915   4.595   4.694   1.995  1.3596  1.8444 -0.7586
 6574TIP3   OH243916   2.342   2.584   2.590  0.1209  0.2622  0.7490
 6574TIP3    H143917   2.376   2.524   2.523  0.2907  1.7090 -0.5222
 6574TIP3    H243918   2.412   2.648   2.603  0.8628 -1.0310  3.7542
 6575TIP3   OH243919   4.072   0.819   0.640 -0.4556  0.2446  0.0689
 6575TIP3    H143920   4.041   0.794   0.726 -0.6197 -4.4287 -1.0987
 6575TIP3    H243921   4.165   0.796   0.639 -0.3370  0.6836 -0.8537
 6576TIP3   OH243922   5.237   7.453   1.326  0.3620 -0.3527 -0.4978
 6576TIP3    H143923   5.204   7.391   1.391  0.6560  0.1041  0.0964
 6576TIP3    H243924   5.288   7.516   1.377  0.9659 -0.2392 -1.2265
 6577TIP3   OH243925   4.004   5.901   2.976  0.6031 -0.3140 -0.4037
 6577TIP3    H143926   4.065   5.974   2.989  1.6239 -1.1385 -0.3753
 6577TIP3    H243927   3.975   5.910   2.885  1.7903 -0.6295 -0.8354
 6578TIP3   OH243928   3.906   7.424   2.316 -0.2301  0.6702 -0.2165
 6578TIP3    H143929   3.823   7.451   2.354  1.0189  3.3526  0.8172
 6578TIP3    H243930   3.917   7.479   2.239  1.2829  1.5227  0.5560
 6579TIP3   OH243931   3.300   1.024   2.812 -0.1410 -0.4063  0.2303
 6579TIP3    H143932   3.315   1.027   2.718 -0.4546  2.0591  0.1730
 6579TIP3    H243933   3.377   1.066   2.850 -0.0594 -1.2937  1.0690
 6580TIP3   OH243934   1.773   0.118   2.575 -0.3877 -0.2823  0.2898
 6580TIP3    H143935   1.801   0.210   2.577  2.0147 -0.9332  0.0755
 6580TIP3    H243936   1.781   0.093   2.483  0.7333 -1.1412  0.5912
 6581TIP3   OH243937   1.126   5.242   2.517  0.7058 -0.2362  0.6545
 6581TIP3    H143938   1.186   5.310   2.488  0.6679 -0.1047  0.8804
 6581TIP3    H243939   1.178   5.189   2.578  0.4323  0.2034  1.2733
 6582TIP3   OH243940   3.398   3.646   1.273 -0.0217  0.1299 -0.3222
 6582TIP3    H143941   3.456   3.633   1.348  0.9438  0.7314 -0.9365
 6582TIP3    H243942   3.321   3.592   1.292  0.4564 -0.1795  0.8172
 6583TIP3   OH243943   4.026   3.186   2.540  0.1836 -0.6799  0.0037
 6583TIP3    H143944   3.941   3.200   2.581 -0.0770  0.0201 -0.7446
 6583TIP3    H243945   4.086   3.239   2.591 -0.5421  2.1814 -1.8916
 6584TIP3   OH243946   2.077   6.020   3.195 -0.0849  0.1165  0.1842
 6584TIP3    H143947   2.043   5.937   3.230  0.2119 -0.0165  0.1565
 6584TIP3    H243948   1.999   6.073   3.181 -0.3782 -0.5093 -0.7144
 6585TIP3   OH243949   6.495   0.083   1.306  0.0700  0.4867 -0.0857
 6585TIP3    H143950   6.491  -0.001   1.353 -0.5399 -0.1548 -1.2647
 6585TIP3    H243951   6.495   0.148   1.376  0.9951 -0.4848  0.8819
 6586TIP3   OH243952   0.947   5.278   1.627 -0.0965 -0.0055 -0.0070
 6586TIP3    H143953   0.980   5.200   1.672  2.4447 -0.1692 -1.8559
 6586TIP3    H243954   0.969   5.351   1.685 -0.4041 -0.4929  0.7283
 6587TIP3   OH243955   4.090   4.117   1.226  0.7525  0.7714 -0.0671
 6587TIP3    H143956   4.083   4.023   1.211  0.9753  0.8844 -0.9269
 6587TIP3    H243957   4.049   4.131   1.311  1.9438 -0.3031  0.7303
 6588TIP3   OH243958   4.916   1.720   2.221  0.3342  0.8461 -0.0583
 6588TIP3    H143959   4.916   1.801   2.170  0.1528  1.1277  0.3858
 6588TIP3    H243960   4.869   1.657   2.166  0.7519  0.9450 -0.5461
 6589TIP3   OH243961   4.458   5.119   2.432 -0.1125 -0.0263  0.2785
 6589TIP3    H143962   4.461   5.202   2.479  0.2283  0.5160 -0.6763
 6589TIP3    H243963   4.365   5.107   2.413  0.0226  1.2444 -1.4426
 6590TIP3   OH243964   7.392   7.078   3.508  0.2557 -0.1274 -0.1088
 6590TIP3    H143965   7.414   7.138   3.437 -1.2468 -0.1147 -0.5854
 6590TIP3    H243966   7.326   7.125   3.559 -0.7255 -1.2481 -0.3201
 6591TIP3   OH243967   2.991   2.559   1.587  0.0129  0.4218  0.5313
 6591TIP3    H143968   2.939   2.603   1.520 -0.3598 -1.3151 -0.3538
 6591TIP3    H243969   2.941   2.481   1.610  0.7284  0.3434  1.9564
 6592TIP3   OH243970   0.242   3.020   1.600 -0.0518  0.5598 -0.0488
 6592TIP3    H143971   0.280   3.107   1.593  2.8754 -0.6144  0.0309
 6592TIP3    H243972   0.280   2.971   1.527  0.2542 -1.2783  1.2631
 6593TIP3   OH243973   1.986   7.545   2.006  0.2346  0.0541  0.1059
 6593TIP3    H143974   1.931   7.487   1.953 -0.4992  1.1131 -0.3298
 6593TIP3    H243975   1.984   7.629   1.960  1.0149  0.5288  0.8920
 6594TIP3   OH243976   4.118   6.201   2.046  0.3780  0.2285  0.2759
 6594TIP3    H143977   4.183   6.140   2.012 -1.2757  0.1308 -3.1051
 6594TIP3    H243978   4.141   6.286   2.008 -2.1223 -0.0865 -2.3272
 6595TIP3   OH243979   7.288   3.958   2.524 -0.1367  0.0445 -0.1893
 6595TIP3    H143980   7.332   4.031   2.566 -0.4966  0.4639 -0.5377
 6595TIP3    H243981   7.255   3.905   2.597  1.6115 -0.7272  0.1108
 6596TIP3   OH243982   5.267   3.975   0.986  0.1311  0.1097 -0.1287
 6596TIP3    H143983   5.240   3.998   1.075 -1.9060  0.3499 -0.7395
 6596TIP3    H243984   5.278   4.059   0.942  0.1058 -0.0128 -0.3727
 6597TIP3   OH243985   2.577   6.221   3.157 -0.0619 -0.0710 -0.4321
 6597TIP3    H143986   2.575   6.136   3.113 -2.3717 -0.1644 -0.2745
 6597TIP3    H243987   2.541   6.204   3.244  0.3694  0.8954 -0.0574
 6598TIP3   OH243988   5.986   2.549   1.192 -0.5905  0.5640 -0.2586
 6598TIP3    H143989   5.923   2.489   1.232  0.3380 -0.4674 -0.3050
 6598TIP3    H243990   5.999   2.618   1.258 -0.3025 -0.2598  0.5620
 6599TIP3   OH243991   0.176   4.001   1.921 -0.2931 -0.3611  0.2289
 6599TIP3    H143992   0.093   4.044   1.902 -0.9289 -1.4117  0.5641
 6599TIP3    H243993   0.160   3.909   1.901  1.4654 -0.2967 -1.9052
 6600TIP3   OH243994   1.402   6.026   1.257 -0.3439  0.0358 -0.6036
 6600TIP3    H143995   1.328   5.975   1.225 -0.4154  1.0471 -2.2168
 6600TIP3    H243996   1.463   6.027   1.184  0.2280  1.1191 -0.1377
 6601TIP3   OH243997   0.521   4.489   1.655  0.2243 -0.0751  0.4060
 6601TIP3    H143998   0.447   4.537   1.617 -0.3314 -2.4512 -1.8018
 6601TIP3    H243999   0.496   4.474   1.746 -2.0251 -0.7048 -0.2461
 6602TIP3   OH244000   4.895   0.006   3.041 -0.1763  0.1233 -0.2455
 6602TIP3    H144001   4.849   0.005   3.125 -0.3269  2.8871 -0.2100
 6602TIP3    H244002   4.917  -0.086   3.025 -1.9646 -0.7480  1.7846
 6603TIP3   OH244003   5.076   1.786   1.620 -0.1403 -0.2561 -0.2351
 6603TIP3    H144004   5.056   1.865   1.671  0.2644  0.0074 -0.4776
 6603TIP3    H244005   5.096   1.720   1.686  0.8029  0.1976 -0.0412
 6604TIP3   OH244006   2.567   5.366   1.864  0.2416 -0.5551 -0.1609
 6604TIP3    H144007   2.641   5.322   1.822  1.5805 -0.1879  1.6636
 6604TIP3    H244008   2.596   5.456   1.876 -0.1012 -0.6234  1.4302
 6605TIP3   OH244009   4.637   4.708   1.119  0.2104 -0.1154  0.3529
 6605TIP3    H144010   4.698   4.652   1.167  1.5856  0.3724 -0.7571
 6605TIP3    H244011   4.576   4.647   1.078  1.3656 -0.8170 -0.3987
 6606TIP3   OH244012   0.142   7.422   0.688  0.4898  0.3578 -0.6100
 6606TIP3    H144013   0.200   7.452   0.758 -0.6809  0.5901  0.2888
 6606TIP3    H244014   0.076   7.490   0.681  1.1511  0.8603 -2.6890
 6607TIP3   OH244015   6.739   0.409   2.846 -0.2587  0.3143  0.1065
 6607TIP3    H144016   6.715   0.433   2.935  1.2669  1.7367  0.1857
 6607TIP3    H244017   6.758   0.316   2.850  1.2231  0.6448  1.6161
 6608TIP3   OH244018   2.147   1.170   1.392  0.6235  0.2399  0.5585
 6608TIP3    H144019   2.238   1.196   1.377  0.6555 -1.1089 -2.3048
 6608TIP3    H244020   2.095   1.246   1.364  0.8474 -0.0157 -0.5979
 6609TIP3   OH244021   7.566   2.343   2.989 -0.6258 -0.6934  0.2444
 6609TIP3    H144022   7.509   2.410   3.024 -0.4483 -1.0884  1.3366
 6609TIP3    H244023   7.510   2.290   2.933 -1.2236 -0.7674  0.8975
 6610TIP3   OH244024   1.929   3.030   9.071  0.1859  0.0003 -0.0734
 6610TIP3    H144025   1.907   3.107   9.019 -1.2222 -0.8376 -0.7778
 6610TIP3    H244026   1.857   3.020   9.133  0.5557 -0.5167  0.2878
 6611TIP3   OH244027   6.115   3.946   2.787  0.1247  0.1712  1.1402
 6611TIP3    H144028   6.201   3.906   2.801 -0.4176 -1.3587  0.3896
 6611TIP3    H244029   6.053   3.877   2.809 -0.8555  0.3382 -0.9205
 6612TIP3   OH244030   4.339   3.244   0.986 -0.1094  0.3611 -0.0525
 6612TIP3    H144031   4.365   3.182   0.918  0.0215  1.2675 -0.8601
 6612TIP3    H244032   4.409   3.310   0.986 -0.3322  0.6117  0.6619
 6613TIP3   OH244033   6.355   4.774   0.902  0.5013 -0.3085  0.1051
 6613TIP3    H144034   6.370   4.705   0.966 -1.7186 -0.3445  0.6868
 6613TIP3    H244035   6.362   4.730   0.817  0.9548 -0.8351  0.4147
 6614TIP3   OH244036   6.595   2.749   0.546  0.0231  0.0147  0.2835
 6614TIP3    H144037   6.635   2.667   0.518  0.5481  0.4898 -0.3693
 6614TIP3    H244038   6.563   2.731   0.635 -0.1481 -0.9880  0.0259
 6615TIP3   OH244039   1.837   6.151   1.979 -0.0579 -0.3031 -0.5616
 6615TIP3    H144040   1.804   6.158   1.890 -0.3208 -0.2457 -0.4605
 6615TIP3    H244041   1.931   6.165   1.971 -0.1667  0.3773 -0.7519
 6616TIP3   OH244042   2.326   0.867   2.147  0.0539 -0.1719 -0.6352
 6616TIP3    H144043   2.368   0.918   2.216  0.6007  0.9953 -1.8102
 6616TIP3    H244044   2.237   0.851   2.180  0.9044 -1.3976  1.2188
 6617TIP3   OH244045   5.758   1.352   1.154 -0.1794  0.1705 -0.0304
 6617TIP3    H144046   5.669   1.329   1.128 -0.5947  0.6154  0.9409
 6617TIP3    H244047   5.808   1.352   1.073 -0.9066 -0.7753 -0.4927
 6618TIP3   OH244048   0.147   3.565   2.567 -0.2412  0.6598 -0.2709
 6618TIP3    H144049   0.116   3.607   2.486  2.4038 -0.8190 -2.2160
 6618TIP3    H244050   0.125   3.472   2.555  1.5749  0.1736 -0.0709
 6619TIP3   OH244051   4.820   2.626   1.445 -0.4622 -0.3245 -0.0944
 6619TIP3    H144052   4.841   2.608   1.354 -1.0589 -1.5324 -0.0158
 6619TIP3    H244053   4.750   2.692   1.442  0.2468  0.4220 -0.4655
 6620TIP3   OH244054   7.038   0.823   1.190  0.5684  0.3688  0.0856
 6620TIP3    H144055   7.050   0.917   1.204 -1.0547  0.4615  1.0724
 6620TIP3    H244056   7.120   0.783   1.222  0.2026  1.2550  2.2457
 6621TIP3   OH244057   7.174   5.910   2.574 -0.5088  0.6282  0.1781
 6621TIP3    H144058   7.137   5.840   2.628  1.6833 -0.1584  0.7763
 6621TIP3    H244059   7.207   5.866   2.496  1.2892  0.8734  0.7550
 6622TIP3   OH244060   2.910   3.975   1.933  0.1565  0.0868 -0.4821
 6622TIP3    H144061   2.881   3.884   1.928  0.9368 -0.1779 -0.2711
 6622TIP3    H244062   2.844   4.018   1.988  0.3957 -0.6054  0.3647
 6623TIP3   OH244063   0.359   2.199   3.149  0.0923 -0.1560  0.1684
 6623TIP3    H144064   0.415   2.121   3.145  0.7601  0.2766  0.7841
 6623TIP3    H244065   0.419   2.272   3.134 -0.1237  0.3710  1.7070
 6624TIP3   OH244066   7.614   4.838   1.778 -0.1366 -0.0103 -0.7051
 6624TIP3    H144067   7.571   4.832   1.863  0.0406  0.5425 -0.5737
 6624TIP3    H244068   7.568   4.774   1.724  1.0628 -1.8816  0.3526
 6625TIP3   OH244069   2.798   5.268   1.761  0.2755  0.2306  0.1032
 6625TIP3    H144070   2.810   5.174   1.751  0.5987  0.1252  1.3375
 6625TIP3    H244071   2.880   5.299   1.800  0.5246  1.1823 -1.0993
 6626TIP3   OH244072   3.630   6.107   1.410  0.0670  0.4116 -0.1112
 6626TIP3    H144073   3.670   6.194   1.413  0.2324  0.3744  3.8125
 6626TIP3    H244074   3.543   6.120   1.448  0.3674 -1.1970  1.2307
 6627TIP3   OH244075   5.138   0.574   1.086  0.1737 -0.2496  0.2551
 6627TIP3    H144076   5.156   0.489   1.045  2.0006 -0.1966  0.8389
 6627TIP3    H244077   5.223   0.603   1.119 -0.1496  2.4340 -1.0475
 6628TIP3   OH244078   6.260   6.924   1.333 -0.0718 -0.8180  0.2241
 6628TIP3    H144079   6.284   6.957   1.419 -2.3914 -2.7612  1.7250
 6628TIP3    H244080   6.220   7.000   1.289  1.5245  0.3012  0.5923
 6629TIP3   OH244081   1.901   6.931   1.354 -0.0018 -0.5380 -0.0265
 6629TIP3    H144082   1.962   6.965   1.288 -0.2783  0.9459  0.4494
 6629TIP3    H244083   1.953   6.868   1.404  1.6583  1.7188  1.2999
 6630TIP3   OH244084   3.222   3.572   2.606  0.1701 -0.1639 -0.3990
 6630TIP3    H144085   3.258   3.602   2.523 -2.3240  1.9103 -0.8558
 6630TIP3    H244086   3.133   3.544   2.585 -0.8027  1.1682  1.6372
 6631TIP3   OH244087   6.764   2.821   2.780  0.6052 -0.5807 -0.2405
 6631TIP3    H144088   6.837   2.838   2.838  0.4437 -0.1955 -0.1474
 6631TIP3    H244089   6.796   2.754   2.719  1.8610  1.2745 -1.7287
 6632TIP3   OH244090   1.291   5.933   3.376 -0.2633  0.0479 -0.5741
 6632TIP3    H144091   1.383   5.927   3.350  0.3487 -1.3519  1.6263
 6632TIP3    H244092   1.284   6.018   3.421  0.1551 -0.1622 -0.1022
 6633TIP3   OH244093   0.284   3.441   2.288  0.2253 -0.8223  0.3887
 6633TIP3    H144094   0.272   3.523   2.239 -1.3909 -0.8589  0.6611
 6633TIP3    H244095   0.378   3.435   2.301  0.4786  0.4500 -0.5713
 6634TIP3   OH244096   1.181   3.129   1.016  0.3182 -0.0682 -0.6534
 6634TIP3    H144097   1.147   3.042   0.993 -1.5481 -0.0737  1.8045
 6634TIP3    H244098   1.267   3.112   1.055  1.4373 -0.4342 -3.0783
 6635TIP3   OH244099   6.303   7.276   3.227  0.1512 -0.4079 -0.3611
 6635TIP3    H144100   6.350   7.349   3.187  0.6974 -0.3348  0.4128
 6635TIP3    H244101   6.220   7.314   3.255 -0.9192 -0.7767 -2.7361
 6636TIP3   OH244102   7.673   2.195   1.064  0.3531 -0.0108  0.0397
 6636TIP3    H144103   7.751   2.239   1.096 -0.6884  1.1173  1.1426
 6636TIP3    H244104   7.662   2.120   1.123  0.1383  0.3336  0.4502
 6637TIP3   OH244105   7.592   0.766   2.865  0.5346  0.2499 -0.4880
 6637TIP3    H144106   7.642   0.730   2.939  1.1215 -0.1818 -1.0731
 6637TIP3    H244107   7.620   0.713   2.790  0.0408  0.7572 -1.0401
 6638TIP3   OH244108   2.255   7.402   2.809  0.0823  0.5720  0.2269
 6638TIP3    H144109   2.295   7.366   2.730 -1.0110 -2.3579  0.8852
 6638TIP3    H244110   2.328   7.411   2.871  0.3666 -0.9744  0.1541
 6639TIP3   OH244111   6.073   7.449   1.128 -0.6692 -0.9075  0.0829
 6639TIP3    H144112   6.018   7.509   1.179 -0.9099 -2.0060  1.1845
 6639TIP3    H244113   6.039   7.455   1.039 -0.7856  0.4460  0.1905
 6640TIP3   OH244114   2.944   1.616   0.831  0.7019 -0.4313 -0.2952
 6640TIP3    H144115   2.915   1.693   0.880 -1.0053 -0.1960 -1.5748
 6640TIP3    H244116   3.024   1.587   0.876  0.5859  1.2245  1.0692
 6641TIP3   OH244117   5.472   7.348   1.774 -0.3300 -0.1613  0.3777
 6641TIP3    H144118   5.385   7.387   1.781 -0.6963 -0.6139 -1.1694
 6641TIP3    H244119   5.525   7.416   1.732  0.4780  0.6366  2.5287
 6642TIP3   OH244120   5.051   7.313   1.496 -0.1711 -0.3406  0.0015
 6642TIP3    H144121   5.059   7.299   1.590 -3.0675 -0.1095  0.3899
 6642TIP3    H244122   5.037   7.226   1.459 -1.8844 -0.2137  0.2396
 6643TIP3   OH244123   7.639   2.082   0.592 -0.4417  0.3646  0.2157
 6643TIP3    H144124   7.560   2.074   0.645 -1.6297 -1.8403 -1.6860
 6643TIP3    H244125   7.636   2.172   0.558 -0.1385  1.5187  2.9514
 6644TIP3   OH244126   2.440   4.746   3.041 -0.6071  0.1656  0.5820
 6644TIP3    H144127   2.370   4.772   3.101 -0.0342  3.2337  0.0733
 6644TIP3    H244128   2.446   4.818   2.978  1.6308 -0.9915 -0.6549
 6645TIP3   OH244129   0.567   1.506   2.436  0.7122  0.7267 -0.3248
 6645TIP3    H144130   0.547   1.421   2.475  2.3109  1.1976  1.7432
 6645TIP3    H244131   0.620   1.486   2.359  0.0326 -0.1764 -0.5638
 6646TIP3   OH244132   4.262   1.798   1.134 -0.2796 -0.1821 -0.3836
 6646TIP3    H144133   4.245   1.858   1.063 -2.8814 -2.5461 -1.9749
 6646TIP3    H244134   4.182   1.799   1.187  0.3321 -0.8819  0.6077
 6647TIP3   OH244135   5.127   2.403   1.815 -0.6723 -0.4115 -0.0863
 6647TIP3    H144136   5.165   2.330   1.866  0.0738 -0.4206 -0.6364
 6647TIP3    H244137   5.081   2.361   1.743  0.0249 -0.3462 -0.5845
 6648TIP3   OH244138   3.166   5.326   0.785 -0.1596  0.3646 -0.0841
 6648TIP3    H144139   3.101   5.371   0.732 -3.3668 -0.8506  2.4696
 6648TIP3    H244140   3.211   5.396   0.833 -1.1171  1.1410 -0.2980
 6649TIP3   OH244141   1.840   7.504   2.837 -0.3259 -0.1903  0.4084
 6649TIP3    H144142   1.837   7.409   2.846 -0.2454 -0.2201  0.1300
 6649TIP3    H244143   1.926   7.522   2.797 -1.3921 -0.2126 -2.0999
 6650TIP3   OH244144   6.726   4.060   0.816 -0.1901 -0.5494  0.0933
 6650TIP3    H144145   6.634   4.078   0.835 -0.9801 -1.6948 -2.2465
 6650TIP3    H244146   6.742   3.975   0.858 -0.0183 -0.1298  0.9087
 6651TIP3   OH244147   2.405   0.321   2.951  0.2610  0.3054 -0.0048
 6651TIP3    H144148   2.374   0.323   3.041 -0.0700  3.3956 -0.1044
 6651TIP3    H244149   2.391   0.230   2.923 -1.3381 -0.2928  2.4364
 6652TIP3   OH244150   1.895   3.167   2.398  0.2618 -0.1716 -0.6344
 6652TIP3    H144151   1.811   3.125   2.413  0.0519  0.1706 -0.8381
 6652TIP3    H244152   1.925   3.131   2.314  0.8536 -1.1442 -0.0291
 6653TIP3   OH244153   2.614   6.012   0.766  0.2789 -0.4319  0.1865
 6653TIP3    H144154   2.665   6.057   0.834 -0.5057 -2.9951  2.6373
 6653TIP3    H244155   2.523   6.036   0.784  0.2172  1.3863 -2.0551
 6654TIP3   OH244156   6.120   2.990   1.432 -0.2238 -0.7581  0.0933
 6654TIP3    H144157   6.196   2.992   1.491 -0.3091  0.0533  0.1872
 6654TIP3    H244158   6.058   3.053   1.471 -0.6717 -0.9264 -0.3416
 6655TIP3   OH244159   6.447   5.058   2.659  0.5936 -0.3123 -0.3407
 6655TIP3    H144160   6.428   4.988   2.723  0.5339  0.1875  0.1943
 6655TIP3    H244161   6.396   5.133   2.690 -0.2834 -0.3779 -1.5873
 6656TIP3   OH244162   2.762   5.611   1.243  0.8326  0.0636 -0.0232
 6656TIP3    H144163   2.723   5.696   1.226  0.1823 -0.4177 -1.0142
 6656TIP3    H244164   2.808   5.622   1.327 -0.4277  0.9759  0.5802
 6657TIP3   OH244165   6.299   5.259   2.726 -0.1307  0.0007 -0.9467
 6657TIP3    H144166   6.375   5.300   2.767  1.1191 -1.3496 -1.7718
 6657TIP3    H244167   6.252   5.331   2.683 -0.1652  1.0724  0.8046
 6658TIP3   OH244168   2.935   4.903   1.318 -0.0787  0.3755 -0.3047
 6658TIP3    H144169   2.918   4.840   1.387  1.6317 -0.7334 -0.8300
 6658TIP3    H244170   2.962   4.982   1.363  3.2019 -0.9972  0.3664
 6659TIP3   OH244171   5.783   2.787   2.631  0.0146 -0.4276 -0.2823
 6659TIP3    H144172   5.838   2.863   2.648 -0.6478 -0.3433  1.6955
 6659TIP3    H244173   5.708   2.822   2.582 -0.9374  0.4917  1.7439
 6660TIP3   OH244174   0.387   1.167   2.316 -0.1165 -0.0352  0.3674
 6660TIP3    H144175   0.396   1.196   2.226 -0.4748  2.7240  1.1217
 6660TIP3    H244176   0.467   1.196   2.359 -0.9975  0.9205  1.4324
 6661TIP3   OH244177   6.956   5.212   1.007 -0.0500  0.5344  0.2666
 6661TIP3    H144178   6.958   5.300   0.969  0.7541  0.8652  1.0296
 6661TIP3    H244179   7.034   5.169   0.972  0.1363  0.4965  0.7171
 6662TIP3   OH244180   6.403   0.281   2.470 -0.6136 -0.3809 -0.2133
 6662TIP3    H144181   6.440   0.294   2.558  1.1227 -0.0072 -0.9503
 6662TIP3    H244182   6.454   0.340   2.415 -1.6857 -0.6154 -1.4749
 6663TIP3   OH244183   3.448   5.122   1.627  0.1265  0.6681  0.3138
 6663TIP3    H144184   3.392   5.197   1.607 -0.5159 -0.1651 -1.1977
 6663TIP3    H244185   3.527   5.137   1.576 -0.1010  0.2233 -0.1829
 6664TIP3   OH244186   5.439   4.656   2.564  0.4529  0.5249 -0.1029
 6664TIP3    H144187   5.413   4.734   2.614 -0.2294 -0.0312  0.4418
 6664TIP3    H244188   5.445   4.587   2.630 -0.9547 -0.3364 -0.8409
 6665TIP3   OH244189   3.877   3.657   0.877  0.5046  0.4467 -0.3366
 6665TIP3    H144190   3.948   3.602   0.911 -0.6212 -1.6155 -1.1095
 6665TIP3    H244191   3.922   3.733   0.839  2.1542  0.0359  0.6684
 6666TIP3   OH244192   7.174   4.214   1.089  0.1473  0.0513  0.5228
 6666TIP3    H144193   7.215   4.300   1.079 -0.7428  0.8696  3.3275
 6666TIP3    H244194   7.089   4.222   1.045  0.0224  0.6356  0.8702
 6667TIP3   OH244195   1.422   3.491   2.960 -0.2576 -0.0396 -0.0164
 6667TIP3    H144196   1.386   3.580   2.963  1.0680  0.4975  1.2144
 6667TIP3    H244197   1.366   3.441   3.020 -0.1307  0.3195  0.4036
 6668TIP3   OH244198   3.832   0.807   2.064  0.2976 -0.1487 -0.0014
 6668TIP3    H144199   3.846   0.808   1.970 -1.5170 -2.2571 -0.3808
 6668TIP3    H244200   3.905   0.756   2.099 -0.3375 -1.5253 -0.6086
 6669TIP3   OH244201   7.458   1.627   1.850  0.3246 -0.1521  0.3068
 6669TIP3    H144202   7.404   1.692   1.896  1.2123  1.1229 -0.4040
 6669TIP3    H244203   7.438   1.545   1.894 -1.0487  0.5385  1.0546
 6670TIP3   OH244204   6.522   5.877   2.183 -0.5538 -0.3773 -0.3542
 6670TIP3    H144205   6.545   5.924   2.103  0.4075 -0.8929 -0.4040
 6670TIP3    H244206   6.571   5.794   2.176 -1.1970 -0.8222  0.3280
 6671TIP3   OH244207   6.794   0.334   2.165 -0.3946  0.4299 -0.7993
 6671TIP3    H144208   6.746   0.376   2.094 -0.0415  1.8778 -0.2323
 6671TIP3    H244209   6.873   0.389   2.176 -0.6418  0.5086  0.9575
 6672TIP3   OH244210   2.662   7.616   3.436 -0.0654 -0.4129 -0.1615
 6672TIP3    H144211   2.725   7.669   3.386 -0.0005  0.0233  0.3737
 6672TIP3    H244212   2.586   7.673   3.447 -0.3599 -0.7633 -0.3762
 6673TIP3   OH244213   5.841   3.968   2.531  0.4081 -0.5727 -0.3473
 6673TIP3    H144214   5.862   3.888   2.580 -1.4652 -2.1989 -2.0582
 6673TIP3    H244215   5.922   3.990   2.485  1.1970 -0.9416  0.8216
 6674TIP3   OH244216   4.030   4.738   0.527 -0.2607  0.4488 -0.3233
 6674TIP3    H144217   3.954   4.761   0.580 -0.0130 -0.0329  0.2613
 6674TIP3    H244218   4.047   4.816   0.474 -1.2084  0.5279 -0.5280
 6675TIP3   OH244219   6.913   5.433   1.528 -0.3341 -0.4974  0.4770
 6675TIP3    H144220   6.942   5.342   1.525  0.1863 -0.4318  2.2629
 6675TIP3    H244221   6.984   5.480   1.572  0.3546  1.2089 -2.2338
 6676TIP3   OH244222   5.745   5.269   1.733 -0.0513 -0.0119 -0.8591
 6676TIP3    H144223   5.668   5.313   1.696 -0.6801 -0.8268 -0.5466
 6676TIP3    H244224   5.817   5.330   1.718 -0.7138  0.6583 -1.3791
 6677TIP3   OH244225   5.475   4.519   2.820 -0.2627  0.2103  0.0414
 6677TIP3    H144226   5.432   4.434   2.820  1.5696 -0.8125  2.0997
 6677TIP3    H244227   5.557   4.505   2.868  0.4393  2.9836 -0.1516
 6678TIP3   OH244228   6.643   2.386   2.336 -1.0353 -0.8495 -0.4192
 6678TIP3    H144229   6.623   2.417   2.247  0.0116 -1.7129 -0.9850
 6678TIP3    H244230   6.644   2.290   2.328  3.8354 -1.0472 -0.7447
 6679TIP3   OH244231   0.579   7.022   1.774  0.9151  0.1850  0.1721
 6679TIP3    H144232   0.522   7.099   1.777 -0.6745 -0.9579  1.5755
 6679TIP3    H244233   0.569   6.982   1.860  1.2298 -1.8890 -0.6956
 6680TIP3   OH244234   2.221   4.432   1.550  0.3222 -0.6257  0.3463
 6680TIP3    H144235   2.159   4.371   1.589 -1.4122  0.5884 -0.4098
 6680TIP3    H244236   2.301   4.380   1.537 -0.4178 -2.1511  1.5981
 6681TIP3   OH244237   2.450   0.992   1.731  0.3326 -0.3300  0.3351
 6681TIP3    H144238   2.468   1.085   1.739 -0.5505 -0.1024 -0.1258
 6681TIP3    H244239   2.447   0.976   1.637  0.3711 -0.8001  0.4120
 6682TIP3   OH244240   4.762   7.009   1.830  0.0586 -0.0383  0.2618
 6682TIP3    H144241   4.848   6.976   1.804  0.8377  1.9737  0.0951
 6682TIP3    H244242   4.719   6.933   1.870  1.1515 -1.6121 -1.3574
 6683TIP3   OH244243   0.544   5.511   2.223  0.3238 -0.2771 -0.0441
 6683TIP3    H144244   0.463   5.561   2.226  0.5616  0.0727  0.9027
 6683TIP3    H244245   0.558   5.493   2.130  0.0403  1.1006 -0.3672
 6684TIP3   OH244246   6.665   1.068   1.766  0.3897 -0.3665  0.1480
 6684TIP3    H144247   6.662   0.973   1.772  0.7154 -0.4835 -1.1324
 6684TIP3    H244248   6.733   1.086   1.701 -1.0597  0.6406 -1.1734
 6685TIP3   OH244249   6.868   1.017   1.534  0.0404 -0.2174  0.7920
 6685TIP3    H144250   6.906   1.103   1.517  1.4597 -0.6716  1.5157
 6685TIP3    H244251   6.937   0.955   1.512 -0.7956 -1.1607  0.7507
 6686TIP3   OH244252   0.675   1.766   2.667  0.1201 -0.3416  0.8837
 6686TIP3    H144253   0.661   1.847   2.716  0.2669 -0.5757  1.3187
 6686TIP3    H244254   0.748   1.785   2.608 -0.8163  0.3098 -0.0907
 6687TIP3   OH244255   6.904   3.109   0.396 -0.0191 -1.0700  0.0727
 6687TIP3    H144256   6.972   3.115   0.463 -0.4538 -0.2082  0.4560
 6687TIP3    H244257   6.949   3.078   0.318  1.1538  1.0322 -0.1469
 6688TIP3   OH244258   3.845   4.519   1.956 -0.1327  0.1375 -0.1609
 6688TIP3    H144259   3.851   4.447   1.893 -0.7210  0.3395 -0.4572
 6688TIP3    H244260   3.845   4.598   1.902 -1.2812  0.2925  0.0445
 6689TIP3   OH244261   6.895   6.488   0.815 -0.2616 -0.5627  0.3056
 6689TIP3    H144262   6.911   6.576   0.781 -0.1771 -1.0692 -1.0393
 6689TIP3    H244263   6.822   6.498   0.876 -0.8844  0.3044 -0.5545
 6690TIP3   OH244264   3.649   2.906   0.861  0.4444 -0.3968 -0.4545
 6690TIP3    H144265   3.659   2.864   0.947  2.3430 -1.8249 -1.3098
 6690TIP3    H244266   3.602   2.987   0.880  0.9708 -0.5774  1.9709
 6691TIP3   OH244267   5.832   7.396   2.050  0.5128 -0.3570  0.4188
 6691TIP3    H144268   5.891   7.322   2.039  0.0533 -0.7249  0.4028
 6691TIP3    H244269   5.744   7.358   2.042  0.2302 -0.1021  2.0797
 6692TIP3   OH244270   2.329   5.132   0.976  0.0957  0.3231  0.0225
 6692TIP3    H144271   2.293   5.044   0.967 -0.3049  0.3796  0.9909
 6692TIP3    H244272   2.399   5.136   0.911 -0.0900 -0.6022 -0.2415
 6693TIP3   OH244273   2.595   2.596   1.338 -0.5737 -0.2245 -0.0301
 6693TIP3    H144274   2.689   2.612   1.347 -0.5842 -0.9391  1.6958
 6693TIP3    H244275   2.557   2.623   1.422 -1.8742 -0.2606 -0.5778
 6694TIP3   OH244276   4.319   1.164   2.206  0.7428 -0.1805 -0.5093
 6694TIP3    H144277   4.261   1.228   2.164  0.2688  0.1753  0.6390
 6694TIP3    H244278   4.270   1.082   2.204  0.9475 -0.2946 -1.1131
 6695TIP3   OH244279   4.575   2.890   2.084 -0.1452  0.8752 -0.0989
 6695TIP3    H144280   4.505   2.850   2.032  0.4505  0.5016 -0.6268
 6695TIP3    H244281   4.652   2.837   2.065 -0.0813  0.2174  1.8223
 6696TIP3   OH244282   4.587   1.446   2.228  0.0287 -0.5294  0.0748
 6696TIP3    H144283   4.510   1.400   2.193 -0.4660  0.2482  0.1236
 6696TIP3    H244284   4.614   1.393   2.303 -1.1525 -0.2057  0.7556
 6697TIP3   OH244285   3.990   5.415   0.984 -0.5452  0.3380  1.0208
 6697TIP3    H144286   4.056   5.466   0.936  1.0956 -1.5853  1.0957
 6697TIP3    H244287   3.924   5.393   0.918  0.1516  0.2348  0.3472
 6698TIP3   OH244288   7.593   5.710   1.224  0.0264 -0.2158 -0.2521
 6698TIP3    H144289   7.513   5.751   1.189  0.5887  0.3616 -0.9044
 6698TIP3    H244290   7.639   5.679   1.147  0.6235 -0.1875  0.0891
 6699TIP3   OH244291   1.269   4.728   0.717  0.1204  0.5028 -0.6698
 6699TIP3    H144292   1.258   4.786   0.792 -1.4824 -0.0426 -0.4437
 6699TIP3    H244293   1.203   4.757   0.654  0.1156 -0.3128 -1.0545
 6700TIP3   OH244294   0.631   6.276   1.124  0.5555 -0.0787 -0.0037
 6700TIP3    H144295   0.592   6.360   1.149 -0.0855 -0.2457 -0.4299
 6700TIP3    H244296   0.668   6.292   1.037 -1.9509 -0.9343 -1.3297
 6701TIP3   OH244297   0.271   4.703   0.871  0.2496  0.0027  0.0043
 6701TIP3    H144298   0.331   4.776   0.883 -0.0189  0.1140  0.7039
 6701TIP3    H244299   0.189   4.743   0.841  0.2833 -0.0722 -0.1920
 6702TIP3   OH244300   1.741   7.155   2.639 -0.4957  0.6163 -0.0259
 6702TIP3    H144301   1.767   7.064   2.625  0.5039  0.9863 -0.6027
 6702TIP3    H244302   1.711   7.158   2.730  1.2417  0.1155  0.5842
 6703TIP3   OH244303   5.901   0.406   0.953 -0.4603  0.6604 -0.1705
 6703TIP3    H144304   5.976   0.348   0.954  0.9163  2.3246  1.5747
 6703TIP3    H244305   5.827   0.350   0.975  0.3259 -0.9018 -1.3205
 6704TIP3   OH244306   1.324   5.876   3.057  0.3684  0.0327 -0.8566
 6704TIP3    H144307   1.381   5.855   3.130  1.1421  0.3884 -1.3520
 6704TIP3    H244308   1.271   5.949   3.088  1.3480  0.8047 -0.9666
 6705TIP3   OH244309   0.195   0.477   1.255 -0.0501 -0.2595 -0.3736
 6705TIP3    H144310   0.127   0.532   1.294 -2.0051 -2.1218 -0.9674
 6705TIP3    H244311   0.232   0.532   1.185 -1.4518  0.5554 -0.5168
 6706TIP3   OH244312   3.397   0.243   0.886  0.2766 -0.1045 -0.0641
 6706TIP3    H144313   3.375   0.234   0.793 -2.8106 -3.1588  0.7594
 6706TIP3    H244314   3.328   0.299   0.922  0.3846 -0.4498  0.6944
 6707TIP3   OH244315   7.412   2.824   0.352 -0.1330 -0.5172  0.3968
 6707TIP3    H144316   7.318   2.812   0.369 -0.1313 -0.9030  0.1533
 6707TIP3    H244317   7.441   2.882   0.422 -1.2675  2.6296 -1.5426
 6708TIP3   OH244318   6.064   6.108   1.527 -0.1737 -0.6423 -1.1436
 6708TIP3    H144319   6.137   6.053   1.499  1.0517  0.6473 -0.6071
 6708TIP3    H244320   6.024   6.060   1.600  2.3310  0.1536  0.9125
 6709TIP3   OH244321   4.305   4.313   1.950  0.2260 -0.0770  0.3252
 6709TIP3    H144322   4.351   4.249   2.005 -0.6999 -0.6261  0.4804
 6709TIP3    H244323   4.305   4.273   1.863 -0.6833 -0.4781  0.4994
 6710TIP3   OH244324   0.752   0.133   1.371 -0.1281 -0.3129 -0.1355
 6710TIP3    H144325   0.802   0.062   1.329  0.4384  0.3607 -0.6138
 6710TIP3    H244326   0.700   0.170   1.300 -0.6690 -0.4435  0.1833
 6711TIP3   OH244327   0.680   7.486   2.552 -0.4339 -0.0874  0.1863
 6711TIP3    H144328   0.741   7.527   2.613 -1.5432  1.6343  0.1888
 6711TIP3    H244329   0.628   7.427   2.606  1.0647 -1.4426  0.2148
 6712TIP3   OH244330   6.009   2.755   1.388 -0.1840  0.2335  0.2164
 6712TIP3    H144331   5.972   2.755   1.476 -0.8654 -0.7825 -0.0493
 6712TIP3    H244332   6.080   2.819   1.392 -0.1086  0.0996  1.5318
 6713TIP3   OH244333   4.936   1.322   2.006  0.1892  0.0592  0.1553
 6713TIP3    H144334   4.987   1.249   1.970  0.3010  0.0011  0.4276
 6713TIP3    H244335   4.965   1.329   2.097 -0.5242 -0.1857  0.4090
 6714TIP3   OH244336   0.731   5.587   0.793 -0.6190 -0.1277 -0.6507
 6714TIP3    H144337   0.807   5.574   0.849 -0.3924  1.3541 -0.5637
 6714TIP3    H244338   0.671   5.516   0.816 -0.0047 -0.2725  0.5571
 6715TIP3   OH244339   1.172   0.430   1.009 -0.1876  0.5437  0.0259
 6715TIP3    H144340   1.138   0.502   0.955  0.5232 -0.0209 -1.2052
 6715TIP3    H244341   1.265   0.425   0.987  0.7244  1.7602  2.9838
 6716TIP3   OH244342   7.396   7.268   3.328 -0.3209  0.5187 -0.0323
 6716TIP3    H144343   7.469   7.307   3.280 -2.0721  2.2022 -1.5215
 6716TIP3    H244344   7.318   7.299   3.282 -2.0101 -1.0160  1.6081
 6717TIP3   OH244345   1.281   3.508   1.613  0.0056  0.4545 -0.3613
 6717TIP3    H144346   1.285   3.592   1.567 -1.4023  1.0388  0.5283
 6717TIP3    H244347   1.283   3.443   1.543  0.2962  1.2344 -1.1092
 6718TIP3   OH244348   4.433   5.665   1.497  0.0588 -0.4445 -0.1221
 6718TIP3    H144349   4.379   5.735   1.532 -1.0695 -1.1409 -0.4133
 6718TIP3    H244350   4.443   5.603   1.569 -1.1308 -1.2247 -0.6036
 6719TIP3   OH244351   2.631   3.124   1.133 -0.5900 -0.2338 -0.3819
 6719TIP3    H144352   2.585   3.085   1.059  1.5765 -0.8384 -1.4629
 6719TIP3    H244353   2.716   3.082   1.135  0.5374  1.9045  0.6147
 6720TIP3   OH244354   1.403   4.603   2.365 -0.0625 -0.5618 -0.0672
 6720TIP3    H144355   1.457   4.676   2.335 -0.2002 -0.4368 -0.0136
 6720TIP3    H244356   1.451   4.566   2.439  0.5075 -1.1619 -0.7214
 6721TIP3   OH244357   4.963   0.798   1.157 -0.4035  0.6277 -0.1596
 6721TIP3    H144358   4.885   0.753   1.192 -1.2874  0.4131 -2.2572
 6721TIP3    H244359   5.031   0.730   1.156 -0.9911  0.0247 -0.8539
 6722TIP3   OH244360   2.271   5.959   2.499  0.4818  0.4241  0.2987
 6722TIP3    H144361   2.293   5.914   2.417 -0.9731  1.7818 -0.9125
 6722TIP3    H244362   2.338   6.027   2.507  0.3998  0.5398  0.0146
 6723TIP3   OH244363   5.577   0.421   1.865  0.4005 -0.5395  0.2653
 6723TIP3    H144364   5.582   0.410   1.959 -0.0160 -1.2539  0.2092
 6723TIP3    H244365   5.668   0.422   1.835  0.5181 -0.8583  0.6118
 6724TIP3   OH244366   5.407   4.857   2.372 -0.3134  0.0729  0.3035
 6724TIP3    H144367   5.344   4.846   2.302 -0.2849 -2.7387  0.5861
 6724TIP3    H244368   5.424   4.768   2.404  1.4281  1.0091  2.3242
 6725TIP3   OH244369   7.037   5.224   0.655 -0.6735 -0.0382 -0.2759
 6725TIP3    H144370   7.037   5.319   0.656 -0.3818 -0.0294 -0.6751
 6725TIP3    H244371   7.109   5.199   0.713  1.0753  0.0460 -2.2853
 6726TIP3   OH244372   5.912   6.979   2.359 -0.0845 -0.6232 -0.0471
 6726TIP3    H144373   5.847   7.049   2.354 -0.7345 -1.1061  1.1677
 6726TIP3    H244374   5.872   6.906   2.313  0.1201 -0.5495 -0.3455
 6727TIP3   OH244375   1.770   3.967   3.495  0.7946 -0.1924 -0.1232
 6727TIP3    H144376   1.699   4.002   3.441  1.0946 -2.0598 -1.8249
 6727TIP3    H244377   1.727   3.910   3.559  0.6611 -0.3420 -0.3475
 6728TIP3   OH244378   2.798   6.725   3.234 -0.6952 -0.0149 -0.0440
 6728TIP3    H144379   2.860   6.782   3.279 -1.1842  1.0626 -0.6925
 6728TIP3    H244380   2.847   6.688   3.161 -0.1335 -1.1272  0.8647
 6729TIP3   OH244381   2.882   0.248   0.686 -0.4249  0.5808 -0.0750
 6729TIP3    H144382   2.934   0.282   0.613 -1.6702 -0.6929 -1.6118
 6729TIP3    H244383   2.823   0.320   0.709  0.3538  1.1825  0.0846
 6730TIP3   OH244384   5.392   6.654   1.060  0.2132  0.1803 -0.0107
 6730TIP3    H144385   5.341   6.706   1.123 -0.1009 -0.0432 -0.0774
 6730TIP3    H244386   5.479   6.647   1.100  0.6112  1.7238 -0.5312
 6731TIP3   OH244387   2.735   6.796   0.713  0.0975  0.0183 -0.2559
 6731TIP3    H144388   2.652   6.823   0.751  0.1499  0.4210 -0.4235
 6731TIP3    H244389   2.725   6.812   0.619  0.0744 -0.6875 -0.3799
 6732TIP3   OH244390   0.109   2.228   2.117 -0.2131  0.1302 -0.5284
 6732TIP3    H144391   0.084   2.137   2.132  0.2768  0.0251 -0.3087
 6732TIP3    H244392   0.148   2.256   2.201 -0.8011  0.6915 -0.4355
 6733TIP3   OH244393   2.160   2.824   2.493 -0.2771 -0.3073  0.1573
 6733TIP3    H144394   2.150   2.900   2.551 -1.1644  0.6286 -1.1695
 6733TIP3    H244395   2.129   2.750   2.546 -0.1320  0.3541  1.2155
 6734TIP3   OH244396   7.164   6.955   0.532 -0.5334  0.2585  0.4228
 6734TIP3    H144397   7.192   7.007   0.607 -1.5125  1.1572  0.1933
 6734TIP3    H244398   7.146   7.020   0.464 -1.6531 -0.3843  0.0814
 6735TIP3   OH244399   5.703   0.364   0.687  0.0463  0.6017 -0.1703
 6735TIP3    H144400   5.732   0.345   0.777 -0.9259  0.0912  0.0457
 6735TIP3    H244401   5.772   0.327   0.632 -0.6020 -1.4689  0.3107
 6736TIP3   OH244402   1.957   5.634   2.638  0.6062 -0.0272  0.8892
 6736TIP3    H144403   1.977   5.542   2.655 -0.6914 -0.2079  1.6034
 6736TIP3    H244404   1.921   5.635   2.550  1.4308 -0.0556  0.5398
 6737TIP3   OH244405   3.891   0.337   1.366 -0.6701 -0.5198  0.4765
 6737TIP3    H144406   3.865   0.285   1.290 -2.6898 -1.8560  1.9876
 6737TIP3    H244407   3.846   0.420   1.355 -0.4492 -0.4759 -0.1048
 6738TIP3   OH244408   0.775   3.513   1.905 -0.1415  0.4723  0.2670
 6738TIP3    H144409   0.693   3.529   1.859 -0.1438 -1.3963 -0.4716
 6738TIP3    H244410   0.843   3.527   1.839 -0.0861 -1.1812 -0.0761
 6739TIP3   OH244411   2.709   3.846   2.751  0.2156 -0.1210 -0.2203
 6739TIP3    H144412   2.764   3.909   2.796 -0.3057  0.0664  0.1613
 6739TIP3    H244413   2.676   3.893   2.674  1.3142 -0.5217 -0.9719
 6740TIP3   OH244414   5.246   0.749   2.451 -0.3953 -0.0071  0.6695
 6740TIP3    H144415   5.277   0.828   2.495  1.3959  0.4576 -1.2954
 6740TIP3    H244416   5.325   0.707   2.419 -1.5332 -0.8092 -1.2362
 6741TIP3   OH244417   5.608   1.464   0.586  0.4330  0.3294  0.3054
 6741TIP3    H144418   5.620   1.489   0.678  0.8547 -1.3328  0.7450
 6741TIP3    H244419   5.616   1.368   0.587 -0.9774  0.1571 -1.2467
 6742TIP3   OH244420   5.308   6.536   2.289 -0.0945 -0.1157  0.2114
 6742TIP3    H144421   5.274   6.451   2.316 -0.2898 -0.6955 -1.7358
 6742TIP3    H244422   5.232   6.595   2.294 -0.0534 -0.1315  1.1734
 6743TIP3   OH244423   1.690   6.724   3.461 -0.4989  0.9699  0.5479
 6743TIP3    H144424   1.735   6.752   3.382  0.8397 -0.1614  0.8692
 6743TIP3    H244425   1.677   6.804   3.511 -2.1746  1.8431 -1.1670
 6744TIP3   OH244426   6.885   5.894   3.132 -0.2443 -0.3889  0.8009
 6744TIP3    H144427   6.938   5.933   3.201 -1.7529 -1.7935  2.8621
 6744TIP3    H244428   6.796   5.922   3.151 -0.8291 -1.6363  0.0131
 6745TIP3   OH244429   1.519   5.666   1.266 -0.8582  0.0146  0.4667
 6745TIP3    H144430   1.454   5.691   1.200 -0.5499 -1.8695 -0.6107
 6745TIP3    H244431   1.552   5.581   1.237  1.7455  0.6727  1.2382
 6746TIP3   OH244432   0.268   4.287   1.849  0.3046  0.5209  0.2333
 6746TIP3    H144433   0.179   4.308   1.877 -0.1391  1.4992 -1.7075
 6746TIP3    H244434   0.320   4.362   1.878  0.3629  0.2908  0.7305
 6747TIP3   OH244435   3.244   4.977   2.560  0.3539 -0.2461  0.3228
 6747TIP3    H144436   3.183   4.904   2.563  0.6801 -0.5023  0.8019
 6747TIP3    H244437   3.195   5.048   2.519 -0.2368 -0.4763  0.6236
 6748TIP3   OH244438   4.746   2.682   2.001  0.4463  0.3548  0.5775
 6748TIP3    H144439   4.731   2.590   2.020 -3.0090  0.7021  0.1772
 6748TIP3    H244440   4.742   2.688   1.905 -0.7714  1.0682  0.6544
 6749TIP3   OH244441   2.771   6.809   2.788  0.5797  0.5440 -0.0267
 6749TIP3    H144442   2.695   6.821   2.846  0.6646  2.1474 -0.1992
 6749TIP3    H244443   2.779   6.714   2.779 -1.0316  0.3212  0.4871
 6750TIP3   OH244444   5.932   3.973   1.847 -0.0329  0.1225  0.2388
 6750TIP3    H144445   5.972   4.006   1.766  2.8252 -0.8685  1.1273
 6750TIP3    H244446   5.877   3.900   1.819 -0.6368  1.0060 -0.9640
 6751TIP3   OH244447   2.883   6.163   0.856 -0.0845  0.0504  0.2514
 6751TIP3    H144448   2.955   6.223   0.875  0.1311 -0.3694  0.7860
 6751TIP3    H244449   2.804   6.213   0.879  0.1264 -0.1271  1.4556
 6752TIP3   OH244450   0.522   2.356   1.687 -0.5883 -0.2660  0.3351
 6752TIP3    H144451   0.540   2.386   1.776  2.7584  0.8671 -0.5799
 6752TIP3    H244452   0.519   2.261   1.694  0.2636 -0.2241  1.5668
 6753TIP3   OH244453   5.779   3.708   1.198 -0.2984 -0.1887 -0.3418
 6753TIP3    H144454   5.820   3.687   1.114 -1.4866  1.0343 -1.2757
 6753TIP3    H244455   5.747   3.798   1.187 -1.4112 -0.3781  1.0530
 6754TIP3   OH244456   3.146   1.657   1.038 -0.2662 -0.6310 -0.5723
 6754TIP3    H144457   3.236   1.639   1.008  0.7097  1.3148  0.9680
 6754TIP3    H244458   3.141   1.753   1.041 -2.3494 -0.7094 -0.4220
 6755TIP3   OH244459   4.042   4.110   1.503  0.0618  0.4144  0.2197
 6755TIP3    H144460   4.090   4.151   1.575 -0.7546  0.1076  0.9699
 6755TIP3    H244461   4.104   4.046   1.466  0.2873  0.1244  1.0690
 6756TIP3   OH244462   0.017   5.576   1.455 -0.0786  0.0124 -0.3879
 6756TIP3    H144463  -0.003   5.632   1.381  0.4158  0.8287  0.0893
 6756TIP3    H244464   0.060   5.633   1.519 -0.4472 -0.6816  0.5117
 6757TIP3   OH244465   2.647   0.045   2.344  0.3978 -0.1749  0.0642
 6757TIP3    H144466   2.731   0.031   2.300  0.2520  1.6972 -0.9101
 6757TIP3    H244467   2.600  -0.038   2.332  0.9060 -0.2116 -2.1558
 6758TIP3   OH244468   6.655   3.289   0.534 -0.6078  0.0916 -0.2255
 6758TIP3    H144469   6.731   3.249   0.490 -1.4780 -0.0145 -1.6861
 6758TIP3    H244470   6.580   3.238   0.503 -1.3987  0.8490  0.4024
 6759TIP3   OH244471   4.360   5.773   2.508  0.3280  0.8657  0.1209
 6759TIP3    H144472   4.297   5.832   2.466  0.5515  0.7013 -0.4539
 6759TIP3    H244473   4.339   5.778   2.601 -0.7888  0.5387 -0.0932
 6760TIP3   OH244474   1.182   6.693   2.245  0.0003  0.2503  0.1805
 6760TIP3    H144475   1.109   6.642   2.210 -0.3469  1.1574 -0.4662
 6760TIP3    H244476   1.180   6.775   2.195 -0.9567  1.9343  2.7661
 6761TIP3   OH244477   5.989   3.632   2.368  0.1704  0.3673 -0.2535
 6761TIP3    H144478   5.948   3.658   2.451 -0.6318  0.4188 -0.6562
 6761TIP3    H244479   6.053   3.701   2.351 -0.9626  1.3719 -0.6047
 6762TIP3   OH244480   7.571   1.720   2.178 -0.3580 -0.0524  0.2986
 6762TIP3    H144481   7.626   1.650   2.213  1.2769  1.2072  0.3771
 6762TIP3    H244482   7.485   1.680   2.167  0.7754 -2.4244 -0.7700
 6763TIP3   OH244483   2.234   6.400   2.300 -0.3480 -0.1181 -0.2249
 6763TIP3    H144484   2.176   6.476   2.303 -1.2638 -0.7479 -1.2447
 6763TIP3    H244485   2.180   6.331   2.262 -0.0924 -1.7632  2.1500
 6764TIP3   OH244486   4.896   4.936   1.131 -0.0814 -0.2546  0.1016
 6764TIP3    H144487   4.801   4.949   1.127 -0.5999 -3.3837  0.4402
 6764TIP3    H244488   4.921   4.914   1.041  0.5193  1.2531 -0.1435
 6765TIP3   OH244489   7.530   2.589   2.697 -0.2774 -0.1737 -0.4285
 6765TIP3    H144490   7.441   2.620   2.713  0.1462  0.4629  0.7497
 6765TIP3    H244491   7.581   2.668   2.680  0.4012 -0.3786  0.5671
 6766TIP3   OH244492   0.046   3.854   3.191  0.0038 -0.5807  0.2087
 6766TIP3    H144493   0.139   3.848   3.169  0.3439  3.4996 -0.0588
 6766TIP3    H244494   0.005   3.892   3.114 -0.9709  2.1215  1.9296
 6767TIP3   OH244495   6.645   1.728   0.698  0.1282  0.1888 -0.3349
 6767TIP3    H144496   6.690   1.707   0.780 -1.8992  0.1569  0.8457
 6767TIP3    H244497   6.713   1.765   0.642  2.2243 -2.4704  0.2460
 6768TIP3   OH244498   5.243   5.530   1.318 -0.4933 -0.1276  0.1592
 6768TIP3    H144499   5.254   5.506   1.226 -0.2136  0.6967 -0.0333
 6768TIP3    H244500   5.148   5.532   1.330 -0.5239 -1.5734  0.2629
 6769TIP3   OH244501   0.228   3.589   0.896 -0.1876  0.1575 -0.3471
 6769TIP3    H144502   0.270   3.598   0.811  1.3827  0.3949  0.4088
 6769TIP3    H244503   0.213   3.495   0.906  0.2464  0.0590 -0.6032
 6770TIP3   OH244504   0.255   3.832   1.517 -0.0595 -0.9082 -0.1601
 6770TIP3    H144505   0.232   3.923   1.537  0.5476 -0.6295 -0.6640
 6770TIP3    H244506   0.344   3.823   1.551  0.6865 -0.6689 -1.9255
 6771TIP3   OH244507   2.586   3.134   2.629 -0.5353  0.3997 -0.2635
 6771TIP3    H144508   2.552   3.055   2.670  1.9390 -0.5834  0.0578
 6771TIP3    H244509   2.581   3.201   2.697  1.6082 -0.6951  1.0801
 6772TIP3   OH244510   1.919   1.948   1.661  0.2671  0.2716  0.3722
 6772TIP3    H144511   1.922   2.034   1.618 -0.3472  0.5522  0.8903
 6772TIP3    H244512   1.908   1.886   1.589 -1.2642  0.7778  0.1511
 6773TIP3   OH244513   4.307   5.923   0.698 -0.4642 -0.1861 -0.1827
 6773TIP3    H144514   4.275   5.835   0.678  0.3297 -0.5095 -0.0777
 6773TIP3    H244515   4.300   5.971   0.616 -3.1524  0.3987  0.2957
 6774TIP3   OH244516   6.570   3.927   2.123  0.4912  0.2935 -0.1831
 6774TIP3    H144517   6.554   4.014   2.159 -0.2269  0.0878  0.0063
 6774TIP3    H244518   6.498   3.873   2.156  0.5710 -0.2223 -0.8274
 6775TIP3   OH244519   4.659   1.242   2.012  0.3222  0.0911 -0.0398
 6775TIP3    H144520   4.643   1.195   2.094  0.0439  1.7788  0.9094
 6775TIP3    H244521   4.743   1.286   2.026 -1.1028  2.7915  0.5452
 6776TIP3   OH244522   1.110   3.784   1.752 -0.0125 -0.0676  0.0515
 6776TIP3    H144523   1.196   3.824   1.762  0.4892 -1.1768  0.3312
 6776TIP3    H244524   1.056   3.825   1.820  0.1321  1.0223 -0.4679
 6777TIP3   OH244525   3.310   5.751   1.777 -0.3357  0.0148 -0.4838
 6777TIP3    H144526   3.284   5.836   1.742 -0.9799 -0.4374 -1.1409
 6777TIP3    H244527   3.293   5.757   1.871  1.9999  1.4697 -0.0653
 6778TIP3   OH244528   2.201   2.197   1.199 -0.5723  0.0650 -0.4913
 6778TIP3    H144529   2.140   2.134   1.162 -1.5906  1.5255 -1.3819
 6778TIP3    H244530   2.145   2.259   1.246  0.2004  1.4833 -1.4058
 6779TIP3   OH244531   0.891   2.163   1.792 -0.5114  0.1135  0.1663
 6779TIP3    H144532   0.868   2.070   1.791 -3.5025  0.7496  0.2907
 6779TIP3    H244533   0.898   2.187   1.700 -3.9589  0.5418 -0.1295
 6780TIP3   OH244534   6.865   3.741   2.324 -0.5536 -0.2742  0.2032
 6780TIP3    H144535   6.877   3.790   2.405 -0.2908  0.1745 -0.1031
 6780TIP3    H244536   6.886   3.651   2.347  1.5659  0.1639  0.1556
 6781TIP3   OH244537   3.911   2.681   3.000 -0.5209 -0.4374  0.5661
 6781TIP3    H144538   3.927   2.728   2.917 -0.6738 -1.0478  0.1859
 6781TIP3    H244539   3.995   2.682   3.044 -0.7586  1.1363  1.0651
 6782TIP3   OH244540   3.830   7.613   2.695 -0.5455  0.3076 -0.4521
 6782TIP3    H144541   3.880   7.644   2.770  0.2129  0.1035 -0.8682
 6782TIP3    H244542   3.754   7.568   2.734  0.9119 -1.6641  0.2739
 6783TIP3   OH244543   3.280   1.146   3.282 -0.5204  0.6844 -0.0555
 6783TIP3    H144544   3.195   1.189   3.283 -1.1771 -0.5254  1.4227
 6783TIP3    H244545   3.261   1.056   3.254  0.3463  0.5537 -0.2473
 6784TIP3   OH244546   2.425   5.903   2.278  0.0642  1.1773  0.2444
 6784TIP3    H144547   2.507   5.871   2.315 -0.4056 -1.5249 -0.8198
 6784TIP3    H244548   2.450   5.946   2.196  0.4115  0.1727 -0.1803
 6785TIP3   OH244549   0.675   6.362   2.742  0.4861 -0.0480 -0.1556
 6785TIP3    H144550   0.691   6.341   2.834  0.9940  2.7704  0.4834
 6785TIP3    H244551   0.756   6.336   2.697  1.4020  1.1634  0.7175
 6786TIP3   OH244552   4.460   2.863   2.737  0.3784  0.6612  0.0982
 6786TIP3    H144553   4.366   2.880   2.725  0.6247  1.9854 -0.0482
 6786TIP3    H244554   4.484   2.918   2.812  0.5846 -1.3569  1.5891
 6787TIP3   OH244555   1.330   2.669   1.911  0.6752 -0.2338 -0.3302
 6787TIP3    H144556   1.400   2.721   1.871  0.5784  0.3957  0.3030
 6787TIP3    H244557   1.376   2.597   1.955  0.8803 -0.1697 -0.4370
 6788TIP3   OH244558   0.089   7.169   2.842  0.6954 -0.4518  0.0359
 6788TIP3    H144559   0.126   7.198   2.759  0.8524 -1.4224 -0.2469
 6788TIP3    H244560   0.093   7.073   2.838 -2.0987 -0.6407 -0.1356
 6789TIP3   OH244561   3.797   6.493   2.316 -0.1732  0.2828  0.4600
 6789TIP3    H144562   3.891   6.492   2.301 -0.4636  0.4098 -1.7270
 6789TIP3    H244563   3.780   6.413   2.366  0.7996 -1.2093 -1.4732
 6790TIP3   OH244564   0.318   6.641   0.937  0.5252 -0.1993 -0.2104
 6790TIP3    H144565   0.312   6.567   0.997 -1.9518  1.3840  1.7306
 6790TIP3    H244566   0.373   6.704   0.983 -1.6972  1.1769  0.7534
 6791TIP3   OH244567   5.368   0.710   1.141  0.4357  0.1347 -0.0949
 6791TIP3    H144568   5.407   0.790   1.176  2.5966 -0.6059 -0.6145
 6791TIP3    H244569   5.429   0.641   1.167 -1.4030 -1.3869  0.4077
 6792TIP3   OH244570   4.281   6.186   1.596  0.2001 -0.0670  0.3124
 6792TIP3    H144571   4.290   6.092   1.614 -0.8215 -0.1992  0.1988
 6792TIP3    H244572   4.303   6.228   1.679  2.1107 -0.3141 -0.0327
 6793TIP3   OH244573   1.578   4.055   2.168  0.3112  0.1919 -0.1000
 6793TIP3    H144574   1.613   4.137   2.202  0.0867  0.6577 -0.9592
 6793TIP3    H244575   1.597   3.990   2.236  2.0371  0.6127 -0.1447
 6794TIP3   OH244576   6.929   3.521   1.330 -0.2735  0.0712  0.1667
 6794TIP3    H144577   6.881   3.460   1.385  0.8805 -0.3006  0.7995
 6794TIP3    H244578   6.997   3.557   1.387  1.4208 -0.8617 -1.1291
 6795TIP3   OH244579   0.002   6.032   1.058  0.6170  0.3344 -0.2819
 6795TIP3    H144580  -0.035   6.113   1.022 -1.1719 -0.4881 -0.4017
 6795TIP3    H244581   0.022   5.979   0.981  0.5332  0.1374 -0.1673
 6796TIP3   OH244582   0.277   3.273   2.554 -0.5204  0.0394  0.3840
 6796TIP3    H144583   0.276   3.327   2.633  0.7650 -0.8225  1.0134
 6796TIP3    H244584   0.234   3.328   2.488 -2.2263  0.5206  1.8051
 6797TIP3   OH244585   5.378   6.227   1.140  0.0602  0.4382 -0.2730
 6797TIP3    H144586   5.421   6.185   1.215 -1.7608 -2.0251 -0.4852
 6797TIP3    H244587   5.329   6.300   1.178 -0.3996 -0.4355  0.8678
 6798TIP3   OH244588   2.353   4.059   1.281 -0.2381 -0.0049 -0.5379
 6798TIP3    H144589   2.393   4.000   1.346 -1.4462  0.1863  0.4214
 6798TIP3    H244590   2.365   4.147   1.318  1.0859  0.3321 -1.7089
 6799TIP3   OH244591   4.216   5.402   2.707  0.0316 -0.2594 -0.4221
 6799TIP3    H144592   4.231   5.394   2.801  1.7467  2.5813 -0.3216
 6799TIP3    H244593   4.155   5.476   2.699 -1.2971 -1.4274 -1.5277
 6800TIP3   OH244594   3.332   2.806   2.413  0.0545 -0.4847 -0.0733
 6800TIP3    H144595   3.305   2.847   2.331 -0.2580  0.1035  0.3091
 6800TIP3    H244596   3.276   2.729   2.421 -1.7737  0.8316  0.8188
 6801TIP3   OH244597   1.985   0.132   1.890  0.1220 -0.4759  0.5346
 6801TIP3    H144598   2.064   0.161   1.936  0.4657  0.7977 -0.8143
 6801TIP3    H244599   1.994   0.167   1.802 -2.3787  0.4603  0.5918
 6802TIP3   OH244600   6.533   5.489   1.263  0.5726 -0.3107 -0.2516
 6802TIP3    H144601   6.529   5.568   1.317 -0.3013  1.2573 -2.4698
 6802TIP3    H244602   6.625   5.484   1.235  0.9946 -1.0450  1.1809
 6803TIP3   OH244603   1.666   2.589   2.311  0.2552  0.2123  0.3169
 6803TIP3    H144604   1.700   2.515   2.261  0.1917  0.5959 -0.3068
 6803TIP3    H244605   1.725   2.597   2.386 -0.3481 -1.1145  0.9540
 6804TIP3   OH244606   5.370   2.610   1.501 -0.2579  0.2448 -0.3800
 6804TIP3    H144607   5.392   2.521   1.473  1.2713  0.1701  0.9062
 6804TIP3    H244608   5.375   2.661   1.420 -1.9263 -0.9222 -1.2782
 6805TIP3   OH244609   3.409   2.330   0.617  0.1996  0.3207 -0.0127
 6805TIP3    H144610   3.496   2.363   0.641 -0.3427  1.4307  0.4694
 6805TIP3    H244611   3.426   2.271   0.543  1.4119  0.1433  0.3851
 6806TIP3   OH244612   0.712   2.264   0.894  0.3954 -0.3901  0.0159
 6806TIP3    H144613   0.644   2.280   0.960  1.8574  1.5886  1.1402
 6806TIP3    H244614   0.718   2.169   0.889 -2.2752 -0.6412  0.0311
 6807TIP3   OH244615   6.957   1.897   2.129 -0.4064  0.2980 -0.3244
 6807TIP3    H144616   7.013   1.861   2.198  0.5917  2.2820 -0.0127
 6807TIP3    H244617   7.010   1.888   2.049  0.7804  2.7514  0.0658
 6808TIP3   OH244618   5.239   0.038   3.033 -0.0721 -0.0450 -0.1678
 6808TIP3    H144619   5.325   0.014   2.998 -0.5895 -2.0400 -0.2361
 6808TIP3    H244620   5.214  -0.037   3.088 -0.7962  1.4703  1.7171
 6809TIP3   OH244621   1.768   1.783   2.798 -0.6723 -0.6370  0.2116
 6809TIP3    H144622   1.815   1.729   2.862 -0.6547 -1.2516 -0.3189
 6809TIP3    H244623   1.784   1.873   2.828  0.4066 -0.8574  0.3487
 6810TIP3   OH244624   7.640   4.265   3.288 -0.0198 -0.0737  0.2055
 6810TIP3    H144625   7.643   4.181   3.333  2.0560 -0.0755  0.1649
 6810TIP3    H244626   7.572   4.254   3.222 -0.4888 -1.3689  0.8632
 6811TIP3   OH244627   7.201   3.665   2.425  0.4716  0.0245 -0.1410
 6811TIP3    H144628   7.137   3.604   2.389 -0.0609  0.7495 -0.4334
 6811TIP3    H244629   7.175   3.677   2.516  0.8891 -0.5805  0.0683
 6812TIP3   OH244630   1.451   6.169   3.246  0.4576  0.5668 -0.0594
 6812TIP3    H144631   1.523   6.215   3.202  0.6681 -0.2813 -0.6309
 6812TIP3    H244632   1.488   6.083   3.268  0.9036  1.4624  3.2603
 6813TIP3   OH244633   3.279   6.002   1.185  0.3219 -0.1588  0.1459
 6813TIP3    H144634   3.199   5.971   1.142  1.2224 -0.5904 -1.2839
 6813TIP3    H244635   3.338   5.927   1.183  0.6502  0.0419  1.5164
 6814TIP3   OH244636   0.854   4.017   2.199  0.3641  0.0629  0.6498
 6814TIP3    H144637   0.833   3.989   2.288  2.0778 -0.6755  0.8532
 6814TIP3    H244638   0.948   4.032   2.200  0.3936  0.1520 -1.0263
 6815TIP3   OH244639   7.061   6.436   1.827  0.1562  0.1306 -0.0015
 6815TIP3    H144640   7.111   6.384   1.763  0.5970 -0.0968  0.5215
 6815TIP3    H244641   7.128   6.480   1.879 -0.0927 -1.7388  2.0269
 6816TIP3   OH244642   3.424   0.159   1.793  0.0658  0.0525  0.3220
 6816TIP3    H144643   3.496   0.222   1.801  0.2954 -0.4240  2.8892
 6816TIP3    H244644   3.345   0.213   1.795  0.2422  0.6175 -2.9311
 6817TIP3   OH244645   5.026   0.944   3.169  0.1119 -0.7649 -0.0044
 6817TIP3    H144646   4.968   1.020   3.167 -0.6207 -1.1245  2.9847
 6817TIP3    H244647   5.089   0.960   3.099 -2.7410  0.2849 -2.5490
 6818TIP3   OH244648   3.093   3.731   3.154  0.2224  0.4203 -0.1428
 6818TIP3    H144649   3.023   3.755   3.216  0.9573  0.0850  0.8330
 6818TIP3    H244650   3.067   3.646   3.120  0.1817  0.2719  0.2588
 6819TIP3   OH244651   4.759   1.284   2.374 -0.6615 -0.4205 -0.5244
 6819TIP3    H144652   4.799   1.207   2.334 -0.9817 -0.9417  0.1305
 6819TIP3    H244653   4.762   1.266   2.468  0.0108  0.7434 -0.3071
 6820TIP3   OH244654   2.361   2.507   1.198  0.6311  0.2837  0.1887
 6820TIP3    H144655   2.410   2.590   1.206 -0.3467  0.8724  0.2802
 6820TIP3    H244656   2.283   2.521   1.252 -0.3685 -0.0735 -1.1162
 6821TIP3   OH244657   3.689   4.100   1.802  0.0357  0.3311 -0.2752
 6821TIP3    H144658   3.745   4.177   1.804  0.6691 -0.1247 -0.2270
 6821TIP3    H244659   3.696   4.063   1.890  1.2938 -0.8654 -0.8287
 6822TIP3   OH244660   3.798   0.333   1.629  0.2529 -0.7496 -0.3536
 6822TIP3    H144661   3.827   0.359   1.541 -1.4382 -2.4391 -1.5013
 6822TIP3    H244662   3.862   0.268   1.657 -0.0799 -1.4142 -1.0785
 6823TIP3   OH244663   5.193   7.445   1.793  0.2832  0.1631  0.0176
 6823TIP3    H144664   5.144   7.483   1.720  0.0382 -0.9562 -0.4193
 6823TIP3    H244665   5.162   7.355   1.798 -0.5103  0.4790  2.2027
 6824TIP3   OH244666   0.844   4.818   9.623 -0.6109  0.2475 -0.2036
 6824TIP3    H144667   0.936   4.843   9.623 -1.0047  2.3137  3.3731
 6824TIP3    H244668   0.811   4.847   9.538  1.7099  0.6817 -1.0281
 6825TIP3   OH244669   4.711   7.044   3.111  0.2429  0.0126  0.0180
 6825TIP3    H144670   4.759   7.093   3.044 -0.1242 -1.1034 -1.0889
 6825TIP3    H244671   4.631   7.016   3.068  0.0516 -0.8418  0.8865
 6826TIP3   OH244672   3.010   6.985   0.748  0.3998  0.4523 -0.2576
 6826TIP3    H144673   3.042   6.900   0.778  0.8607  0.3173 -1.0895
 6826TIP3    H244674   3.062   7.003   0.669  0.4784  1.6216  0.0460
 6827TIP3   OH244675   1.445   0.478   3.318  0.7623 -0.4432 -0.1976
 6827TIP3    H144676   1.519   0.502   3.373  0.5927 -0.2377 -0.0545
 6827TIP3    H244677   1.466   0.514   3.232  0.9509 -0.6183 -0.2243
 6828TIP3   OH244678   6.572   5.134   3.020  0.4027 -0.1945  0.7552
 6828TIP3    H144679   6.534   5.221   3.004 -0.3317 -0.6620 -0.1519
 6828TIP3    H244680   6.496   5.077   3.031  0.8601 -0.9166  0.2326
 6829TIP3   OH244681   2.926   7.332   2.331 -0.0338 -0.3322  0.5740
 6829TIP3    H144682   3.007   7.349   2.285 -0.3637  0.3344  0.2331
 6829TIP3    H244683   2.907   7.239   2.314  0.7835 -0.5627  0.8792
 6830TIP3   OH244684   4.506   2.128   2.426  0.4914 -0.2930  0.4398
 6830TIP3    H144685   4.445   2.094   2.491  0.9355 -0.7625  0.6183
 6830TIP3    H244686   4.507   2.222   2.441 -0.3249 -0.2552  0.3156
 6831TIP3   OH244687   4.338   2.113   2.922 -0.4762  0.0608 -0.0760
 6831TIP3    H144688   4.329   2.025   2.958  0.1201 -0.6028 -1.4758
 6831TIP3    H244689   4.433   2.128   2.920 -0.5902  1.1044  0.9417
 6832TIP3   OH244690   2.112   0.865   2.461 -0.2514  0.0792  0.0500
 6832TIP3    H144691   2.087   0.892   2.373  0.6467 -2.6133 -1.1269
 6832TIP3    H244692   2.091   0.772   2.464  1.8229 -0.4100  1.8857
 6833TIP3   OH244693   0.110   6.562   1.809  0.1464  0.4455 -0.4565
 6833TIP3    H144694   0.118   6.608   1.892 -1.4091  0.9676 -0.5705
 6833TIP3    H244695   0.157   6.616   1.746  0.4326  0.5895 -0.1196
 6834TIP3   OH244696   6.938   4.377   1.452  0.1649  0.8295 -0.4826
 6834TIP3    H144697   7.027   4.351   1.427 -0.6092  0.8485 -3.7367
 6834TIP3    H244698   6.948   4.464   1.489  1.6257  0.1948  0.7493
 6835TIP3   OH244699   1.656   6.040   2.299  0.3237 -0.9286 -0.0405
 6835TIP3    H144700   1.617   6.115   2.253  0.0818 -1.2612 -0.3739
 6835TIP3    H244701   1.581   5.988   2.327  0.4770 -0.8722  0.5015
 6836TIP3   OH244702   6.375   3.350   2.423 -0.0863 -0.5972 -0.7412
 6836TIP3    H144703   6.333   3.274   2.383 -0.7288 -1.2362  1.0400
 6836TIP3    H244704   6.388   3.325   2.515 -1.3709  1.8304  0.1914
 6837TIP3   OH244705   6.035   4.892   1.228 -0.0468 -0.1364 -0.2775
 6837TIP3    H144706   6.128   4.910   1.238  0.2912 -1.6829 -0.2955
 6837TIP3    H244707   5.994   4.978   1.215  1.2550  0.6361  0.5618
 6838TIP3   OH244708   7.214   0.820   2.006  0.4060  0.4343  0.3782
 6838TIP3    H144709   7.282   0.873   2.048  1.3090 -0.0074 -0.4663
 6838TIP3    H244710   7.181   0.876   1.936  1.8318 -0.2921 -0.9492
 6839TIP3   OH244711   1.380   5.396   2.092 -0.2249 -0.2313 -0.5401
 6839TIP3    H144712   1.348   5.483   2.118 -1.5826 -0.5687 -0.9838
 6839TIP3    H244713   1.300   5.343   2.083  0.5297 -1.3147 -1.0249
 6840TIP3   OH244714   0.549   1.332   1.561  0.8590  0.1210 -0.0562
 6840TIP3    H144715   0.558   1.253   1.508 -2.4330  0.5403 -1.4655
 6840TIP3    H244716   0.516   1.301   1.645  2.7086 -0.2128  0.5996
 6841TIP3   OH244717   5.470   0.904   1.308 -0.1543 -0.9023  0.2513
 6841TIP3    H144718   5.411   0.974   1.334 -0.0396 -1.3939  1.9740
 6841TIP3    H244719   5.521   0.885   1.387  0.6289 -2.1247 -0.5083
 6842TIP3   OH244720   4.314   0.243   0.935 -0.0908  0.4275  0.8722
 6842TIP3    H144721   4.392   0.263   0.986 -0.0370  2.4466  0.0658
 6842TIP3    H244722   4.343   0.247   0.844 -0.7806 -0.5018  0.5948
 6843TIP3   OH244723   6.472   3.294   2.716 -0.2958 -0.0911 -0.0175
 6843TIP3    H144724   6.525   3.218   2.691  0.9051  1.5497 -3.0829
 6843TIP3    H244725   6.461   3.286   2.810  1.9217 -2.7149  0.1525
 6844TIP3   OH244726   0.306   2.288   2.609 -0.2693 -0.5767 -0.0370
 6844TIP3    H144727   0.316   2.383   2.615  0.6446 -0.5927 -0.9839
 6844TIP3    H244728   0.274   2.261   2.695  0.6963  0.4435  0.6622
 6845TIP3   OH244729   0.287   0.457   0.434  0.0052 -0.1791  0.9657
 6845TIP3    H144730   0.195   0.483   0.434 -0.4609 -1.6812  0.0664
 6845TIP3    H244731   0.314   0.461   0.342  0.5050 -0.8419  1.0730
 6846TIP3   OH244732   4.454   2.387   1.060 -0.5791  0.2280  0.1248
 6846TIP3    H144733   4.446   2.325   0.989 -0.2287 -0.4121  0.6349
 6846TIP3    H244734   4.546   2.413   1.059 -0.7100  0.7035 -0.0491
 6847TIP3   OH244735   0.137   0.497   2.261  0.2679 -0.1176  0.7276
 6847TIP3    H144736   0.171   0.442   2.190  1.9230 -2.1826  2.9807
 6847TIP3    H244737   0.172   0.584   2.243  1.1901 -0.7396 -0.6273
 6848TIP3   OH244738   7.195   3.564   1.391  0.3466  0.3234 -0.0391
 6848TIP3    H144739   7.275   3.533   1.348  1.1843  2.2989 -0.0384
 6848TIP3    H244740   7.205   3.539   1.482 -0.4985 -2.1244 -0.5648
 6849TIP3   OH244741   4.977   2.897   0.750  0.1688  0.8464  0.2877
 6849TIP3    H144742   4.890   2.897   0.790 -0.0764  0.5334 -0.2452
 6849TIP3    H244743   5.021   2.822   0.790 -0.8764 -0.9368 -1.7230
 6850TIP3   OH244744   0.446   7.529   2.204  0.4509  0.3877  0.4973
 6850TIP3    H144745   0.542   7.525   2.195  0.3898 -2.2285  0.1293
 6850TIP3    H244746   0.413   7.523   2.114 -0.0905  1.8099  0.5794
 6851TIP3   OH244747   5.373   0.931   0.605 -0.3615  0.8656  0.0300
 6851TIP3    H144748   5.342   0.998   0.665  0.9088  2.3114 -0.8423
 6851TIP3    H244749   5.324   0.852   0.628  0.1892  1.2924  3.0370
 6852TIP3   OH244750   6.613   5.102   1.459  0.1371  0.4430 -0.1173
 6852TIP3    H144751   6.590   5.018   1.420 -0.8609  0.9460 -0.6435
 6852TIP3    H244752   6.647   5.154   1.386 -0.5788  0.9667 -0.0890
 6853TIP3   OH244753   0.631   6.283   3.296  0.1473  0.0725  0.0966
 6853TIP3    H144754   0.578   6.352   3.257 -0.0395  0.5564  1.1565
 6853TIP3    H244755   0.715   6.325   3.315  0.3848 -0.2721 -0.1653
 6854TIP3   OH244756   1.933   6.410   1.276  0.2471  0.1011  0.4346
 6854TIP3    H144757   1.930   6.334   1.218  0.0017 -0.3885  1.0672
 6854TIP3    H244758   2.015   6.398   1.325  0.4602  0.5158  0.1825
 6855TIP3   OH244759   7.330   1.316   2.549 -0.0952 -0.4660 -0.3730
 6855TIP3    H144760   7.424   1.320   2.565 -0.1805  3.5335  0.1625
 6855TIP3    H244761   7.305   1.228   2.577  2.9335 -0.5395  2.8179
 6856TIP3   OH244762   7.585   3.255   1.638  0.2056  0.3703 -0.0230
 6856TIP3    H144763   7.665   3.280   1.684 -0.7167  2.5859  0.5100
 6856TIP3    H244764   7.567   3.327   1.578 -0.6173 -0.7726 -1.2190
 6857TIP3   OH244765   5.702   4.085   1.632 -0.2722 -0.2703  0.4777
 6857TIP3    H144766   5.738   4.013   1.581  1.8092  0.5896  0.6615
 6857TIP3    H244767   5.716   4.163   1.578 -1.1339  0.2202  0.9282
 6858TIP3   OH244768   0.309   0.348   3.006 -0.2468 -0.0133  0.1115
 6858TIP3    H144769   0.372   0.283   3.038 -0.7255 -0.0097  1.0978
 6858TIP3    H244770   0.343   0.373   2.920  0.5099 -0.8023  0.1590
 6859TIP3   OH244771   0.125   2.619   2.019  0.3393  0.7724 -0.1942
 6859TIP3    H144772   0.081   2.682   1.963  1.7397  0.3711 -1.8124
 6859TIP3    H244773   0.209   2.660   2.041  0.4653  0.2668  0.3168
 6860TIP3   OH244774   5.197   0.183   1.395  0.0479  0.9203 -0.3010
 6860TIP3    H144775   5.122   0.124   1.403  0.1139  0.8002 -0.5536
 6860TIP3    H244776   5.251   0.165   1.472  0.3319  0.2700 -0.6399
 6861TIP3   OH244777   1.411   6.177   2.951  0.0471 -0.3307 -0.3456
 6861TIP3    H144778   1.330   6.223   2.928 -0.5022 -0.5109  1.1113
 6861TIP3    H244779   1.397   6.149   3.042  2.5131  1.4020  0.6750
 6862TIP3   OH244780   6.528   5.228   1.965 -0.0254  0.9605  0.1850
 6862TIP3    H144781   6.517   5.209   1.872 -1.1795 -2.2529  0.8553
 6862TIP3    H244782   6.452   5.283   1.988 -0.1467  1.1258 -0.5859
 6863TIP3   OH244783   0.059   7.052   1.328  0.1800 -0.1748 -0.1307
 6863TIP3    H144784   0.043   7.015   1.241  0.3171 -0.8267  0.1120
 6863TIP3    H244785   0.106   7.133   1.312  0.5950 -0.5148 -0.6441
 6864TIP3   OH244786   6.791   6.082   3.451 -0.0011 -0.6802  0.2024
 6864TIP3    H144787   6.840   6.108   3.529  0.1118 -1.7526  0.5001
 6864TIP3    H244788   6.857   6.051   3.390  0.1828  2.1331 -1.2279
 6865TIP3   OH244789   0.055   6.809   0.578 -0.1563  0.1221  0.8983
 6865TIP3    H144790   0.117   6.738   0.562 -1.2052 -0.6463  0.0818
 6865TIP3    H244791   0.057   6.821   0.673  3.4255  2.2029  0.7213
 6866TIP3   OH244792   0.302   1.059   1.287 -0.0829  0.2270 -0.1079
 6866TIP3    H144793   0.269   1.058   1.198 -2.2284  1.0846  0.6131
 6866TIP3    H244794   0.226   1.037   1.341  0.7124  1.4492  1.6103
 6867TIP3   OH244795   2.959   1.964   2.489 -0.5056  0.1264 -0.1976
 6867TIP3    H144796   2.937   2.042   2.539  1.2138  0.3306  0.3053
 6867TIP3    H244797   3.033   1.991   2.433  1.3065 -1.5316  1.2410
 6868TIP3   OH244798   6.321   5.124   1.187  0.2748  0.3288 -0.2876
 6868TIP3    H144799   6.257   5.161   1.248  1.0449 -0.2309  0.8928
 6868TIP3    H244800   6.320   5.030   1.204  0.2928  0.1126 -1.3638
 6869TIP3   OH244801   4.172   3.754   2.355 -0.1045  0.0350  0.2365
 6869TIP3    H144802   4.176   3.713   2.268 -1.5976 -0.5448  0.4076
 6869TIP3    H244803   4.115   3.829   2.343  1.4568  1.2635  0.2586
 6870TIP3   OH244804   1.580   7.406   1.238  0.5414  0.4136  0.0754
 6870TIP3    H144805   1.620   7.491   1.220 -1.3734  0.8656 -2.7892
 6870TIP3    H244806   1.487   7.425   1.249  0.1516 -1.2272 -0.0566
 6871TIP3   OH244807   3.801   1.862   0.547 -0.1971  0.2823  0.3823
 6871TIP3    H144808   3.879   1.891   0.594 -1.1800  0.6068  1.8991
 6871TIP3    H244809   3.767   1.941   0.506 -1.3895  0.8226  2.2892
 6872TIP3   OH244810   3.287   3.311   2.239 -0.5835  0.4550 -0.6413
 6872TIP3    H144811   3.234   3.391   2.249 -0.1890  0.5431  1.1158
 6872TIP3    H244812   3.232   3.242   2.276  0.4994  0.5748  1.3435
 6873TIP3   OH244813   3.031   2.245   0.710 -0.5766 -0.5568 -0.3583
 6873TIP3    H144814   3.040   2.295   0.630  0.1601 -0.9398 -0.5210
 6873TIP3    H244815   3.065   2.158   0.688 -0.4033 -0.6767  0.3523
 6874TIP3   OH244816   4.265   5.163   3.175 -0.1044  0.9900 -0.1619
 6874TIP3    H144817   4.298   5.213   3.250  0.4787  0.3293  0.0341
 6874TIP3    H244818   4.259   5.073   3.206 -1.2858  0.9390 -0.4656
 6875TIP3   OH244819   2.749   1.067   1.738  0.1113 -0.4620  0.3628
 6875TIP3    H144820   2.777   1.003   1.672  0.3278  0.2338 -0.2306
 6875TIP3    H244821   2.809   1.140   1.727 -1.2588  0.6199 -0.2200
 6876TIP3   OH244822   1.717   4.614   1.756  0.1494  0.5951 -0.2909
 6876TIP3    H144823   1.725   4.597   1.662 -1.4221  0.2814 -0.3892
 6876TIP3    H244824   1.729   4.709   1.765  1.4873  0.4725 -0.6488
 6877TIP3   OH244825   5.758   5.736   1.206 -0.2802  0.0599  0.8281
 6877TIP3    H144826   5.766   5.694   1.292 -0.4721 -1.2946  0.2162
 6877TIP3    H244827   5.682   5.694   1.166  1.0133 -0.8327 -0.7909
 6878TIP3   OH244828   1.818   6.807   2.183 -0.2644 -0.2145 -0.0740
 6878TIP3    H144829   1.848   6.818   2.273 -0.1690  0.9981 -0.2339
 6878TIP3    H244830   1.754   6.877   2.170 -0.0374 -0.1630 -1.0471
 6879TIP3   OH244831   4.731   6.783   2.024  0.7609 -0.0912  0.1988
 6879TIP3    H144832   4.750   6.696   2.060  2.3827  0.1965  0.1264
 6879TIP3    H244833   4.802   6.838   2.056  0.2063  1.0309 -0.4328
 6880TIP3   OH244834   0.051   4.636   2.252 -0.2020  0.6141 -0.0005
 6880TIP3    H144835   0.047   4.540   2.244  0.1498  0.5190  0.9010
 6880TIP3    H244836   0.130   4.652   2.302 -1.2794  1.2769  1.5626
 6881TIP3   OH244837   6.145   1.908   0.677 -0.7139 -0.0243 -0.1352
 6881TIP3    H144838   6.232   1.881   0.648 -0.9089  0.3015 -1.0670
 6881TIP3    H244839   6.087   1.879   0.607 -1.5010 -1.1234  0.9329
 6882TIP3   OH244840   1.652   6.125   1.729 -0.6332  0.2131 -0.1672
 6882TIP3    H144841   1.698   6.173   1.660  0.9112  1.0550  1.3709
 6882TIP3    H244842   1.566   6.105   1.692  0.0849  0.7823 -2.2440
 6883TIP3   OH244843   0.440   0.695   1.597  0.1390 -0.6255 -0.4865
 6883TIP3    H144844   0.534   0.687   1.581  0.7473  2.2915  1.0304
 6883TIP3    H244845   0.403   0.723   1.514  1.2972  2.0575 -0.1961
 6884TIP3   OH244846   2.163   1.724   2.364  0.2698 -0.3630 -0.3934
 6884TIP3    H144847   2.194   1.721   2.273 -0.4966  0.1195 -0.6825
 6884TIP3    H244848   2.071   1.749   2.357  0.3132  0.1056  0.5433
 6885TIP3   OH244849   3.167   2.467   2.794 -0.4857 -0.1538 -0.4046
 6885TIP3    H144850   3.222   2.545   2.799 -0.0750 -0.5221  2.2152
 6885TIP3    H244851   3.228   2.394   2.784 -0.7815 -0.2815 -1.4042
 6886TIP3   OH244852   2.083   3.676   1.219 -0.1497 -0.1614  0.3380
 6886TIP3    H144853   2.079   3.734   1.295  0.0147 -0.1280  0.3228
 6886TIP3    H244854   2.153   3.713   1.165  0.6773 -0.9645  0.8228
 6887TIP3   OH244855   6.795   4.099   0.553 -0.0618  0.7082  0.4524
 6887TIP3    H144856   6.744   4.074   0.631  2.0055 -0.1907  1.5961
 6887TIP3    H244857   6.748   4.059   0.480  0.0877 -1.9425  1.6886
 6888TIP3   OH244858   0.923   5.870   0.984 -0.1362  0.3077  0.1615
 6888TIP3    H144859   0.901   5.917   1.065 -1.0319 -0.4685  0.3892
 6888TIP3    H244860   0.840   5.832   0.956  0.2387  0.2860 -0.9465
 6889TIP3   OH244861   1.358   7.632   1.119 -0.2308 -0.4837  0.2432
 6889TIP3    H144862   1.366   7.650   1.212  0.7863 -0.2502  0.1151
 6889TIP3    H244863   1.322   7.713   1.082  0.5805 -0.1162  0.2491
 6890TIP3   OH244864   6.431   1.137   2.208 -0.3931 -0.4957  0.4238
 6890TIP3    H144865   6.475   1.216   2.240 -0.0583 -0.8231  0.7756
 6890TIP3    H244866   6.348   1.170   2.171  1.2729  0.5056 -2.8535
 6891TIP3   OH244867   5.765   3.603   0.776 -0.0154  0.1742 -0.3200
 6891TIP3    H144868   5.696   3.542   0.804  1.3084 -1.5694 -0.6630
 6891TIP3    H244869   5.736   3.688   0.808 -1.5437 -0.7549  0.9432
 6892TIP3   OH244870   2.919   0.740   2.615 -0.3808  0.2821 -0.0318
 6892TIP3    H144871   2.855   0.783   2.672 -0.4384 -1.9009  1.6790
 6892TIP3    H244872   2.880   0.655   2.595  1.4919 -0.6796  0.1737
 6893TIP3   OH244873   0.363   6.525   1.676  0.2098  0.0473 -0.0342
 6893TIP3    H144874   0.351   6.617   1.701  0.5940  0.0466  0.1627
 6893TIP3    H244875   0.432   6.528   1.610  1.4120 -0.2639  1.1831
 6894TIP3   OH244876   6.950   4.685   1.913  0.3968  1.0513  0.6656
 6894TIP3    H144877   6.992   4.616   1.964  0.9662  0.8301 -0.0773
 6894TIP3    H244878   7.023   4.740   1.883  0.3412  0.0010 -1.6370
 6895TIP3   OH244879   4.154   0.445   2.563  0.3432  0.1864 -0.2209
 6895TIP3    H144880   4.168   0.360   2.521  1.1261  0.4593 -0.5182
 6895TIP3    H244881   4.059   0.450   2.574  0.1903 -0.2702 -1.1796
 6896TIP3   OH244882   4.029   7.114   2.843 -0.2112  0.8104  0.0265
 6896TIP3    H144883   3.958   7.166   2.881 -1.6407  0.0628 -1.4785
 6896TIP3    H244884   4.040   7.040   2.902 -1.5176  0.3223 -0.3218
 6897TIP3   OH244885   3.837   6.198   1.177 -0.2783  0.2898  0.0637
 6897TIP3    H144886   3.917   6.221   1.224 -0.3406  0.2591  0.1861
 6897TIP3    H244887   3.864   6.132   1.113 -0.0969  0.7056 -0.2947
 6898TIP3   OH244888   6.831   2.106   2.297  0.2743 -0.0412  0.4096
 6898TIP3    H144889   6.805   2.031   2.243 -1.6513  1.1021 -0.3868
 6898TIP3    H244890   6.803   2.083   2.386 -2.1901  0.4311 -0.1432
 6899TIP3   OH244891   2.322   1.979   1.965 -0.3203  0.4983 -0.1580
 6899TIP3    H144892   2.357   2.027   1.891  0.2316  0.6080  0.1648
 6899TIP3    H244893   2.234   1.953   1.938 -0.1699  0.6405 -0.7975
 6900TIP3   OH244894   5.586   6.964   2.012 -0.1187 -0.2568 -0.6652
 6900TIP3    H144895   5.671   7.004   1.992  0.9456 -1.7208  0.6204
 6900TIP3    H244896   5.522   7.032   1.993  1.4693  1.5111 -0.0354
 6901TIP3   OH244897   2.263   1.153   1.132  0.3175  0.7194 -0.2547
 6901TIP3    H144898   2.220   1.176   1.214 -0.2961 -0.7587 -0.1201
 6901TIP3    H244899   2.196   1.107   1.081  0.9600  0.7726 -1.1921
 6902TIP3   OH244900   7.088   1.879   3.276 -0.2113  0.1735 -0.3430
 6902TIP3    H144901   7.004   1.835   3.261 -0.9897  1.1777  0.8889
 6902TIP3    H244902   7.065   1.970   3.290  0.8940  0.1884  1.7137
 6903TIP3   OH244903   7.204   4.313   1.707 -0.0072  0.2110 -0.5247
 6903TIP3    H144904   7.123   4.283   1.748  0.5285  0.1549  0.5213
 6903TIP3    H244905   7.203   4.272   1.620 -0.0693 -1.6034  0.2762
 6904TIP3   OH244906   3.081   5.096   2.836 -0.5032 -0.0413  0.4283
 6904TIP3    H144907   3.079   5.192   2.838  1.0341  0.2748 -3.3047
 6904TIP3    H244908   2.989   5.070   2.829 -0.8911  1.2183  0.5907
 6905TIP3   OH244909   1.098   5.678   3.127  1.0236 -0.3887 -0.5044
 6905TIP3    H144910   1.071   5.653   3.039 -0.0312  0.8345 -0.5615
 6905TIP3    H244911   1.170   5.741   3.113 -1.0357  2.0901 -0.6807
 6906TIP3   OH244912   2.250   1.406   0.771  0.0511  0.4436  0.0004
 6906TIP3    H144913   2.238   1.484   0.826 -2.0623 -0.5768  1.0954
 6906TIP3    H244914   2.340   1.379   0.789  0.7642  2.4570 -0.2274
 6907TIP3   OH244915   6.935   2.563   2.156  0.1699 -0.0743 -0.4195
 6907TIP3    H144916   6.879   2.633   2.124 -0.2950 -0.5968 -0.7488
 6907TIP3    H244917   7.024   2.600   2.153 -0.0481  0.4197 -0.7981
 6908TIP3   OH244918   3.460   0.314   3.216 -0.6958 -0.0290 -0.1625
 6908TIP3    H144919   3.416   0.242   3.261 -0.5120 -0.1416 -0.1637
 6908TIP3    H244920   3.423   0.313   3.128 -0.5559 -0.2426 -0.2204
 6909TIP3   OH244921   2.821   5.205   0.676 -0.7249  0.3476 -0.0467
 6909TIP3    H144922   2.818   5.218   0.771  1.0984 -0.4578  0.1520
 6909TIP3    H244923   2.893   5.261   0.647 -0.1324 -0.7217 -0.6942
 6910TIP3   OH244924   6.523   1.270   1.905  0.2701 -0.2382 -0.3866
 6910TIP3    H144925   6.439   1.232   1.932  1.0661 -1.9345 -0.1862
 6910TIP3    H244926   6.563   1.204   1.849  0.3613  1.6376 -2.6771
 6911TIP3   OH244927   6.732   6.366   2.656  0.4386 -0.0726 -0.0801
 6911TIP3    H144928   6.692   6.304   2.717  1.5786 -2.3905 -1.5395
 6911TIP3    H244929   6.661   6.394   2.599  0.0740 -0.7139  0.0630
 6912TIP3   OH244930   1.692   2.274   1.916 -0.0737 -0.5217  0.2258
 6912TIP3    H144931   1.601   2.304   1.907  0.2336  0.9976  1.6328
 6912TIP3    H244932   1.685   2.188   1.959 -0.8630 -1.0604 -0.9256
 6913TIP3   OH244933   0.664   7.091   2.872  0.4028  0.2253 -0.0516
 6913TIP3    H144934   0.698   7.179   2.886  1.9107 -0.1215 -1.2346
 6913TIP3    H244935   0.738   7.033   2.892 -0.2988 -0.7284 -0.1216
 6914TIP3   OH244936   2.765   5.832   2.167 -0.6235  0.0818 -0.2730
 6914TIP3    H144937   2.732   5.823   2.257 -0.8974  1.9547 -0.1554
 6914TIP3    H244938   2.814   5.751   2.152 -1.4601 -0.7449  1.1783
 6915TIP3   OH244939   3.555   4.469   1.007 -0.0016 -0.0619  0.1753
 6915TIP3    H144940   3.614   4.491   0.935  0.3862  0.9068  0.7727
 6915TIP3    H244941   3.467   4.482   0.970  0.1943  0.4680 -0.1232
 6916TIP3   OH244942   3.046   3.730   1.342  0.4237  0.0100 -0.2641
 6916TIP3    H144943   3.058   3.703   1.433 -1.4025  1.4122  0.4805
 6916TIP3    H244944   3.103   3.807   1.333  2.6403 -1.6368 -1.1914
 6917TIP3   OH244945   4.488   4.029   2.888  0.4149  0.7475  0.2346
 6917TIP3    H144946   4.501   4.021   2.982 -0.6270  0.4006  0.3574
 6917TIP3    H244947   4.395   4.014   2.875  0.8466 -1.1537 -1.0516
 6918TIP3   OH244948   7.600   5.424   2.637 -0.5070  0.3170 -0.5442
 6918TIP3    H144949   7.568   5.336   2.619  0.5794  0.1551 -1.8614
 6918TIP3    H244950   7.654   5.416   2.715 -0.8466 -0.0629 -0.3440
 6919TIP3   OH244951   5.295   0.946   2.211 -0.0210  0.4896 -0.6072
 6919TIP3    H144952   5.364   0.987   2.159 -1.5125  0.5902 -2.6177
 6919TIP3    H244953   5.254   1.019   2.258  0.7839  0.5160  0.0800
 6920TIP3   OH244954   7.626   3.971   2.710  0.4390 -0.5808 -0.1257
 6920TIP3    H144955   7.637   3.946   2.618 -0.5948  0.7722 -0.6719
 6920TIP3    H244956   7.531   3.982   2.720  0.4667 -1.4298  1.3279
 6921TIP3   OH244957   6.479   0.943   2.937 -0.2998  0.0008  0.0105
 6921TIP3    H144958   6.428   0.915   2.861 -0.4942  0.7559 -0.1518
 6921TIP3    H244959   6.431   0.910   3.012 -0.5732 -0.0186 -0.1724
 6922TIP3   OH244960   3.849   2.275   2.183  0.0356  0.1907  0.3236
 6922TIP3    H144961   3.938   2.239   2.173  0.6179  1.7137 -0.2933
 6922TIP3    H244962   3.863   2.366   2.207 -1.3951  0.1737  1.3539
 6923TIP3   OH244963   3.267   2.473   1.366 -0.2079  0.5824  0.1255
 6923TIP3    H144964   3.220   2.457   1.447  1.6630 -2.9098  0.7529
 6923TIP3    H244965   3.222   2.418   1.301 -0.1914  1.4062 -0.6008
 6924TIP3   OH244966   0.282   4.195   2.115 -0.5167 -0.6506  0.7313
 6924TIP3    H144967   0.366   4.156   2.142  1.1332  2.1501  0.0805
 6924TIP3    H244968   0.279   4.181   2.020  1.1390  2.3789  0.1238
 6925TIP3   OH244969   0.434   7.119   1.466 -0.2339 -0.3384 -0.3850
 6925TIP3    H144970   0.407   7.153   1.551 -2.2739  0.3030 -1.2200
 6925TIP3    H244971   0.368   7.053   1.444  1.7016 -2.4097 -0.3734
 6926TIP3   OH244972   3.242   5.978   2.192  0.0848  0.6513 -0.6275
 6926TIP3    H144973   3.188   5.900   2.201  0.1117  0.7549  0.6438
 6926TIP3    H244974   3.188   6.049   2.226  0.5620  0.9652 -0.5114
 6927TIP3   OH244975   2.893   5.620   0.811  0.0258  0.4351  0.2367
 6927TIP3    H144976   2.820   5.618   0.874 -0.0623  0.4931  0.1372
 6927TIP3    H244977   2.913   5.713   0.800  0.1322  0.4170  0.2838
 6928TIP3   OH244978   4.126   3.264   1.191  0.6854 -0.1554  0.3612
 6928TIP3    H144979   4.191   3.284   1.124  0.1477 -2.6000 -0.9936
 6928TIP3    H244980   4.164   3.192   1.241  0.0995  0.1303  1.2421
 6929TIP3   OH244981   2.450   6.371   2.126 -0.2049 -0.2887  0.0670
 6929TIP3    H144982   2.473   6.457   2.091 -2.0967  0.7508  1.2120
 6929TIP3    H244983   2.368   6.385   2.173 -0.4162 -2.6745  0.5511
 6930TIP3   OH244984   5.826   6.440   2.296  0.6190  0.8028  0.5875
 6930TIP3    H144985   5.832   6.521   2.245 -1.9874  0.8343  0.2107
 6930TIP3    H244986   5.786   6.466   2.378 -0.8029 -0.1644  0.2278
 6931TIP3   OH244987   1.043   2.521   3.498  0.0832 -0.5010  0.2871
 6931TIP3    H144988   0.973   2.516   3.433  0.0995  0.5763  0.1705
 6931TIP3    H244989   1.034   2.440   3.548 -0.3486 -1.0360 -0.6226
 6932TIP3   OH244990   2.785   6.562   0.835  0.0875 -0.6188  0.2092
 6932TIP3    H144991   2.696   6.560   0.871 -0.3409 -0.6881 -0.8104
 6932TIP3    H244992   2.793   6.649   0.796  0.6266 -0.4588  0.6640
 6933TIP3   OH244993   5.640   5.627   0.961  0.0435 -0.1650 -0.3276
 6933TIP3    H144994   5.684   5.711   0.976  1.3941 -0.7364 -0.9576
 6933TIP3    H244995   5.626   5.623   0.867 -0.2464 -0.5355 -0.2702
 6934TIP3   OH244996   5.129   2.701   1.632 -0.0773 -0.3658  0.7033
 6934TIP3    H144997   5.076   2.621   1.638 -0.4510 -0.1961 -0.1211
 6934TIP3    H244998   5.207   2.674   1.583 -0.9644  0.1068 -1.0754
 6935TIP3   OH244999   6.870   0.431   0.574 -0.2476  0.1366 -0.1519
 6935TIP3    H145000   6.948   0.478   0.605  0.2658 -1.2969  0.8573
 6935TIP3    H245001   6.905   0.364   0.515 -0.9699  0.9516 -1.5840
 6936TIP3   OH245002   2.835   0.072   1.969 -0.1934 -0.4193  0.3682
 6936TIP3    H145003   2.763   0.043   1.913 -1.2355  1.6184  0.5168
 6936TIP3    H245004   2.908   0.087   1.910 -0.7823  0.1679 -0.2305
 6937TIP3   OH245005   7.170   4.913   1.397  0.2668 -0.9330 -0.1302
 6937TIP3    H145006   7.264   4.929   1.407  0.3230 -1.3686  0.0515
 6937TIP3    H245007   7.163   4.821   1.372 -0.1376 -1.0570  0.4156
 6938TIP3   OH245008   7.442   2.868   0.656 -0.0124  0.2247  0.0659
 6938TIP3    H145009   7.513   2.896   0.715 -0.8246 -0.6901  1.5516
 6938TIP3    H245010   7.438   2.773   0.669 -0.0870 -0.0332 -1.6592
 6939TIP3   OH245011   2.587   5.386   0.519 -0.1198 -0.1871 -0.2879
 6939TIP3    H145012   2.506   5.413   0.476  0.5961  1.2215 -0.8152
 6939TIP3    H245013   2.585   5.290   0.517 -2.3793 -0.2329  0.8917
 6940TIP3   OH245014   0.739   5.234   1.251 -0.3501 -0.2433  0.2182
 6940TIP3    H145015   0.686   5.157   1.235  0.1379 -0.5455  0.0459
 6940TIP3    H245016   0.699   5.303   1.198  0.0123 -0.7126 -0.6816
 6941TIP3   OH245017   1.353   0.248   1.766 -0.1802 -0.4434  0.3987
 6941TIP3    H145018   1.442   0.214   1.777 -0.6444 -0.8808  3.4503
 6941TIP3    H245019   1.346   0.264   1.671  2.4356 -2.2407 -0.2193
 6942TIP3   OH245020   3.568   0.803   3.205 -0.1332 -0.3253 -0.4247
 6942TIP3    H145021   3.478   0.770   3.194 -0.9972  1.0222  1.8392
 6942TIP3    H245022   3.603   0.752   3.279  0.2558  0.4676 -0.0567
 6943TIP3   OH245023   6.578   0.710   1.176 -0.0804 -0.0299 -0.2415
 6943TIP3    H145024   6.486   0.702   1.204 -0.7768 -0.1638 -2.3557
 6943TIP3    H245025   6.621   0.757   1.247 -1.4548 -1.2373  1.4438
 6944TIP3   OH245026   6.594   1.147   2.793  0.2842 -0.3944 -0.0515
 6944TIP3    H145027   6.540   1.225   2.777 -0.3384 -1.0616 -1.3744
 6944TIP3    H245028   6.542   1.093   2.852 -0.3863 -0.8735 -1.0421
 6945TIP3   OH245029   1.164   0.982   1.615 -0.6240 -0.5001 -0.1043
 6945TIP3    H145030   1.210   0.898   1.607 -0.5538 -0.5071  0.3581
 6945TIP3    H245031   1.190   1.016   1.700  0.9125  0.9400 -1.0865
 6946TIP3   OH245032   0.507   2.123   2.571  0.0440  0.0138 -0.2119
 6946TIP3    H145033   0.561   2.177   2.514  0.7199 -3.1400 -2.8101
 6946TIP3    H245034   0.423   2.170   2.576  0.4207  1.1188 -2.7210
 6947TIP3   OH245035   2.354   5.424   1.020 -0.2888  0.0993 -0.2647
 6947TIP3    H145036   2.317   5.336   1.023 -0.0188 -0.0097  3.0042
 6947TIP3    H245037   2.443   5.412   0.986  0.4288 -1.2304  1.9143
 6948TIP3   OH245038   3.606   2.046   0.873  0.4082  0.0252 -0.3135
 6948TIP3    H145039   3.657   2.120   0.838  1.4615  0.0988  1.2872
 6948TIP3    H245040   3.518   2.082   0.887  0.6602  0.7051 -0.4359
 6949TIP3   OH245041   3.210   5.328   3.095  0.4493  0.0859  0.3349
 6949TIP3    H145042   3.230   5.396   3.030  1.2501  0.5148  1.0102
 6949TIP3    H245043   3.118   5.341   3.115  0.3308  0.2987 -0.3088
 6950TIP3   OH245044   7.385   2.108   1.320 -0.1307  0.0391 -0.0551
 6950TIP3    H145045   7.367   2.164   1.396 -2.8348  0.5681 -1.0038
 6950TIP3    H245046   7.387   2.168   1.246  1.8140 -0.5686 -0.5577
 6951TIP3   OH245047   6.434   4.682   2.609 -0.6034  0.4511  0.1809
 6951TIP3    H145048   6.408   4.748   2.673 -1.0232 -0.1746  0.6666
 6951TIP3    H245049   6.522   4.708   2.583  0.3130 -0.2495  2.3512
 6952TIP3   OH245050   0.136   3.230   1.830 -0.5454  0.1294 -0.4702
 6952TIP3    H145051   0.209   3.182   1.867 -0.6867 -0.3236 -0.7720
 6952TIP3    H245052   0.058   3.189   1.868 -0.6442  0.5791 -0.1824
 6953TIP3   OH245053   4.221   2.054   1.249  0.0312 -0.8922 -0.6411
 6953TIP3    H145054   4.270   2.134   1.265  1.7477 -0.9976 -4.2624
 6953TIP3    H245055   4.158   2.078   1.180 -2.1894 -1.8082  0.9396
 6954TIP3   OH245056   6.188   6.775   1.717  0.6552  0.0473 -0.0916
 6954TIP3    H145057   6.164   6.690   1.681  0.2901  0.2150 -0.2490
 6954TIP3    H245058   6.146   6.839   1.658  3.0654  0.4093 -1.5497
 6955TIP3   OH245059   3.184   4.264   2.867 -0.7056 -0.0010  0.4273
 6955TIP3    H145060   3.197   4.170   2.862  0.3379  0.1177  0.6620
 6955TIP3    H245061   3.155   4.289   2.780 -1.1589 -0.5597  0.4139
 6956TIP3   OH245062   2.974   3.718   3.433  0.4828  0.2524 -0.2328
 6956TIP3    H145063   2.961   3.696   3.525  0.8109 -1.8765 -0.6382
 6956TIP3    H245064   3.066   3.743   3.427  0.5418  0.0834 -0.0328
 6957TIP3   OH245065   2.401   6.723   3.227 -0.0961  0.7101  0.1438
 6957TIP3    H145066   2.360   6.757   3.307 -1.3256 -1.0167  0.2993
 6957TIP3    H245067   2.471   6.666   3.259 -2.0609 -1.8585  0.1678
 6958TIP3   OH245068   2.159   2.471   3.366  0.0729 -0.2039 -0.1975
 6958TIP3    H145069   2.128   2.382   3.348  0.1367 -0.1829 -0.4249
 6958TIP3    H245070   2.085   2.527   3.345 -0.0156 -0.2130  0.0889
 6959TIP3   OH245071   6.306   3.005   1.615 -0.1394 -0.1330 -0.3310
 6959TIP3    H145072   6.290   2.932   1.675  0.8852 -0.4669 -0.4521
 6959TIP3    H245073   6.360   3.066   1.666 -3.8770  2.3420  1.0929
 6960TIP3   OH245074   7.180   1.402   2.011 -0.6826  0.3148 -0.1665
 6960TIP3    H145075   7.125   1.386   1.934 -1.2564  2.8121 -0.3427
 6960TIP3    H245076   7.157   1.490   2.039  1.2843  0.3810  1.4342
 6961TIP3   OH245077   1.177   2.346   2.100  0.2589 -0.1316  0.1432
 6961TIP3    H145078   1.143   2.260   2.076  1.1872 -0.4693 -0.0264
 6961TIP3    H245079   1.184   2.394   2.017 -1.2003  0.4791  0.3522
 6962TIP3   OH245080   0.614   5.453   2.734  0.0302 -0.2409 -0.2791
 6962TIP3    H145081   0.655   5.451   2.648  0.6809  0.8503 -0.0180
 6962TIP3    H245082   0.595   5.545   2.750  0.1883 -0.3857  0.8626
 6963TIP3   OH245083   2.877   3.468   1.596  0.5139 -0.5706 -0.1430
 6963TIP3    H145084   2.845   3.385   1.631  1.1165 -0.2503  1.2465
 6963TIP3    H245085   2.798   3.517   1.573  0.0590 -0.7612  0.9292
 6964TIP3   OH245086   3.197   4.015   2.670  0.4539  0.1265 -0.3472
 6964TIP3    H145087   3.261   4.033   2.600  0.5868 -1.8993 -0.8058
 6964TIP3    H245088   3.232   3.938   2.715 -1.2798 -0.5779 -0.1328
 6965TIP3   OH245089   1.550   2.897   0.821  0.1650  0.0574 -0.9425
 6965TIP3    H145090   1.588   2.917   0.906  0.2463  1.0350 -1.1919
 6965TIP3    H245091   1.613   2.932   0.758  0.1638 -0.7601 -1.4135
 6966TIP3   OH245092   2.852   1.720   2.396 -0.0395 -0.5178  0.1421
 6966TIP3    H145093   2.876   1.655   2.462  1.4961 -1.4844 -1.2796
 6966TIP3    H245094   2.876   1.804   2.435 -2.6428 -0.6232  2.2686
 6967TIP3   OH245095   1.982   2.770   1.528 -0.1505 -0.2528 -0.6190
 6967TIP3    H145096   2.034   2.795   1.452  0.8315 -0.9962 -0.2048
 6967TIP3    H245097   1.992   2.842   1.589  2.0640 -1.2435  0.2710
 6968TIP3   OH245098   1.542   2.105   0.373  0.4866  0.8559  0.0973
 6968TIP3    H145099   1.509   2.061   0.452  0.5762 -0.1442 -0.4002
 6968TIP3    H245100   1.484   2.073   0.303  0.8772  1.1393 -0.3576
 6969TIP3   OH245101   3.370   1.903   2.229 -0.4053 -0.3292  0.3135
 6969TIP3    H145102   3.431   1.885   2.158 -0.8993  2.1227 -0.8430
 6969TIP3    H245103   3.291   1.854   2.207  0.0013 -0.8694  0.0541
 6970TIP3   OH245104   0.191   1.571   3.694 -0.9651 -0.2623 -0.0903
 6970TIP3    H145105   0.127   1.505   3.667 -0.0276 -1.2817  0.0493
 6970TIP3    H245106   0.274   1.522   3.698 -0.0137  1.1759 -1.1053
 6971TIP3   OH245107   6.626   3.923   2.468 -0.0090  0.3008  0.6525
 6971TIP3    H145108   6.680   3.999   2.445  1.0972 -0.1160  1.7776
 6971TIP3    H245109   6.642   3.909   2.561  1.8606 -2.8309  0.0333
 6972TIP3   OH245110   4.398   1.733   0.841 -0.1765  0.9438  0.2714
 6972TIP3    H145111   4.328   1.667   0.845 -0.1141  0.5069 -2.9278
 6972TIP3    H245112   4.352   1.817   0.847 -0.6623  0.6302  0.9444
 6973TIP3   OH245113   3.917   5.027   1.923 -0.3994 -0.3730  0.1295
 6973TIP3    H145114   3.846   5.074   1.879 -1.4114 -2.1071 -0.2042
 6973TIP3    H245115   3.905   5.047   2.016  0.8110  2.0779 -0.1808
 6974TIP3   OH245116   3.671   5.787   2.373 -0.1148  0.3303  0.4288
 6974TIP3    H145117   3.613   5.862   2.373 -1.2975 -0.5351 -0.5216
 6974TIP3    H245118   3.749   5.816   2.326 -0.6988  0.8722 -0.2214
 6975TIP3   OH245119   0.847   6.826   2.439 -0.4386  0.0569  0.2961
 6975TIP3    H145120   0.785   6.893   2.467 -1.6187 -1.2941  1.0583
 6975TIP3    H245121   0.795   6.766   2.386  0.4757 -0.4989  0.0054
 6976TIP3   OH245122   1.692   0.121   3.194 -0.3221 -1.0424 -1.1903
 6976TIP3    H145123   1.668   0.184   3.126  1.1195  0.0849 -0.6934
 6976TIP3    H245124   1.623   0.131   3.260  0.4028  0.8158 -0.6341
 6977TIP3   OH245125   5.103   5.479   2.441  0.0803  0.2466  0.2902
 6977TIP3    H145126   5.024   5.433   2.411 -1.8125  2.2394  1.8718
 6977TIP3    H245127   5.141   5.514   2.360  0.0641 -1.7378 -0.6357
 6978TIP3   OH245128   5.879   2.036   2.420 -0.2221 -0.1327  0.0439
 6978TIP3    H145129   5.974   2.044   2.424 -0.1181 -0.2395 -1.6607
 6978TIP3    H245130   5.847   2.126   2.424 -0.0859 -0.1144  0.9718
 6979TIP3   OH245131   3.817   1.469   2.742 -0.3277  0.2604  0.8014
 6979TIP3    H145132   3.745   1.457   2.804 -0.3285 -2.5749  0.4073
 6979TIP3    H245133   3.892   1.425   2.782  0.9592  2.2680  0.7318
 6980TIP3   OH245134   3.524   5.857   2.098 -0.4927  0.1460 -0.2355
 6980TIP3    H145135   3.600   5.802   2.116  0.7828  1.4172 -1.4484
 6980TIP3    H245136   3.449   5.799   2.111  0.7316 -1.5383 -0.2944
 6981TIP3   OH245137   2.854   4.999   0.967  0.1774 -0.0637  0.8022
 6981TIP3    H145138   2.899   5.082   0.959 -0.2278  0.3932  2.8660
 6981TIP3    H245139   2.774   5.019   1.015  0.5689 -1.7874  2.2756
 6982TIP3   OH245140   3.927   2.555   1.448  0.6946  0.6921  1.1207
 6982TIP3    H145141   3.900   2.484   1.390 -0.1069  1.3790  0.6313
 6982TIP3    H245142   3.897   2.528   1.534 -0.1814  0.7218  0.8361
 6983TIP3   OH245143   4.639   4.501   0.898 -0.3694 -0.1457  0.5886
 6983TIP3    H145144   4.596   4.425   0.935  0.2794 -0.2961  1.0508
 6983TIP3    H245145   4.585   4.526   0.823 -1.2743 -0.2981  1.1793
 6984TIP3   OH245146   0.899   7.110   2.563  0.3181  0.4525  0.1862
 6984TIP3    H145147   0.963   7.067   2.620  0.9286  1.1807  0.0556
 6984TIP3    H245148   0.817   7.063   2.580  0.8177 -0.3075  0.5600
 6985TIP3   OH245149   5.647   2.861   2.235 -0.8350 -0.2857  0.0174
 6985TIP3    H145150   5.621   2.857   2.327  0.6635  2.3712  0.6420
 6985TIP3    H245151   5.579   2.811   2.189 -1.4607 -1.9518  2.5413
 6986TIP3   OH245152   6.515   5.203   1.694 -0.0320 -0.2007 -0.0740
 6986TIP3    H145153   6.495   5.293   1.667  0.5917  0.4965  1.6480
 6986TIP3    H245154   6.582   5.174   1.632 -1.5338 -0.1966 -1.7973
 6987TIP3   OH245155   6.258   5.315   1.995  0.3065  0.1078  0.1432
 6987TIP3    H145156   6.224   5.286   1.910 -0.1317  3.1704 -0.8413
 6987TIP3    H245157   6.180   5.336   2.046  0.6114 -0.3587  0.8256
 6988TIP3   OH245158   0.324   0.025   2.602  0.1080 -0.9598 -0.2543
 6988TIP3    H145159   0.419   0.033   2.592  0.1197 -1.3100 -0.4436
 6988TIP3    H245160   0.301  -0.053   2.551 -0.0810 -1.7298  0.9464
 6989TIP3   OH245161   1.577   2.504   1.386  0.2290 -0.3940  0.2842
 6989TIP3    H145162   1.549   2.419   1.420  0.3271 -0.9056 -0.8593
 6989TIP3    H245163   1.509   2.527   1.323 -0.2270  0.7840  1.1823
 6990TIP3   OH245164   1.233   4.363   3.082  0.4828 -0.1328  0.1324
 6990TIP3    H145165   1.169   4.376   3.151  0.0580  0.3298 -0.3324
 6990TIP3    H245166   1.181   4.362   3.001  0.9680 -0.6468 -0.1773
 6991TIP3   OH245167   7.287   4.894   2.727 -0.1091 -0.5976 -0.2637
 6991TIP3    H145168   7.236   4.924   2.802  0.0948  2.2643 -1.1753
 6991TIP3    H245169   7.378   4.911   2.751  0.1015 -1.4050 -0.4544
 6992TIP3   OH245170   7.215   6.936   2.788  0.2864 -0.0148  0.3238
 6992TIP3    H145171   7.303   6.967   2.771  0.1188 -0.2397 -1.0471
 6992TIP3    H245172   7.187   6.894   2.706 -0.6841 -0.9098  1.0816
 6993TIP3   OH245173   0.433   5.481   3.091 -1.0475 -0.3957 -0.2530
 6993TIP3    H145174   0.347   5.505   3.054 -1.3804  0.9733  1.2675
 6993TIP3    H245175   0.437   5.529   3.174 -1.1303 -4.6388  2.4992
 6994TIP3   OH245176   5.414   6.236   2.471 -0.4725 -0.0829 -0.2616
 6994TIP3    H145177   5.401   6.145   2.445  0.3056  0.0753 -1.3026
 6994TIP3    H245178   5.354   6.286   2.416  0.6341  0.1903 -1.2795
 6995TIP3   OH245179   7.190   5.448   0.973 -0.3598  0.6070 -0.2133
 6995TIP3    H145180   7.213   5.427   1.064  0.0800  1.2183 -0.1740
 6995TIP3    H245181   7.192   5.544   0.970  0.5763  0.5707 -1.1041
 6996TIP3   OH245182   2.276   1.610   0.952  0.7179 -0.0450  0.0106
 6996TIP3    H145183   2.359   1.575   0.984  0.0881 -0.4076  1.2820
 6996TIP3    H245184   2.226   1.630   1.031 -0.5338 -0.1341 -0.7438
 6997TIP3   OH245185   2.615   3.650   1.732  0.1391 -0.2788  0.1059
 6997TIP3    H145186   2.547   3.642   1.664 -0.8819 -0.8200  1.1462
 6997TIP3    H245187   2.606   3.740   1.764  2.7140  1.0717 -2.5247
 6998TIP3   OH245188   7.073   1.410   0.619 -0.6229 -0.0299 -0.3071
 6998TIP3    H145189   7.079   1.500   0.650 -1.8919 -0.8349  2.5037
 6998TIP3    H245190   6.989   1.405   0.573 -0.4917  0.2134 -0.5795
 6999TIP3   OH245191   3.764   1.355   1.103 -0.4447 -0.2628 -0.4144
 6999TIP3    H145192   3.677   1.327   1.132 -1.1224  1.1963 -0.9621
 6999TIP3    H245193   3.779   1.438   1.149  0.2853 -0.0675 -0.9845
 7000TIP3   OH245194   5.212   6.221   3.203  0.0123  0.3610  0.2456
 7000TIP3    H145195   5.218   6.297   3.261  1.2683  1.1410 -0.8299
 7000TIP3    H245196   5.303   6.202   3.179 -0.2624 -1.6111  0.6171
 7001TIP3   OH245197   4.594   5.984   0.692  0.5514 -0.2262  0.2019
 7001TIP3    H145198   4.622   5.927   0.620 -0.5805 -0.1120 -0.3525
 7001TIP3    H245199   4.499   5.978   0.691  0.2989  2.5347 -0.6160
 7002TIP3   OH245200   0.487   1.821   2.360 -0.3301 -0.0261  0.2659
 7002TIP3    H145201   0.470   1.913   2.341 -3.1544 -0.6128 -0.4682
 7002TIP3    H245202   0.484   1.778   2.274  1.1286 -0.8323  0.5796
 7003TIP3   OH245203   2.447   5.161   2.656  0.7281 -0.2314  0.2157
 7003TIP3    H145204   2.526   5.214   2.648  1.2937 -0.5483  2.7702
 7003TIP3    H245205   2.396   5.181   2.578  0.7945  4.2678  1.0704
 7004TIP3   OH245206   5.439   6.343   1.836  0.0507 -0.1044  0.3145
 7004TIP3    H145207   5.527   6.341   1.798 -0.0859 -2.6090 -0.0572
 7004TIP3    H245208   5.383   6.377   1.766  0.4864 -0.0349 -0.0061
 7005TIP3   OH245209   3.730   4.643   2.164  0.3974  0.4229 -0.1316
 7005TIP3    H145210   3.765   4.578   2.103  0.6667  0.0585  0.4045
 7005TIP3    H245211   3.701   4.715   2.108 -1.4341 -0.8137 -0.8716
 7006TIP3   OH245212   1.842   5.029   1.524  0.0800 -0.6836 -0.4089
 7006TIP3    H145213   1.847   4.978   1.443  2.3846 -2.0850  0.5056
 7006TIP3    H245214   1.815   4.965   1.590 -2.0604  0.5059 -0.0303
 7007TIP3   OH245215   1.853   4.924   0.729 -0.5838 -0.3905  0.0333
 7007TIP3    H145216   1.844   4.960   0.640  1.8246  0.1858 -0.0688
 7007TIP3    H245217   1.844   4.830   0.718  0.7621 -0.4348 -1.0759
 7008TIP3   OH245218   4.165   4.510   1.268 -0.0957 -0.3458 -0.3047
 7008TIP3    H145219   4.104   4.456   1.219 -0.4285  0.0992 -0.3847
 7008TIP3    H245220   4.222   4.448   1.313 -0.0729 -0.7580 -0.8973
 7009TIP3   OH245221   5.104   3.666   2.177 -0.3377  0.0999  0.7092
 7009TIP3    H145222   5.174   3.661   2.112 -0.8804 -0.8760  0.1795
 7009TIP3    H245223   5.140   3.623   2.255 -0.3668 -0.4387  0.4245
 7010TIP3   OH245224   0.138   0.890   1.432 -0.1867  0.1803  0.0811
 7010TIP3    H145225   0.165   0.909   1.522 -0.4440 -0.9839  0.4153
 7010TIP3    H245226   0.210   0.839   1.395 -0.8723 -0.9152  0.2219
 7011TIP3   OH245227   3.856   3.238   1.189 -0.3707  0.2151 -1.0230
 7011TIP3    H145228   3.948   3.225   1.210  0.0990  0.1768 -2.8742
 7011TIP3    H245229   3.823   3.297   1.257  0.1219 -2.2853  1.5572
 7012TIP3   OH245230   3.890   4.661   1.061  0.1125 -0.4539  0.5474
 7012TIP3    H145231   3.840   4.647   1.142 -2.2143 -0.9840 -0.8916
 7012TIP3    H245232   3.833   4.628   0.992  0.7477  2.6183 -1.6341
 7013TIP3   OH245233   7.381   1.875   1.933 -0.4567  0.1046 -0.1371
 7013TIP3    H145234   7.339   1.943   1.879 -1.7784  2.7362  3.7831
 7013TIP3    H245235   7.452   1.921   1.978 -1.3899 -1.0263  2.6621
 7014TIP3   OH245236   6.134   2.182   3.156  0.1445  0.0949 -0.3694
 7014TIP3    H145237   6.203   2.244   3.129  0.7786 -0.2406  0.4344
 7014TIP3    H245238   6.181   2.113   3.202 -0.6884 -0.4155 -0.2637
 7015TIP3   OH245239   3.296   4.325   3.121 -0.6776  0.5870 -0.1043
 7015TIP3    H145240   3.237   4.310   3.195 -0.4357 -1.3402 -0.2398
 7015TIP3    H245241   3.250   4.286   3.046  0.1419  0.3202 -0.4793
 7016TIP3   OH245242   5.075   1.755   0.810  0.0119  0.0331 -1.1356
 7016TIP3    H145243   5.100   1.782   0.722 -1.7668 -1.7629 -2.2844
 7016TIP3    H245244   4.987   1.719   0.800  0.6530 -2.3975  0.9350
 7017TIP3   OH245245   0.205   5.792   1.179  0.1737 -0.0911 -0.4209
 7017TIP3    H145246   0.139   5.760   1.117  0.4310 -0.7509 -0.3571
 7017TIP3    H245247   0.164   5.780   1.265  0.1128  0.1322 -0.4174
 7018TIP3   OH245248   7.572   0.015   1.991  0.2882 -0.0601 -0.5744
 7018TIP3    H145249   7.645  -0.045   2.005  1.5561  1.3705 -0.7535
 7018TIP3    H245250   7.493  -0.037   2.007  1.3228 -1.8428 -1.1329
 7019TIP3   OH245251   7.296   1.097   0.803  0.5173 -0.3217 -0.0150
 7019TIP3    H145252   7.211   1.135   0.823  0.6190 -1.1122  2.2248
 7019TIP3    H245253   7.354   1.172   0.792 -0.0852  0.2101  0.3661
 7020TIP3   OH245254   4.278   3.933   0.646 -0.1106 -0.0389  0.1088
 7020TIP3    H145255   4.371   3.909   0.637  0.3818  1.5949  0.4098
 7020TIP3    H245256   4.261   3.924   0.740 -0.3791 -0.6824  0.0056
 7021TIP3   OH245257   6.297   4.028   1.706  0.6104 -0.2781 -0.0085
 7021TIP3    H145258   6.313   4.120   1.728  2.0316  0.0937 -2.2442
 7021TIP3    H245259   6.212   4.030   1.662  0.5319 -0.0735  0.1460
 7022TIP3   OH245260   2.842   2.160   2.644 -0.4064  0.2996 -0.2540
 7022TIP3    H145261   2.858   2.253   2.626 -1.0016  0.4767  0.0955
 7022TIP3    H245262   2.849   2.153   2.739 -0.7214  0.0520 -0.2499
 7023TIP3   OH245263   0.683   6.639   2.334  0.4481  0.4003  0.3824
 7023TIP3    H145264   0.635   6.631   2.251  1.2865 -0.7256 -0.0280
 7023TIP3    H245265   0.641   6.575   2.392 -0.0278  1.0669  0.7849
 7024TIP3   OH245266   4.922   2.259   0.858 -0.5247  0.0456 -0.1127
 7024TIP3    H145267   4.910   2.168   0.831 -1.7366  0.1965 -0.1642
 7024TIP3    H245268   4.916   2.256   0.954 -2.8230  0.3206 -0.1976
 7025TIP3   OH245269   1.129   6.977   0.737 -0.7004 -0.3658 -0.2208
 7025TIP3    H145270   1.095   6.987   0.826 -1.1709  3.3681 -0.6268
 7025TIP3    H245271   1.223   6.994   0.746 -0.7873  0.2513 -0.4381
 7026TIP3   OH245272   6.231   0.253   2.109  0.0118 -0.5699 -0.0508
 7026TIP3    H145273   6.213   0.222   2.198  0.3109 -0.0549  0.1922
 7026TIP3    H245274   6.288   0.185   2.071 -0.1573 -0.8148  0.1282
 7027TIP3   OH245275   3.908   3.070   2.256 -0.0263  0.1159 -0.6344
 7027TIP3    H145276   3.961   2.991   2.242 -0.3560 -0.4514  1.0350
 7027TIP3    H245277   3.891   3.071   2.351 -0.9687  1.5927 -0.7852
 7028TIP3   OH245278   3.818   7.299   2.912  0.3711  0.0267 -0.5392
 7028TIP3    H145279   3.890   7.360   2.926 -0.8568  0.7371  4.5493
 7028TIP3    H245280   3.740   7.348   2.935 -0.9610 -2.5365  0.9075
 7029TIP3   OH245281   5.084   1.312   0.611  0.5477 -0.0601 -0.3539
 7029TIP3    H145282   5.105   1.273   0.527 -3.6670  0.3679 -1.8584
 7029TIP3    H245283   5.078   1.406   0.593  0.0960  0.0988  0.5446
 7030TIP3   OH245284   5.833   6.121   2.656 -0.7282  0.1019  0.2341
 7030TIP3    H145285   5.752   6.160   2.689  0.1368  0.7107  1.7062
 7030TIP3    H245286   5.890   6.196   2.639  0.2908 -0.4203  1.3022
 7031TIP3   OH245287   0.639   1.489   3.248 -0.3424 -0.1840 -0.5180
 7031TIP3    H145288   0.630   1.398   3.279 -2.9317  0.9590  2.6055
 7031TIP3    H245289   0.576   1.538   3.300  3.5566  4.1275  0.7515
 7032TIP3   OH245290   4.177   6.499   1.306 -0.2420  0.2805 -0.6411
 7032TIP3    H145291   4.252   6.557   1.319 -0.8447  1.1192 -0.8480
 7032TIP3    H245292   4.192   6.457   1.221  0.1863  0.1371 -0.4960
 7033TIP3   OH245293   6.320   4.766   1.544  0.1944  0.1558 -0.4635
 7033TIP3    H145294   6.366   4.799   1.621  0.5214 -3.8128  1.3075
 7033TIP3    H245295   6.228   4.786   1.561  0.1641 -1.3157  1.4758
 7034TIP3   OH245296   0.223   3.926   2.825 -0.6423  0.1848 -0.1047
 7034TIP3    H145297   0.241   4.015   2.857 -0.7750 -0.1321  0.8884
 7034TIP3    H245298   0.135   3.931   2.788 -0.6611  0.4562 -0.0256
 7035TIP3   OH245299   5.478   0.086   2.683  0.5222  0.4688  0.0638
 7035TIP3    H145300   5.522   0.147   2.742 -1.8743 -0.0279  2.6007
 7035TIP3    H245301   5.426   0.142   2.625 -0.9100  0.9578  1.7418
 7036TIP3   OH245302   4.402   4.549   1.081  0.4997 -0.0554 -0.0600
 7036TIP3    H145303   4.423   4.463   1.043  1.1308  0.4957 -0.9862
 7036TIP3    H245304   4.317   4.536   1.123 -0.5475 -0.5600 -2.2039
 7037TIP3   OH245305   7.303   7.217   2.497  0.1104 -0.3230  0.1326
 7037TIP3    H145306   7.233   7.267   2.539  1.0965  0.0027  1.4549
 7037TIP3    H245307   7.277   7.126   2.507 -0.6076 -0.1652 -0.2784
 7038TIP3   OH245308   7.268   1.926   7.202  0.1796  0.2067  0.4513
 7038TIP3    H145309   7.343   1.918   7.143  1.0107  1.0465  1.3461
 7038TIP3    H245310   7.303   1.902   7.288 -0.2597  1.7201  1.0927
 7039TIP3   OH245311   3.074   0.436   0.615  0.0755 -0.7156  0.0873
 7039TIP3    H145312   3.071   0.503   0.547  0.4812 -0.7015  0.0830
 7039TIP3    H245313   3.031   0.476   0.691 -0.6847 -0.8515 -0.2610
 7040TIP3   OH245314   1.434   1.301   1.339 -0.2906  0.0967 -0.1987
 7040TIP3    H145315   1.516   1.263   1.371 -0.6963 -3.3875 -2.6481
 7040TIP3    H245316   1.366   1.244   1.376 -1.5146  1.8986  0.4308
 7041TIP3   OH245317   4.089   1.528   1.702  1.0630  0.3630  0.2425
 7041TIP3    H145318   4.014   1.556   1.754  0.5231  0.5335 -0.5993
 7041TIP3    H245319   4.103   1.437   1.728  0.2715  0.1871  0.1009
 7042TIP3   OH245320   2.255   1.882   1.038 -0.0336 -0.2647 -0.1982
 7042TIP3    H145321   2.276   1.814   0.975 -0.1437 -0.5738  0.0940
 7042TIP3    H245322   2.161   1.895   1.029 -0.2022 -0.9010  0.4702
 7043TIP3   OH245323   4.209   5.565   0.898 -0.1015  0.0373 -0.3885
 7043TIP3    H145324   4.228   5.605   0.983  0.3502 -0.0278 -0.4565
 7043TIP3    H245325   4.290   5.523   0.872  0.1534  1.0844 -1.4129
 7044TIP3   OH245326   6.355   2.858   2.293 -0.1791  0.0479 -0.0478
 7044TIP3    H145327   6.281   2.798   2.283 -0.6461  0.4778  0.8007
 7044TIP3    H245328   6.363   2.871   2.387 -0.3706  1.6855 -0.2351
 7045TIP3   OH245329   7.648   0.637   1.346  0.1513 -0.6229  0.4997
 7045TIP3    H145330   7.597   0.687   1.410  0.7832  0.0818  0.4620
 7045TIP3    H245331   7.711   0.700   1.311  1.3496 -1.5710  0.8604
 7046TIP3   OH245332   3.165   7.434   2.192 -0.1084  0.0316  0.0191
 7046TIP3    H145333   3.185   7.516   2.237  0.3289  0.0928 -0.2807
 7046TIP3    H245334   3.125   7.461   2.110  0.1745 -0.0451 -0.1479
 7047TIP3   OH245335   6.987   2.407   1.132 -0.4776 -0.3601  0.5587
 7047TIP3    H145336   7.047   2.396   1.058  1.2999 -0.3565  1.9183
 7047TIP3    H245337   6.901   2.384   1.097  0.7596 -3.8490 -0.6256
 7048TIP3   OH245338   1.428   3.608   0.592 -0.3825 -0.1297 -0.2108
 7048TIP3    H145339   1.359   3.572   0.536 -0.5808 -1.4518  0.8203
 7048TIP3    H245340   1.406   3.576   0.680  0.7428  0.6393  0.3769
 7049TIP3   OH245341   2.946   5.444   3.123 -0.6027 -0.2610  0.5647
 7049TIP3    H145342   2.868   5.499   3.112 -0.3309 -0.2513 -1.8864
 7049TIP3    H245343   2.934   5.402   3.208 -2.6768  0.6797  0.7984
 7050TIP3   OH245344   0.828   2.965   1.604  0.0110  0.0063  0.1964
 7050TIP3    H145345   0.912   2.929   1.574 -0.6110 -4.1808  2.7981
 7050TIP3    H245346   0.849   3.012   1.685 -0.0956 -0.8131  0.7047
 7051TIP3   OH245347   6.983   0.928   3.049 -0.1811 -0.0414  0.2741
 7051TIP3    H145348   7.019   0.863   3.108  0.5224  0.5727  0.5363
 7051TIP3    H245349   7.057   0.986   3.029 -0.9136  1.0029  0.4957
 7052TIP3   OH245350   5.092   5.762   3.181 -0.1087 -0.4940  0.0323
 7052TIP3    H145351   5.185   5.785   3.185 -0.1785 -0.3553  1.8835
 7052TIP3    H245352   5.048   5.843   3.154  0.2043 -0.1531  0.5185
 7053TIP3   OH245353   4.297   6.309   1.833 -0.1413  0.2046 -0.6743
 7053TIP3    H145354   4.374   6.276   1.878 -0.4036 -1.0146 -1.0722
 7053TIP3    H245355   4.284   6.398   1.867 -0.1199 -0.5337  1.3485
 7054TIP3   OH245356   0.632   4.920   2.724  0.2298 -0.4379  0.3539
 7054TIP3    H145357   0.654   4.899   2.815  0.8545 -0.6072  0.1721
 7054TIP3    H245358   0.660   5.011   2.713 -0.1095 -0.3251  0.4101
 7055TIP3   OH245359   3.658   2.707   3.309  0.4000 -0.6529 -0.1952
 7055TIP3    H145360   3.658   2.751   3.394  0.2250 -1.4148  0.2126
 7055TIP3    H245361   3.615   2.768   3.250  0.4574 -0.1438  0.2840
 7056TIP3   OH245362   6.929   6.549   3.294  0.4307 -0.4131  0.5060
 7056TIP3    H145363   6.908   6.456   3.287 -2.8426  0.2380 -0.0069
 7056TIP3    H245364   6.875   6.591   3.227  1.8382  1.8875  0.6921
 7057TIP3   OH245365   3.912   5.747   1.272  0.7158  0.0654  0.0373
 7057TIP3    H145366   3.991   5.696   1.289  1.3463  1.0596  0.1833
 7057TIP3    H245367   3.911   5.815   1.339  1.0132  1.4982 -1.3371
 7058TIP3   OH245368   0.759   4.613   1.681  0.4174 -0.0266 -0.1407
 7058TIP3    H145369   0.669   4.581   1.680 -0.5678  2.5067 -0.7825
 7058TIP3    H245370   0.776   4.637   1.590  0.5766  2.3641  0.4506
 7059TIP3   OH245371   0.176   2.286   2.864  0.5143 -0.7791 -0.6584
 7059TIP3    H145372   0.091   2.309   2.826 -0.4265 -0.8786  1.2294
 7059TIP3    H245373   0.203   2.365   2.911  0.7767 -1.1856 -0.1125
 7060TIP3   OH245374   3.114   1.750   2.203  0.0095 -0.6202 -0.3422
 7060TIP3    H145375   3.034   1.761   2.255  0.0644 -2.0205  0.0888
 7060TIP3    H245376   3.112   1.658   2.176  1.7983 -0.8652  0.2291
 7061TIP3   OH245377   0.099   5.753   2.171  0.1371  0.4255  0.1269
 7061TIP3    H145378   0.016   5.721   2.208  0.2696 -0.1455 -0.0566
 7061TIP3    H245379   0.072   5.816   2.104 -0.1083  1.4541  1.1525
 7062TIP3   OH245380   3.906   4.271   1.837  0.0579  0.0075 -0.8247
 7062TIP3    H145381   3.985   4.282   1.785  2.5314  2.0905  2.9411
 7062TIP3    H245382   3.932   4.213   1.909 -1.7148  1.0489  0.7408
 7063TIP3   OH245383   2.897   0.022   2.242  0.0770  0.2479  0.3311
 7063TIP3    H145384   2.866   0.047   2.155  0.3736  0.3368  0.2473
 7063TIP3    H245385   2.992   0.030   2.236  0.2421 -1.5579  0.1027
 7064TIP3   OH245386   6.480   3.690   1.404 -0.3406 -0.4335  0.0765
 7064TIP3    H145387   6.392   3.675   1.439  0.0580 -1.6395  0.6391
 7064TIP3    H245388   6.512   3.768   1.450 -0.8011 -0.4852  0.4897
 7065TIP3   OH245389   0.620   3.752   2.757  0.0337  0.0284  0.2300
 7065TIP3    H145390   0.667   3.827   2.795 -0.3003 -0.3213  1.3522
 7065TIP3    H245391   0.636   3.760   2.663  0.7240  1.0208  0.4115
 7066TIP3   OH245392   5.914   0.825   1.777 -0.4258  0.4099 -0.1330
 7066TIP3    H145393   5.938   0.866   1.694 -0.4122  1.5523  0.4135
 7066TIP3    H245394   5.997   0.819   1.825 -0.5937  0.6660  0.1885
 7067TIP3   OH245395   5.712   2.777   0.794  0.1633  0.4861  0.1001
 7067TIP3    H145396   5.691   2.836   0.722 -0.8025  2.1172  1.6407
 7067TIP3    H245397   5.780   2.823   0.843  1.4779 -1.0178 -0.2331
 7068TIP3   OH245398   5.750   1.367   1.995  0.0169 -0.5154 -0.3187
 7068TIP3    H145399   5.802   1.358   1.915  1.3570 -0.9880  0.5733
 7068TIP3    H245400   5.812   1.350   2.066 -0.7751  1.3677  0.9044
 7069TIP3   OH245401   0.112   7.603   1.449 -0.0614 -0.2506  0.0760
 7069TIP3    H145402   0.152   7.580   1.533  2.3957 -0.2554 -0.9982
 7069TIP3    H245403   0.168   7.560   1.384  0.1696  2.4487 -1.6779
 7070TIP3   OH245404   2.167   0.790   1.078  0.5041  0.1591 -0.3297
 7070TIP3    H145405   2.155   0.851   1.150  0.4837  0.4958 -0.6146
 7070TIP3    H245406   2.198   0.844   1.006  2.1208 -0.4124 -0.1060
 7071TIP3   OH245407   1.443   1.522   1.504  0.4255  0.0372 -0.3415
 7071TIP3    H145408   1.414   1.557   1.420  2.1754 -1.4445 -1.6462
 7071TIP3    H245409   1.411   1.431   1.505 -1.1866  0.5583  1.4808
 7072TIP3   OH245410   2.772   0.837   1.341  0.0257 -0.1621  0.1398
 7072TIP3    H145411   2.792   0.771   1.407  0.1735  1.5423  1.8998
 7072TIP3    H245412   2.689   0.809   1.302 -0.3241 -0.9577  1.4245
 7073TIP3   OH245413   6.100   4.250   0.522 -0.0579 -0.5301  0.0904
 7073TIP3    H145414   6.127   4.260   0.431  1.0450 -0.4857  0.3978
 7073TIP3    H245415   6.175   4.284   0.572 -0.7737 -0.2671  1.0041
 7074TIP3   OH245416   3.464   0.600   1.043  0.3415  0.2850  0.0710
 7074TIP3    H145417   3.469   0.638   1.130  1.1277 -1.1397  0.6808
 7074TIP3    H245418   3.549   0.556   1.031  0.0616  0.0519 -1.2120
 7075TIP3   OH245419   7.256   5.470   1.665  0.2150 -0.0280  0.5563
 7075TIP3    H145420   7.178   5.525   1.673 -0.0381 -0.6109  2.6005
 7075TIP3    H245421   7.309   5.513   1.598 -1.5349  0.7605 -0.3921
 7076TIP3   OH245422   1.982   0.306   0.519  0.1159  0.0615 -0.2630
 7076TIP3    H145423   1.961   0.396   0.542 -0.2497 -0.3856  1.2886
 7076TIP3    H245424   1.897   0.268   0.494 -0.2530 -0.5737  1.7942
 7077TIP3   OH245425   2.698   2.257   0.510 -0.4850 -0.3660 -0.5725
 7077TIP3    H145426   2.747   2.338   0.523  0.5733 -0.9387 -0.8589
 7077TIP3    H245427   2.618   2.269   0.562  0.6063  0.0260  1.0971
 7078TIP3   OH245428   5.985   6.549   3.417 -0.3570  0.4830  0.7536
 7078TIP3    H145429   5.993   6.513   3.505 -0.2691  1.0873  0.9983
 7078TIP3    H245430   6.068   6.527   3.374 -1.7569 -3.1565 -0.4851
 7079TIP3   OH245431   2.255   2.480   0.943 -0.0497 -0.1840  0.1425
 7079TIP3    H145432   2.313   2.497   1.017  1.9198 -0.1484 -1.3280
 7079TIP3    H245433   2.262   2.386   0.929 -0.7981 -0.2678  0.2695
 7080TIP3   OH245434   1.113   7.378   2.927 -0.8140 -0.2711 -0.0821
 7080TIP3    H145435   1.122   7.457   2.980 -1.0642  0.1432 -0.6496
 7080TIP3    H245436   1.018   7.366   2.918 -0.8469  1.2213 -2.6851
 7081TIP3   OH245437   2.345   5.025   0.498  1.0619  0.1015 -0.5449
 7081TIP3    H145438   2.429   5.064   0.475  0.7485  0.4127 -1.2177
 7081TIP3    H245439   2.280   5.081   0.454  0.3229  1.4012  2.0041
 7082TIP3   OH245440   1.164   5.257   2.139 -0.5408  0.1686  0.3186
 7082TIP3    H145441   1.104   5.183   2.152 -1.7961  0.9664 -0.6555
 7082TIP3    H245442   1.157   5.307   2.221  0.6812 -0.9990  1.1774
 7083TIP3   OH245443   1.302   1.899   1.504 -0.4160  0.0819  0.0728
 7083TIP3    H145444   1.256   1.871   1.425 -1.3554 -1.1768  1.0129
 7083TIP3    H245445   1.232   1.927   1.563  0.2219  0.4502  0.6612
 7084TIP3   OH245446   0.289   1.662   2.202 -0.0658 -0.8018  0.5281
 7084TIP3    H145447   0.380   1.649   2.174  0.1798 -0.0761  0.9502
 7084TIP3    H245448   0.242   1.587   2.166  0.3017 -0.1542 -1.4586
 7085TIP3   OH245449   3.997   0.143   1.661 -0.2956  0.0269 -0.1739
 7085TIP3    H145450   4.078   0.184   1.691 -0.5065 -0.8803  1.7678
 7085TIP3    H245451   3.990   0.063   1.713 -2.3696  0.0018 -0.4101
 7086TIP3   OH245452   7.070   5.255   1.304  0.7158  0.1073  0.2835
 7086TIP3    H145453   7.088   5.174   1.353  3.4323 -0.2578 -1.0771
 7086TIP3    H245454   7.019   5.225   1.228  0.1472 -0.0102  0.7031
 7087TIP3   OH245455   3.122   5.766   1.268 -0.2376 -0.4074  0.3594
 7087TIP3    H145456   3.211   5.740   1.245  0.3640  1.8383 -0.1882
 7087TIP3    H245457   3.077   5.773   1.183 -0.3832  0.1669  0.4765
 7088TIP3   OH245458   4.653   4.010   2.481 -0.2574  0.3516 -0.1429
 7088TIP3    H145459   4.682   3.924   2.451 -0.3601  0.6353 -1.0830
 7088TIP3    H245460   4.575   3.992   2.534 -0.5341 -0.1081 -0.6900
 7089TIP3   OH245461   3.781   5.719   1.995 -0.5619  0.4812 -0.5251
 7089TIP3    H145462   3.819   5.755   2.075  0.1582 -0.0984 -0.6021
 7089TIP3    H245463   3.799   5.785   1.928  1.1218 -0.1642 -0.7541
 7090TIP3   OH245464   4.374   7.547   1.496  0.3522  0.6518  0.3784
 7090TIP3    H145465   4.381   7.573   1.404  0.3360  0.6250  0.3696
 7090TIP3    H245466   4.281   7.553   1.516  0.2075 -0.3755  0.0885
 7091TIP3   OH245467   7.407   5.294   0.905  0.0462 -0.6381  0.6235
 7091TIP3    H145468   7.323   5.337   0.918  0.0365 -0.0502 -1.1245
 7091TIP3    H245469   7.470   5.366   0.899  0.3370 -0.9602 -0.2663
 7092TIP3   OH245470   3.972   4.387   2.808  0.3853  0.3199  0.4500
 7092TIP3    H145471   4.062   4.356   2.813  0.2611 -0.1626 -0.1525
 7092TIP3    H245472   3.918   4.308   2.814  0.0174  0.5553  0.3343
 7093TIP3   OH245473   1.358   1.899   0.476 -0.3243 -0.3918 -0.2456
 7093TIP3    H145474   1.402   1.825   0.433 -0.1141 -0.4589  0.0785
 7093TIP3    H245475   1.341   1.868   0.565 -0.2656 -0.0585 -0.1177
 7094TIP3   OH245476   6.700   6.108   1.563  0.0804  0.3994 -0.5926
 7094TIP3    H145477   6.757   6.112   1.640  0.1337  0.7280 -0.6495
 7094TIP3    H245478   6.727   6.182   1.510  0.2209  0.0222 -1.0528
 7095TIP3   OH245479   6.320   1.741   2.633  0.4900 -0.2564 -1.1074
 7095TIP3    H145480   6.384   1.806   2.660 -0.7498  0.6817 -0.2941
 7095TIP3    H245481   6.352   1.659   2.670 -0.5125  0.7562  2.4825
 7096TIP3   OH245482   4.008   1.276   2.818  0.3287 -0.5737  0.0150
 7096TIP3    H145483   4.078   1.229   2.864  0.8500 -0.8508 -1.0294
 7096TIP3    H245484   3.946   1.208   2.792  1.6479 -0.9388 -2.5120
 7097TIP3   OH245485   4.163   2.498   2.257  0.2176 -0.1651 -0.3152
 7097TIP3    H145486   4.116   2.580   2.244  0.0510 -0.1262  0.4783
 7097TIP3    H245487   4.255   2.520   2.242  0.1141  0.0271 -0.6868
 7098TIP3   OH245488   5.766   0.355   2.117  0.0540  0.2658  0.7063
 7098TIP3    H145489   5.836   0.352   2.051 -1.7107 -3.0064 -1.3008
 7098TIP3    H245490   5.787   0.286   2.179 -1.1662 -0.5808  0.2283
 7099TIP3   OH245491   1.485   4.626   1.894 -0.4025  0.8742 -0.6028
 7099TIP3    H145492   1.557   4.636   1.833  0.3382 -1.3183 -0.1842
 7099TIP3    H245493   1.434   4.707   1.886  1.7843  2.2474 -1.2884
 7100TIP3   OH245494   0.125   6.820   0.835  0.2008 -0.1540  0.0369
 7100TIP3    H145495   0.199   6.763   0.857  1.9038  1.2233 -1.7140
 7100TIP3    H245496   0.161   6.909   0.844 -1.9084  0.6422  1.1889
 7101TIP3   OH245497   0.804   6.845   3.028 -0.1949 -0.2615 -0.2935
 7101TIP3    H145498   0.841   6.775   3.082 -0.8608 -1.2210 -1.0487
 7101TIP3    H245499   0.769   6.800   2.951  1.5928  1.1482 -2.0464
 7102TIP3   OH245500   1.253   4.561   2.123 -0.3546 -0.4375  0.0127
 7102TIP3    H145501   1.242   4.467   2.109  0.5435 -0.5226 -0.1871
 7102TIP3    H245502   1.304   4.568   2.203 -0.1638 -0.1275 -0.1329
 7103TIP3   OH245503   7.352   2.556   1.034  0.0537 -0.0290  0.1473
 7103TIP3    H145504   7.420   2.620   1.053 -0.5125  0.5051  0.4408
 7103TIP3    H245505   7.393   2.471   1.050  0.2247  0.3311  1.7782
 7104TIP3   OH245506   4.904   2.041   2.722  0.3198  0.2742  0.2977
 7104TIP3    H145507   4.860   2.078   2.646  0.8010  1.5964  0.6414
 7104TIP3    H245508   4.895   1.946   2.711  0.1823  0.4438 -1.2779
 7105TIP3   OH245509   4.029   5.086   0.792  0.1681 -0.5046 -0.5132
 7105TIP3    H145510   4.062   5.026   0.858  0.8390 -0.1747 -0.5372
 7105TIP3    H245511   3.935   5.090   0.808  0.4967  0.8080  1.4826
 7106TIP3   OH245512   7.538   7.482   3.186  0.3480  0.0517 -0.0882
 7106TIP3    H145513   7.562   7.457   3.097 -0.0542  0.1458 -0.2269
 7106TIP3    H245514   7.451   7.521   3.177  0.6180  0.7451  0.2368
 7107TIP3   OH245515   0.985   6.697   0.597 -0.7239  0.2470 -0.1520
 7107TIP3    H145516   0.940   6.740   0.524  0.1053  2.3575  0.5284
 7107TIP3    H245517   1.030   6.767   0.643  1.5684 -1.4950  0.4457
 7108TIP3   OH245518   4.989   3.582   1.570  0.2620 -1.0156  0.2831
 7108TIP3    H145519   4.957   3.591   1.480  1.9387 -0.0995 -0.2752
 7108TIP3    H245520   4.986   3.488   1.588 -1.5903 -1.0634 -0.1269
 7109TIP3   OH245521   0.220   5.995   3.323  0.2401  0.5604 -0.4810
 7109TIP3    H145522   0.247   5.956   3.406 -0.6073  1.5807  0.3043
 7109TIP3    H245523   0.190   5.921   3.271 -0.0634 -0.0076  0.4697
 7110TIP3   OH245524   2.054   4.134   1.464 -0.3769 -0.0847  0.2298
 7110TIP3    H145525   2.100   4.167   1.541  1.7383 -2.8621  0.3218
 7110TIP3    H245526   1.983   4.080   1.499 -1.0896  0.7775  0.1481
 7111TIP3   OH245527   6.954   2.345   2.976 -0.2476 -0.8006  0.2532
 7111TIP3    H145528   6.962   2.314   2.885  0.2017  1.2007 -0.4496
 7111TIP3    H245529   7.039   2.384   2.996 -1.1853  1.2602  0.5023
 7112TIP3   OH245530   3.279   1.348   1.959 -0.0557  0.0735  1.1574
 7112TIP3    H145531   3.355   1.302   1.924 -2.0605 -2.8295  0.2032
 7112TIP3    H245532   3.252   1.406   1.887 -1.1222 -2.0333 -0.2384
 7113TIP3   OH245533   3.899   3.578   2.692 -0.0753  0.1875 -0.2492
 7113TIP3    H145534   3.858   3.662   2.672  2.9633  1.4802 -1.5040
 7113TIP3    H245535   3.923   3.584   2.784  0.4082  0.8559 -0.4102
 7114TIP3   OH245536   0.514   4.065   1.026  0.2136  0.1872  0.6165
 7114TIP3    H145537   0.567   4.093   1.101 -1.9766 -0.5831  2.6023
 7114TIP3    H245538   0.540   3.974   1.011  0.8119  0.4105  0.3048
 7115TIP3   OH245539   6.740   3.357   2.030  0.5486  0.5841 -0.2030
 7115TIP3    H145540   6.668   3.331   2.088 -0.6382  0.6408 -1.5957
 7115TIP3    H245541   6.729   3.452   2.020  2.8785  1.2374  2.2180
 7116TIP3   OH245542   0.986   5.553   2.863 -0.0491  0.0958  0.2447
 7116TIP3    H145543   0.904   5.593   2.890  0.2027  0.8949 -0.1419
 7116TIP3    H245544   0.981   5.463   2.896 -0.3342  0.6236  1.7348
 7117TIP3   OH245545   1.530   1.149   0.725  0.1778  0.0854  0.1316
 7117TIP3    H145546   1.479   1.165   0.805  0.9935 -3.2679  1.5168
 7117TIP3    H245547   1.620   1.143   0.755  0.4697 -1.5420 -0.9163
 7118TIP3   OH245548   6.685   6.701   1.099  0.0817 -0.0390  0.0728
 7118TIP3    H145549   6.720   6.682   1.186  2.0758  1.0841 -0.4410
 7118TIP3    H245550   6.620   6.770   1.114 -0.7265 -0.9275  0.8190
 7119TIP3   OH245551   2.760   1.168   2.867 -0.2892 -0.3317 -0.0008
 7119TIP3    H145552   2.779   1.129   2.952  1.2468  0.1677 -0.0746
 7119TIP3    H245553   2.802   1.109   2.804 -3.4042 -2.0182 -0.6839
 7120TIP3   OH245554   5.271   5.152   2.664  0.3317 -0.1319  0.3698
 7120TIP3    H145555   5.337   5.163   2.733 -0.2721 -0.2360  0.9771
 7120TIP3    H245556   5.320   5.120   2.588  0.9771 -0.2179  0.8162
 7121TIP3   OH245557   5.097   4.675   2.230 -0.7450 -0.3030 -0.1064
 7121TIP3    H145558   5.178   4.715   2.200 -0.6693 -0.0637  0.4013
 7121TIP3    H245559   5.093   4.591   2.185 -0.8969  0.2638 -1.1670
 7122TIP3   OH245560   5.998   5.949   2.050  0.3393  0.3568 -0.2259
 7122TIP3    H145561   6.074   5.951   1.991 -1.2459 -3.1565 -2.7964
 7122TIP3    H245562   5.946   6.025   2.025  0.8073  0.1805 -1.8886
 7123TIP3   OH245563   1.021   5.899   0.483  0.3739  0.3955 -0.0280
 7123TIP3    H145564   0.927   5.898   0.464  0.3947 -0.0386 -0.1310
 7123TIP3    H245565   1.048   5.990   0.469  0.1568  0.3310 -0.9296
 7124TIP3   OH245566   5.715   5.922   2.451 -0.2003 -0.4398 -0.0955
 7124TIP3    H145567   5.722   5.924   2.355 -1.4991  2.7033 -0.2487
 7124TIP3    H245568   5.769   5.994   2.481 -1.5466  0.0315  1.3538
 7125TIP3   OH245569   7.673   3.266   3.214  0.5492  0.2676  0.0243
 7125TIP3    H145570   7.618   3.342   3.197 -0.4284 -0.8449 -2.2274
 7125TIP3    H245571   7.757   3.287   3.172  0.6239  0.4868  0.2789
 7126TIP3   OH245572   1.776   0.680   1.212 -0.4731 -0.0539  0.0202
 7126TIP3    H145573   1.762   0.762   1.259  0.0199  0.1178 -0.1334
 7126TIP3    H245574   1.828   0.704   1.136 -0.8029 -0.4223 -0.3224
 7127TIP3   OH245575   1.185   3.370   2.467 -0.1557  0.0812 -0.2727
 7127TIP3    H145576   1.105   3.349   2.515 -0.3855  0.3176 -0.5451
 7127TIP3    H245577   1.218   3.286   2.436  0.5796 -0.1891  1.2051
 7128TIP3   OH245578   5.719   2.990   1.923 -0.4953 -0.5327 -0.2045
 7128TIP3    H145579   5.768   3.003   1.842 -1.1461 -0.9554 -0.6701
 7128TIP3    H245580   5.752   2.906   1.957  0.1740 -0.0933  0.2679
 7129TIP3   OH245581   0.006   0.170   3.320  0.1265  0.0335  0.0994
 7129TIP3    H145582   0.064   0.230   3.366 -0.0595  0.6074 -0.4067
 7129TIP3    H245583   0.013   0.195   3.228 -0.5757 -0.1887 -0.0208
 7130TIP3   OH245584   4.119   4.900   1.615 -0.3571  0.3253 -0.0290
 7130TIP3    H145585   4.045   4.914   1.674 -0.3832  1.9236 -0.3933
 7130TIP3    H245586   4.168   4.982   1.618  2.6748 -1.4049  1.8575
 7131TIP3   OH245587   0.316   1.052   2.860 -0.1868  0.4386  0.1031
 7131TIP3    H145588   0.399   1.061   2.907 -0.0768 -0.5244  0.1144
 7131TIP3    H245589   0.266   0.989   2.911 -0.9205  0.9802  0.0710
 7132TIP3   OH245590   1.421   5.931   2.383  0.4834  0.0805 -0.3596
 7132TIP3    H145591   1.353   5.998   2.385  1.1487  0.7925 -1.0853
 7132TIP3    H245592   1.374   5.849   2.399 -0.6700  0.4589 -1.6416
 7133TIP3   OH245593   2.875   3.638   2.233 -0.2313 -0.6042 -0.2707
 7133TIP3    H145594   2.810   3.568   2.240 -0.2257 -0.8254 -1.8762
 7133TIP3    H245595   2.882   3.654   2.138  0.7457  0.6490 -0.0131
 7134TIP3   OH245596   0.640   2.134   3.804 -0.6272  0.4666  0.3912
 7134TIP3    H145597   0.652   2.205   3.740  0.0604  0.2657  0.2939
 7134TIP3    H245598   0.564   2.086   3.771 -2.2741  2.2059  1.4315
 7135TIP3   OH245599   3.688   5.839   2.941  0.0495 -0.4230 -0.1746
 7135TIP3    H145600   3.731   5.914   2.984  1.5741 -1.3979  0.0760
 7135TIP3    H245601   3.745   5.818   2.867  0.2723 -2.0415  0.4260
 7136TIP3   OH245602   5.806   1.189   2.409 -0.6235 -0.0340  0.5773
 7136TIP3    H145603   5.894   1.163   2.438 -0.8275 -1.8246 -0.2557
 7136TIP3    H245604   5.748   1.163   2.480 -0.3723  2.9632  2.0382
 7137TIP3   OH245605   6.242   6.090   2.512  0.1697 -0.0708  0.0085
 7137TIP3    H145606   6.319   6.053   2.471  0.9616  0.8082  0.6475
 7137TIP3    H245607   6.169   6.061   2.458  0.8817 -1.3675 -0.2979
 7138TIP3   OH245608   5.777   0.015   2.549  0.1170  0.3979 -0.1097
 7138TIP3    H145609   5.866  -0.016   2.535  0.2610  0.7212  0.0696
 7138TIP3    H245610   5.782   0.068   2.628 -0.2932  0.1859  0.0642
 7139TIP3   OH245611   6.117   1.461   2.332  0.6165 -0.6158  0.0365
 7139TIP3    H145612   6.167   1.401   2.386  2.3453 -0.1341 -0.9708
 7139TIP3    H245613   6.145   1.548   2.360 -0.5216 -0.2948  0.2325
 7140TIP3   OH245614   0.592   2.207   1.986  0.3036  0.0488  0.7235
 7140TIP3    H145615   0.609   2.162   1.903  2.3441  0.3393  0.9211
 7140TIP3    H245616   0.552   2.291   1.960  0.8551  0.1086  0.0224
 7141TIP3   OH245617   5.612   1.217   0.694  0.1485 -0.6949 -0.3785
 7141TIP3    H145618   5.533   1.187   0.738 -0.4615  0.0757 -0.9253
 7141TIP3    H245619   5.656   1.137   0.667 -0.8248 -1.1224 -0.7276
 7142TIP3   OH245620   2.679   1.836   0.744  0.6364 -0.0386 -0.2852
 7142TIP3    H145621   2.592   1.870   0.764  0.6628 -1.6549  3.3684
 7142TIP3    H245622   2.664   1.763   0.684 -0.2113  1.1727 -1.5921
 7143TIP3   OH245623   7.314   2.302   1.522 -0.1530  0.5228  0.0221
 7143TIP3    H145624   7.289   2.221   1.568  0.0507  1.1949  1.3565
 7143TIP3    H245625   7.240   2.361   1.538 -0.9361  0.2047 -2.0894
 7144TIP3   OH245626   0.038   0.234   1.212  0.0887 -0.2168 -0.3790
 7144TIP3    H145627   0.093   0.310   1.228  2.0783 -1.5425 -0.5433
 7144TIP3    H245628   0.019   0.200   1.300  1.6304 -1.1274 -0.3613
 7145TIP3   OH245629   6.436   3.202   1.759 -0.7903  0.3811  0.2455
 7145TIP3    H145630   6.448   3.244   1.845 -1.0059  1.9610 -0.4645
 7145TIP3    H245631   6.492   3.253   1.700  2.2166 -2.8394 -0.0004
 7146TIP3   OH245632   2.352   5.626   1.857  0.0734  0.1699 -0.3560
 7146TIP3    H145633   2.440   5.607   1.889  0.3813 -2.1959 -2.3412
 7146TIP3    H245634   2.294   5.589   1.924  0.5807  0.9910  0.5533
 7147TIP3   OH245635   7.270   7.313   1.405  0.2110  0.2966  0.6601
 7147TIP3    H145636   7.299   7.243   1.464 -0.1944  1.0576  1.7859
 7147TIP3    H245637   7.352   7.350   1.371  0.4314 -0.6894  0.0700
 7148TIP3   OH245638   5.692   4.710   2.692 -0.3796 -0.3195  0.3354
 7148TIP3    H145639   5.623   4.644   2.684 -1.3932  0.6620  0.6890
 7148TIP3    H245640   5.670   4.758   2.772  1.4701 -0.8079  1.2123
 7149TIP3   OH245641   2.905   6.554   3.027  0.3554  0.4001 -0.2820
 7149TIP3    H145642   2.873   6.468   3.057 -1.0487  1.2446  0.7603
 7149TIP3    H245643   2.874   6.561   2.937 -1.2345  0.5769  0.2388
 7150TIP3   OH245644   4.722   4.187   0.997 -0.0138 -0.1408 -0.0095
 7150TIP3    H145645   4.801   4.213   0.950 -1.5775  0.4103 -2.5046
 7150TIP3    H245646   4.714   4.093   0.981 -0.1707 -0.0869 -0.2484
 7151TIP3   OH245647   2.636   0.742   2.543 -0.5354  0.0056  0.4810
 7151TIP3    H145648   2.633   0.761   2.637 -1.7589  2.2700  0.0633
 7151TIP3    H245649   2.549   0.766   2.511 -0.0783 -0.5278 -1.2656
 7152TIP3   OH245650   1.046   3.078   2.274 -0.1778  0.2300 -0.2332
 7152TIP3    H145651   1.141   3.090   2.284 -0.1227  0.0279 -0.4734
 7152TIP3    H245652   1.017   3.156   2.228  0.0857 -0.2772 -1.2978
 7153TIP3   OH245653   0.844   6.094   2.932 -0.1804  0.1654 -0.4502
 7153TIP3    H145654   0.908   6.096   3.004 -1.5019  0.0599  0.7591
 7153TIP3    H245655   0.821   6.186   2.918 -2.0030  0.0266  1.2232
 7154TIP3   OH245656   0.505   6.799   1.073 -0.0752  0.5802 -0.2741
 7154TIP3    H145657   0.490   6.733   1.140 -1.3460  0.5336 -0.5812
 7154TIP3    H245658   0.575   6.855   1.108 -1.2228  1.0131  1.4161
 7155TIP3   OH245659   0.874   2.876   2.184 -0.6086  0.3219 -0.3127
 7155TIP3    H145660   0.940   2.942   2.204 -0.0651 -0.7688  1.8101
 7155TIP3    H245661   0.925   2.800   2.155 -0.9280 -0.3758  0.8902
 7156TIP3   OH245662   0.826   4.273   0.710  0.7886 -0.2574  0.0575
 7156TIP3    H145663   0.734   4.269   0.738  1.0204  0.9847  1.1060
 7156TIP3    H245664   0.823   4.258   0.615 -0.2577 -2.4020  0.3761
 7157TIP3   OH245665   2.440   7.284   1.254  0.2821  0.3303 -0.3158
 7157TIP3    H145666   2.485   7.364   1.281  1.1707 -0.2178 -0.1706
 7157TIP3    H245667   2.362   7.280   1.310  0.5633  0.7629  0.1062
 7158TIP3   OH245668   1.966   0.191   1.625 -0.4250  0.5809  0.2777
 7158TIP3    H145669   2.024   0.211   1.551  0.5352  0.6395  1.0253
 7158TIP3    H245670   1.898   0.258   1.621  1.0735  2.2069  0.9658
 7159TIP3   OH245671   7.671   4.742   0.838 -0.4284 -0.2140 -0.0463
 7159TIP3    H145672   7.582   4.709   0.838  0.2787 -2.2788 -0.7947
 7159TIP3    H245673   7.679   4.789   0.754 -0.3336 -1.5167 -0.7921
 7160TIP3   OH245674   3.469   1.781   0.846 -0.2113  0.0676 -0.1569
 7160TIP3    H145675   3.525   1.753   0.774  0.5430 -0.3925  0.5910
 7160TIP3    H245676   3.526   1.834   0.902 -0.3380 -0.9060  0.9345
 7161TIP3   OH245677   6.188   2.245   1.791  0.1137  0.5022  0.2733
 7161TIP3    H145678   6.233   2.297   1.858  1.2926 -1.8060  1.4183
 7161TIP3    H245679   6.106   2.219   1.832  0.5662 -0.4062  0.6438
 7162TIP3   OH245680   0.615   6.536   0.620  0.3103 -0.2044  0.3774
 7162TIP3    H145681   0.582   6.452   0.650  1.0696 -0.7105 -0.1808
 7162TIP3    H245682   0.542   6.573   0.569 -0.8694  0.5338  2.4960
 7163TIP3   OH245683   5.570   4.008   3.226  0.5186 -0.0628  0.0935
 7163TIP3    H145684   5.588   3.927   3.180  0.3481  0.9642 -1.8662
 7163TIP3    H245685   5.484   4.036   3.195  1.1007  1.4812 -0.2331
 7164TIP3   OH245686   4.956   6.896   2.111 -0.0997  0.0460  0.0662
 7164TIP3    H145687   4.954   6.862   2.201 -1.1478  0.8780  0.3819
 7164TIP3    H245688   5.035   6.858   2.073  0.4025 -0.2745  1.3601
 7165TIP3   OH245689   5.322   4.559   0.933 -0.1588 -0.4194  0.1540
 7165TIP3    H145690   5.295   4.648   0.956  2.4262  0.2439  0.9507
 7165TIP3    H245691   5.357   4.567   0.844 -0.5354 -0.7905 -0.0306
 7166TIP3   OH245692   2.635   4.146   3.011  0.4144  0.3698  0.5298
 7166TIP3    H145693   2.572   4.145   2.939  0.9408 -0.4719  0.0564
 7166TIP3    H245694   2.709   4.196   2.977  0.2360  0.8702  0.8746
 7167TIP3   OH245695   3.991   4.052   0.579 -0.7590 -0.1781 -0.1337
 7167TIP3    H145696   3.923   4.014   0.634  0.2126 -2.0423 -0.1458
 7167TIP3    H245697   4.068   3.997   0.594  0.5223  1.3531 -0.7661
 7168TIP3   OH245698   2.877   7.421   1.772  0.1394  0.0714  0.1817
 7168TIP3    H145699   2.896   7.327   1.770 -0.0685  0.0118  0.7530
 7168TIP3    H245700   2.896   7.451   1.684  0.0085 -0.5519 -0.0664
 7169TIP3   OH245701   2.803   1.027   2.476  0.0870 -0.2701  0.2839
 7169TIP3    H145702   2.769   0.987   2.395 -0.5935 -1.6535  1.2041
 7169TIP3    H245703   2.742   1.098   2.495  0.0203 -0.1908 -0.2082
 7170TIP3   OH245704   1.808   6.127   1.387  0.2683  0.0933 -0.7032
 7170TIP3    H145705   1.857   6.163   1.461 -0.0280 -1.9752  0.6113
 7170TIP3    H245706   1.716   6.132   1.415  0.2202 -1.6840 -0.3803
 7171TIP3   OH245707   5.598   4.882   1.304  0.7191  0.4832 -0.1775
 7171TIP3    H145708   5.568   4.841   1.223 -1.4576  0.3716  0.6191
 7171TIP3    H245709   5.570   4.822   1.373 -0.8572  2.3103  0.8826
 7172TIP3   OH245710   7.363   6.424   1.669 -0.2570  0.0377  0.0322
 7172TIP3    H145711   7.327   6.345   1.630  0.0655  0.1923 -0.6156
 7172TIP3    H245712   7.437   6.394   1.721 -0.5639 -0.1550  0.3573
 7173TIP3   OH245713   7.095   7.226   2.909 -0.3581  0.2423 -0.2053
 7173TIP3    H145714   7.117   7.297   2.970  1.0574 -0.3814  0.0454
 7173TIP3    H245715   7.030   7.174   2.955  0.4370 -0.0170  0.6498
 7174TIP3   OH245716   3.093   6.458   1.684 -0.5653 -0.3441  0.4108
 7174TIP3    H145717   3.016   6.403   1.676 -1.1281  0.2276  1.6729
 7174TIP3    H245718   3.066   6.529   1.742  0.8309 -0.0034  0.6784
 7175TIP3   OH245719   4.456   4.516   2.261  0.2350  0.2283 -0.0696
 7175TIP3    H145720   4.439   4.476   2.346  4.5156  1.1911  1.5076
 7175TIP3    H245721   4.426   4.607   2.271 -0.4751  0.0116 -0.1320
 7176TIP3   OH245722   2.487   5.135   1.354  0.0545 -0.2294  0.1656
 7176TIP3    H145723   2.517   5.224   1.339  0.0655 -0.2722 -0.0684
 7176TIP3    H245724   2.392   5.144   1.369 -0.4274 -0.4280 -2.3588
 7177TIP3   OH245725   0.538   5.935   1.895 -0.0313 -0.2844  0.3557
 7177TIP3    H145726   0.629   5.910   1.908 -0.0615 -0.3898  0.3612
 7177TIP3    H245727   0.490   5.853   1.888  0.0087 -0.2468 -0.5892
 7178TIP3   OH245728   4.025   3.460   0.996 -0.1649 -0.3846  0.0495
 7178TIP3    H145729   4.102   3.517   1.005  0.4966 -1.2153 -0.2298
 7178TIP3    H245730   4.021   3.412   1.079 -0.2031 -0.5603 -0.0535
 7179TIP3   OH245731   2.671   5.306   2.705 -0.7609  0.8543  0.2744
 7179TIP3    H145732   2.705   5.239   2.764  1.4895  1.4452 -0.2632
 7179TIP3    H245733   2.687   5.388   2.751  0.4393  1.2748 -0.8469
 7180TIP3   OH245734   7.391   4.514   2.055  0.0702 -0.0155  0.0760
 7180TIP3    H145735   7.454   4.486   2.122  1.9278  1.0963 -1.1230
 7180TIP3    H245736   7.445   4.538   1.980 -1.3042  5.1164  0.3317
 7181TIP3   OH245737   3.463   1.538   0.978  0.2303  0.3659  0.1154
 7181TIP3    H145738   3.461   1.631   0.958 -1.6592  0.1248 -1.0692
 7181TIP3    H245739   3.449   1.533   1.073  2.2951  1.3083  0.5060
 7182TIP3   OH245740   2.940   6.235   1.589 -0.2907 -0.2212  0.2014
 7182TIP3    H145741   2.892   6.190   1.658 -2.1604 -0.0563 -0.9436
 7182TIP3    H245742   3.006   6.171   1.561 -0.5756 -0.8910  1.0038
 7183TIP3   OH245743   6.716   6.892   1.731  0.2347  0.1725 -0.3659
 7183TIP3    H145744   6.807   6.867   1.739  0.3571  0.9655  1.5490
 7183TIP3    H245745   6.667   6.810   1.732  0.8531 -0.1955  0.5116
 7184TIP3   OH245746   4.918   2.897   1.267 -0.6440  0.4812  0.4090
 7184TIP3    H145747   4.915   2.987   1.234 -1.1931  0.3023 -0.0435
 7184TIP3    H245748   4.982   2.900   1.338  1.8289  0.5051 -1.6787
 7185TIP3   OH245749   0.163   3.806   1.150  0.3732 -0.1842  0.3149
 7185TIP3    H145750   0.168   3.830   1.057  2.3889 -2.6331 -0.3325
 7185TIP3    H245751   0.246   3.837   1.187 -1.0539  2.2005  1.8067
 7186TIP3   OH245752   3.595   3.191   1.192  0.9418 -0.3984 -0.1628
 7186TIP3    H145753   3.684   3.191   1.156  0.1428  1.2200 -2.3616
 7186TIP3    H245754   3.543   3.145   1.126 -0.1806  0.4008  0.1387
 7187TIP3   OH245755   2.093   2.608   2.633  0.0385  0.7425 -0.3952
 7187TIP3    H145756   2.181   2.577   2.610 -0.2478 -0.7714  0.4576
 7187TIP3    H245757   2.104   2.651   2.718 -0.1060  0.2512 -0.1280
 7188TIP3   OH245758   2.996   7.277   0.838  0.1435 -1.0831 -0.0466
 7188TIP3    H145759   2.974   7.282   0.745  1.4712  0.1509 -0.3333
 7188TIP3    H245760   2.997   7.183   0.857 -0.7883 -1.3257 -1.1075
 7189TIP3   OH245761   1.011   4.723   2.062  0.5526  0.4515  0.0172
 7189TIP3    H145762   1.059   4.660   2.117 -0.2821  0.1985  0.4670
 7189TIP3    H245763   0.964   4.668   2.000  0.0788  0.6484  0.2024
 7190TIP3   OH245764   2.069   2.228   3.282 -0.5249  0.4685  0.0839
 7190TIP3    H145765   1.993   2.172   3.265 -0.4816 -0.2159  1.8706
 7190TIP3    H245766   2.141   2.167   3.297  0.7848  1.0999 -2.8430
 7191TIP3   OH245767   1.157   1.483   1.070  0.3414 -0.0555  0.3401
 7191TIP3    H145768   1.144   1.433   0.989 -0.5362 -2.6065  1.9214
 7191TIP3    H245769   1.132   1.572   1.048 -0.1542 -0.7245 -2.1094
 7192TIP3   OH245770   3.409   6.137   0.965  0.1356  0.3348  0.0246
 7192TIP3    H145771   3.494   6.172   0.993 -0.1006  1.0532 -0.1191
 7192TIP3    H245772   3.372   6.097   1.044  0.5208  0.1926  0.1338
 7193TIP3   OH245773   1.854   7.423   1.715 -0.3053 -0.1792  0.0625
 7193TIP3    H145774   1.938   7.377   1.721 -0.4723 -0.5426 -0.3440
 7193TIP3    H245775   1.790   7.360   1.748 -0.3685  0.2689  0.8304
 7194TIP3   OH245776   7.045   1.671   0.674 -0.0331  0.1116  0.0269
 7194TIP3    H145777   7.002   1.706   0.596 -0.6087  0.0605  0.3162
 7194TIP3    H245778   7.028   1.737   0.742  1.9179  0.9965 -0.2907
 7195TIP3   OH245779   3.752   4.905   0.954  0.0522 -0.1319  0.4276
 7195TIP3    H145780   3.751   4.832   1.016 -0.3876  0.0334  0.6204
 7195TIP3    H245781   3.660   4.932   0.947  0.1101 -0.0889 -0.2256
 7196TIP3   OH245782   1.508   0.607   1.597  0.2593  0.3042 -0.1417
 7196TIP3    H145783   1.550   0.601   1.683 -2.8548 -1.0585  1.4616
 7196TIP3    H245784   1.529   0.525   1.553  0.0008 -0.0038  0.3029
 7197TIP3   OH245785   6.544   4.987   0.981 -0.2245 -0.3287  0.2680
 7197TIP3    H145786   6.467   5.041   0.966  1.6696  2.1738 -1.4381
 7197TIP3    H245787   6.516   4.898   0.959 -2.7529  0.3622  0.4039
 7198TIP3   OH245788   7.168   3.035   1.043  0.0636 -0.4572 -0.4401
 7198TIP3    H145789   7.133   2.981   0.973  1.9669 -0.2864 -1.6018
 7198TIP3    H245790   7.169   3.124   1.008  0.0894 -0.2055  0.1844
 7199TIP3   OH245791   5.902   0.962   1.072 -0.1293 -0.0296  0.8700
 7199TIP3    H145792   5.812   0.988   1.090 -0.1206  0.4991  0.1860
 7199TIP3    H245793   5.898   0.919   0.987  0.3893  0.7027  0.4691
 7200TIP3   OH245794   1.931   5.293   0.587  0.5598  0.2404 -0.1466
 7200TIP3    H145795   1.858   5.231   0.591  1.8030 -1.2024  1.4226
 7200TIP3    H245796   1.895   5.375   0.621 -0.2167 -0.5717  1.0617
 7201TIP3   OH245797   2.488   1.304   0.854  0.1837 -0.1806  0.0996
 7201TIP3    H145798   2.489   1.255   0.936 -0.6151 -1.6636 -0.7321
 7201TIP3    H245799   2.554   1.372   0.865  0.0341 -0.3063  1.9927
 7202TIP3   OH245800   0.497   7.002   3.586  0.0419  1.3501 -0.6178
 7202TIP3    H145801   0.409   7.031   3.608 -1.0470 -1.2130 -1.1754
 7202TIP3    H245802   0.536   6.978   3.670  0.2653  2.5245 -0.3657
 7203TIP3   OH245803   4.942   5.934   1.757  0.2820 -0.3026  0.5645
 7203TIP3    H145804   4.876   6.002   1.774  1.1521  0.7230 -0.0612
 7203TIP3    H245805   4.891   5.854   1.747 -0.9635  0.6053 -0.6901
 7204TIP3   OH245806   4.947   3.841   1.145  0.4211  0.1990 -0.3309
 7204TIP3    H145807   4.988   3.907   1.089 -0.4860  0.7960 -0.3156
 7204TIP3    H245808   4.953   3.877   1.233  0.2422  0.0980 -0.2773
 7205TIP3   OH245809   1.152   5.954   2.194  0.1833 -0.0206  0.0428
 7205TIP3    H145810   1.151   6.032   2.249 -0.5763 -0.6137  0.9019
 7205TIP3    H245811   1.106   5.979   2.114 -3.0419 -0.4653  1.6196
 7206TIP3   OH245812   6.685   6.859   2.159 -0.4033 -0.1403  0.1592
 7206TIP3    H145813   6.771   6.893   2.137  0.5646  0.2571  3.9186
 7206TIP3    H245814   6.626   6.935   2.149 -0.6427 -0.6597 -3.3876
 7207TIP3   OH245815   5.166   4.839   0.861  0.1946  0.0051 -0.2888
 7207TIP3    H145816   5.097   4.776   0.840 -0.6529  0.0313  2.0559
 7207TIP3    H245817   5.119   4.921   0.876  0.7645  0.1415  0.8476
 7208TIP3   OH245818   3.396   6.370   0.693  0.5534 -0.6302 -0.8536
 7208TIP3    H145819   3.462   6.310   0.658  0.1887 -1.7365  0.2702
 7208TIP3    H245820   3.439   6.412   0.768 -0.1037 -1.6510  0.1301
 7209TIP3   OH245821   3.448   0.528   1.620 -0.0148  0.3127  0.0417
 7209TIP3    H145822   3.374   0.470   1.601 -0.2220 -0.3278  2.4455
 7209TIP3    H245823   3.478   0.500   1.706  3.4520  0.1877 -1.0710
 7210TIP3   OH245824   6.472   3.582   1.777 -0.0296 -0.1032  0.0542
 7210TIP3    H145825   6.541   3.565   1.713 -1.2718  0.1282 -1.3836
 7210TIP3    H245826   6.482   3.675   1.799  1.3107 -0.5082  1.3630
 7211TIP3   OH245827   7.396   4.439   1.056 -0.2449 -0.2506  0.1290
 7211TIP3    H145828   7.411   4.344   1.058  0.0755 -0.1940  2.1488
 7211TIP3    H245829   7.408   4.462   0.964 -0.4254 -2.1769 -0.4346
 7212TIP3   OH245830   3.161   2.221   2.603 -0.1729  0.4849  0.2516
 7212TIP3    H145831   3.137   2.314   2.605 -1.7452  0.1026  0.9995
 7212TIP3    H245832   3.129   2.190   2.518  0.3802  0.6215 -0.0116
 7213TIP3   OH245833   3.248   4.937   0.743 -0.3640  0.5123 -0.3861
 7213TIP3    H145834   3.289   5.023   0.741 -0.2104  0.4567  0.1094
 7213TIP3    H245835   3.160   4.951   0.709 -0.0778  0.7137 -1.0479
 7214TIP3   OH245836   2.199   2.719   2.873 -0.2666 -0.1975 -0.8367
 7214TIP3    H145837   2.166   2.775   2.943  0.5095 -0.4175 -0.2709
 7214TIP3    H245838   2.295   2.725   2.881 -0.1709 -0.5279 -1.6362
 7215TIP3   OH245839   2.665   7.023   2.084  0.1648  0.0030  0.2233
 7215TIP3    H145840   2.736   7.027   2.148 -0.2428 -0.2006  0.7042
 7215TIP3    H245841   2.707   7.008   2.000  0.7361  0.5642  0.4005
 7216TIP3   OH245842   0.304   6.208   0.936 -0.5259 -0.2346 -0.2320
 7216TIP3    H145843   0.230   6.181   0.991 -0.0676 -0.5437  0.2465
 7216TIP3    H245844   0.336   6.288   0.976  0.6382 -1.1574  0.7794
 7217TIP3   OH245845   4.294   7.352   2.140  0.8152  0.2067 -0.2519
 7217TIP3    H145846   4.255   7.339   2.227  1.1297 -0.5242 -0.2092
 7217TIP3    H245847   4.310   7.263   2.108  0.7056  0.4722 -1.0628
 7218TIP3   OH245848   2.971   0.700   0.521  0.2802  0.0438  0.8453
 7218TIP3    H145849   3.052   0.751   0.514  0.1882  0.4079  2.1248
 7218TIP3    H245850   2.905   0.763   0.547 -0.4351 -0.2590 -0.1555
 7219TIP3   OH245851   1.334   2.847   1.558  0.4617  0.0504 -0.1536
 7219TIP3    H145852   1.372   2.916   1.504  1.9738 -0.6013  0.0106
 7219TIP3    H245853   1.384   2.850   1.640 -1.1390  0.3755  0.8481
 7220TIP3   OH245854   1.207   1.737   3.262 -0.0094 -0.0289  0.6931
 7220TIP3    H145855   1.154   1.748   3.341  1.1334 -1.3251  1.6927
 7220TIP3    H245856   1.286   1.788   3.280 -0.4251  1.0103 -0.3314
 7221TIP3   OH245857   6.834   2.010   3.055 -0.1750  0.3426  0.2660
 7221TIP3    H145858   6.781   2.017   2.975  0.1881  0.7632  0.0596
 7221TIP3    H245859   6.783   1.952   3.112 -1.0668  1.0698  0.2388
 7222TIP3   OH245860   1.961   5.348   2.237 -0.4781  0.2361 -0.0203
 7222TIP3    H145861   1.983   5.287   2.308 -1.0236 -0.4155 -0.3932
 7222TIP3    H245862   1.907   5.415   2.280  0.1811  0.5056  0.4072
 7223TIP3   OH245863   1.418   1.584   2.171  0.0342 -0.0625  0.0033
 7223TIP3    H145864   1.366   1.527   2.228  0.1856 -2.2018 -1.8276
 7223TIP3    H245865   1.509   1.558   2.187  0.0863 -0.6351 -1.0561
 7224TIP3   OH245866   3.387   2.309   2.763  0.6330 -0.1729  0.1287
 7224TIP3    H145867   3.346   2.239   2.713  0.0610 -0.5144  1.0603
 7224TIP3    H245868   3.451   2.264   2.819  1.7837  0.2788 -0.7873
 7225TIP3   OH245869   0.000   1.458   1.694  0.1215  0.1331  0.1650
 7225TIP3    H145870  -0.051   1.424   1.767  1.2477  0.0659  0.9544
 7225TIP3    H245871   0.046   1.381   1.660 -0.2966  0.1866 -0.5439
 7226TIP3   OH245872   3.245   0.453   0.979 -0.4619 -0.1547 -0.0463
 7226TIP3    H145873   3.243   0.525   0.916  0.5842 -2.0849 -2.4338
 7226TIP3    H245874   3.324   0.468   1.031  0.1198  0.0669 -0.9827
 7227TIP3   OH245875   1.630   7.278   1.755  0.2098  0.3560  0.3872
 7227TIP3    H145876   1.596   7.238   1.675 -0.0691  0.4286  0.4686
 7227TIP3    H245877   1.599   7.221   1.825  0.7286  0.1112  0.4186
 7228TIP3   OH245878   2.242   7.579   1.525  0.0502  0.3564  0.3839
 7228TIP3    H145879   2.158   7.605   1.565  1.1759  0.8001  2.6516
 7228TIP3    H245880   2.307   7.635   1.567  1.4775  0.3780 -1.7032
 7229TIP3   OH245881   0.796   7.091   3.571 -0.2668  0.6224 -0.2364
 7229TIP3    H145882   0.839   7.051   3.496 -2.6925 -0.7853 -0.9565
 7229TIP3    H245883   0.733   7.152   3.533 -2.7691 -1.3728  0.4869
 7230TIP3   OH245884   6.148   0.262   1.570  0.8527  0.0665 -0.0752
 7230TIP3    H145885   6.148   0.347   1.614 -1.0708  0.6712 -1.1082
 7230TIP3    H245886   6.219   0.268   1.507  1.2879  0.5739  0.4453
 7231TIP3   OH245887   0.971   7.066   2.967  0.0196  0.0099  0.1959
 7231TIP3    H145888   0.940   7.156   2.972  0.0044  0.0865 -0.9558
 7231TIP3    H245889   0.905   7.016   3.016  0.2906  0.6617  1.2669
 7232TIP3   OH245890   4.414   5.452   3.358  0.1023  0.3151  0.4324
 7232TIP3    H145891   4.473   5.516   3.317 -0.5644  0.9473  0.4356
 7232TIP3    H245892   4.472   5.384   3.392  0.8066  0.7821  0.1860
 7233TIP3   OH245893   3.162   3.978   1.595  0.3426  0.2714  0.0819
 7233TIP3    H145894   3.067   3.978   1.611  0.6068 -2.1983  2.4046
 7233TIP3    H245895   3.171   3.947   1.505 -1.0759 -1.2600  0.4186
 7234TIP3   OH245896   5.937   5.935   1.101 -0.0526 -0.1060  0.3140
 7234TIP3    H145897   5.874   5.881   1.149  1.1824 -0.8962  1.1048
 7234TIP3    H245898   5.964   6.003   1.163  0.5159 -0.2989  0.2859
 7235TIP3   OH245899   6.792   2.838   1.373  0.0469 -0.8329 -0.3518
 7235TIP3    H145900   6.771   2.913   1.318  0.4918  0.1154  0.7354
 7235TIP3    H245901   6.830   2.774   1.312  1.4212  0.5497 -1.0163
 7236TIP3   OH245902   1.255   4.519   2.842 -0.0921 -0.0708  0.5862
 7236TIP3    H145903   1.318   4.586   2.868 -1.7279  0.9405  2.2002
 7236TIP3    H245904   1.175   4.568   2.822 -1.2049 -1.5017  1.3541
 7237TIP3   OH245905   5.183   1.007   0.915 -0.3931 -0.6483 -0.2312
 7237TIP3    H145906   5.167   0.928   0.863 -1.0921 -0.0883 -0.8939
 7237TIP3    H245907   5.102   1.020   0.964  0.2520 -1.1554  1.0056
 7238TIP3   OH245908   7.103   0.092   1.359 -0.5625  0.1406 -0.1938
 7238TIP3    H145909   7.025   0.144   1.337 -1.3428 -1.4121 -1.2086
 7238TIP3    H245910   7.127   0.049   1.278 -0.3926 -1.6861  0.7845
 7239TIP3   OH245911   2.080   6.187   1.856 -0.2118  0.3195 -0.0792
 7239TIP3    H145912   2.118   6.274   1.850 -1.1187  0.7071 -0.3846
 7239TIP3    H245913   2.152   6.127   1.835  0.9480  0.8734  2.0225
 7240TIP3   OH245914   6.737   0.425   1.901 -0.1292 -0.8648  0.0789
 7240TIP3    H145915   6.830   0.400   1.896 -0.2770 -1.1971 -1.2198
 7240TIP3    H245916   6.690   0.349   1.866 -0.9639 -1.0003  1.3922
 7241TIP3   OH245917   6.878   5.191   2.237 -0.6838 -0.1781  0.3104
 7241TIP3    H145918   6.847   5.100   2.238 -0.2474 -0.3306  0.1872
 7241TIP3    H245919   6.860   5.221   2.147  1.1264 -0.8370 -0.3136
 7242TIP3   OH245920   2.594   0.508   2.272 -0.4481  0.8950  0.2327
 7242TIP3    H145921   2.658   0.578   2.291 -0.2713  0.8073 -0.0336
 7242TIP3    H245922   2.530   0.515   2.342 -0.0605  0.8872  0.5936
 7243TIP3   OH245923   3.207   2.412   1.650 -0.3276 -0.0365  0.1489
 7243TIP3    H145924   3.121   2.453   1.640  0.3056  0.9848 -1.6920
 7243TIP3    H245925   3.235   2.435   1.738 -1.0299  1.5233 -0.0047
 7244TIP3   OH245926   0.374   6.594   0.474  0.2502 -0.2169 -0.1447
 7244TIP3    H145927   0.361   6.686   0.449 -0.2460 -0.5011 -0.9358
 7244TIP3    H245928   0.314   6.581   0.548  3.4526  1.3186  3.0744
 7245TIP3   OH245929   5.350   4.412   1.834  0.4033 -0.2563  0.5019
 7245TIP3    H145930   5.257   4.410   1.856  0.2969 -0.4873  0.0336
 7245TIP3    H245931   5.394   4.421   1.919 -0.0694  0.6508  0.6674
 7246TIP3   OH245932   4.086   0.417   1.883  0.0316  0.4302 -0.1173
 7246TIP3    H145933   4.166   0.369   1.904  0.3036 -0.1606 -2.2826
 7246TIP3    H245934   4.117   0.497   1.840 -0.5203  0.6422 -0.1258
 7247TIP3   OH245935   5.658   2.575   2.849  0.4414 -0.0544 -0.7131
 7247TIP3    H145936   5.722   2.646   2.848  2.0812 -1.4514 -0.3516
 7247TIP3    H245937   5.708   2.497   2.827 -0.6065 -1.6036  1.8333
 7248TIP3   OH245938   7.323   4.796   0.943 -0.0947  0.0646 -0.1732
 7248TIP3    H145939   7.236   4.790   0.982  0.5701 -1.4259  1.1588
 7248TIP3    H245940   7.380   4.825   1.015  0.6152  0.5624 -0.9096
 7249TIP3   OH245941   6.645   3.269   0.953  0.1808  0.3607  0.0893
 7249TIP3    H145942   6.728   3.299   0.990  0.7474 -2.5766  1.5206
 7249TIP3    H245943   6.579   3.329   0.989  1.5567  2.6181 -0.9142
 7250TIP3   OH245944   3.487   4.801   1.355 -0.3524  0.4644 -0.3309
 7250TIP3    H145945   3.578   4.788   1.328  0.0816 -0.9136  1.6005
 7250TIP3    H245946   3.436   4.749   1.292  0.1628  1.2870 -1.4569
 7251TIP3   OH245947   3.354   1.552   2.600 -0.1279 -0.2548 -0.1583
 7251TIP3    H145948   3.325   1.571   2.689 -0.0690 -0.2799 -0.1341
 7251TIP3    H245949   3.321   1.626   2.548 -0.4531 -0.4122 -0.1739
 7252TIP3   OH245950   4.448   3.741   2.740 -0.1877  0.3362  0.1837
 7252TIP3    H145951   4.379   3.788   2.692  0.3368 -0.9897 -2.0120
 7252TIP3    H245952   4.526   3.794   2.727  0.2472 -0.6660 -1.6868
 7253TIP3   OH245953   3.491   3.578   1.503  0.8577  0.1211 -0.5680
 7253TIP3    H145954   3.431   3.609   1.571  0.7133  0.4031 -0.8188
 7253TIP3    H245955   3.564   3.539   1.551  1.3970  1.4983 -0.2177
 7254TIP3   OH245956   4.827   1.220   2.929 -0.3426  0.0191  0.3037
 7254TIP3    H145957   4.867   1.296   2.969 -0.7331 -0.1127  0.9571
 7254TIP3    H245958   4.784   1.174   3.001  0.1768 -1.0089 -0.0133
 7255TIP3   OH245959   6.145   2.813   1.066 -0.0109  0.5717 -0.1895
 7255TIP3    H145960   6.154   2.722   1.092  0.4895  0.5698 -0.3660
 7255TIP3    H245961   6.158   2.863   1.146  0.6022  0.5246 -0.2546
 7256TIP3   OH245962   7.612   3.149   1.271  0.4031  0.0460  0.3773
 7256TIP3    H145963   7.611   3.101   1.354  0.6359  0.0434  0.3789
 7256TIP3    H245964   7.692   3.201   1.275  1.6595 -1.6992 -0.8398
 7257TIP3   OH245965   7.469   4.738   1.572  0.2056  0.1922  0.1381
 7257TIP3    H145966   7.490   4.670   1.508 -1.4867 -2.2793  2.0336
 7257TIP3    H245967   7.389   4.708   1.614  0.6284  2.2297  2.6557
 7258TIP3   OH245968   0.594   0.065   2.350 -0.6001 -0.3529 -0.3768
 7258TIP3    H145969   0.512   0.016   2.351  0.1448 -1.6543 -0.6021
 7258TIP3    H245970   0.616   0.078   2.443 -0.8693 -0.3096 -0.3182
 7259TIP3   OH245971   4.412   5.983   0.967  0.3493  0.3875 -0.7669
 7259TIP3    H145972   4.464   5.914   1.009 -0.4059 -0.2716 -0.8800
 7259TIP3    H245973   4.418   5.964   0.874  2.2904  2.0403 -1.0482
 7260TIP3   OH245974   4.549   5.322   2.972  0.2074  0.3050  0.1577
 7260TIP3    H145975   4.559   5.239   3.020 -1.0800  0.1967  0.2957
 7260TIP3    H245976   4.637   5.359   2.969  0.7622 -0.9468  0.3199
 7261TIP3   OH245977   4.664   7.416   3.257  0.0571  0.6254 -0.3274
 7261TIP3    H145978   4.682   7.324   3.275  1.6297  0.7241 -1.2135
 7261TIP3    H245979   4.577   7.431   3.295 -0.3538 -1.2742 -0.3771
 7262TIP3   OH245980   2.174   0.443   1.966  0.7330 -0.0188  0.2417
 7262TIP3    H145981   2.256   0.487   1.991  0.8780 -0.4025  0.4557
 7262TIP3    H245982   2.168   0.457   1.872  0.4119  1.0597  0.4124
 7263TIP3   OH245983   4.653   5.045   1.463  0.4757 -0.4283  0.5747
 7263TIP3    H145984   4.602   5.107   1.515  1.0710  0.4208  0.1615
 7263TIP3    H245985   4.740   5.046   1.502  0.2069 -1.9153  1.3090
 7264TIP3   OH245986   6.683   3.805   3.295  0.3149 -0.0803  0.0391
 7264TIP3    H145987   6.748   3.875   3.305 -0.2631  0.3994  0.5032
 7264TIP3    H245988   6.733   3.724   3.307  0.5612  0.3184  2.0341
 7265TIP3   OH245989   0.918   7.009   8.349  0.5158 -0.0679  0.3701
 7265TIP3    H145990   0.957   7.070   8.412 -1.0479  0.0520  1.2610
 7265TIP3    H245991   0.862   6.952   8.402  2.4877 -2.8561 -0.2968
 7266TIP3   OH245992   0.621   3.886   2.069  0.5856  0.0597 -0.2340
 7266TIP3    H145993   0.667   3.962   2.106 -1.4459  0.8942  0.7175
 7266TIP3    H245994   0.590   3.838   2.146 -0.1704 -0.4591 -0.8546
 7267TIP3   OH245995   6.753   1.000   0.621 -0.3042 -0.4060  0.1789
 7267TIP3    H145996   6.662   0.968   0.614 -1.3342  2.6242 -2.4726
 7267TIP3    H245997   6.752   1.055   0.700 -0.9888  0.1320 -0.1888
 7268TIP3   OH245998   1.188   2.575   3.209 -0.2884  0.2332 -0.2639
 7268TIP3    H145999   1.166   2.637   3.278 -0.1631 -1.8407  1.7798
 7268TIP3    H246000   1.120   2.508   3.214 -0.2128 -0.0510 -2.1355
 7269TIP3   OH246001   1.667   3.049   1.025 -0.2058  0.7744 -0.1108
 7269TIP3    H146002   1.722   3.022   0.952 -0.4010 -1.7495  0.5931
 7269TIP3    H246003   1.726   3.052   1.101 -0.5362  0.5879  0.1590
 7270TIP3   OH246004   5.060   6.086   0.453 -0.5185 -0.1301  0.1263
 7270TIP3    H146005   5.107   6.090   0.370 -0.3476  0.9175  0.2569
 7270TIP3    H246006   5.128   6.071   0.518 -0.8966 -3.5483 -0.1069
 7271TIP3   OH246007   6.570   6.355   3.294 -0.1089 -0.1448  0.3531
 7271TIP3    H146008   6.527   6.373   3.211 -0.6631  0.0657  0.6802
 7271TIP3    H246009   6.546   6.429   3.350  1.0861  0.2343  0.3965
 7272TIP3   OH246010   2.966   5.423   0.626  0.2088  0.5785 -0.1163
 7272TIP3    H146011   2.928   5.473   0.699 -1.0049 -1.0130  0.3872
 7272TIP3    H246012   2.930   5.466   0.548  0.1692  1.2518  0.2568
 7273TIP3   OH246013   1.122   7.486   1.102 -0.0570 -0.4231  0.0184
 7273TIP3    H146014   1.212   7.514   1.121 -0.6760  1.4030  0.4370
 7273TIP3    H246015   1.076   7.497   1.186 -0.8684 -0.5297 -0.4072
 7274TIP3   OH246016   6.221   1.843   1.476 -0.0717 -0.4705  0.4860
 7274TIP3    H146017   6.159   1.872   1.543  1.0354  0.8970  0.9652
 7274TIP3    H246018   6.170   1.843   1.395 -1.1944 -1.2686  1.1649
 7275TIP3   OH246019   5.026   5.301   1.457  0.2332  0.2660 -0.1109
 7275TIP3    H146020   5.034   5.250   1.377 -1.0081 -0.1191 -0.0097
 7275TIP3    H246021   5.031   5.392   1.427  0.4465  0.1170 -0.5408
 7276TIP3   OH246022   3.905   2.883   2.765 -0.3784  0.1071  0.4599
 7276TIP3    H146023   3.885   2.866   2.673 -2.9200  1.5421  0.6654
 7276TIP3    H246024   3.948   2.968   2.765 -1.0707  0.4628  0.6428
 7277TIP3   OH246025   4.173   5.130   2.389 -0.0089  0.1675 -0.3245
 7277TIP3    H146026   4.120   5.081   2.326  0.3245 -0.8463  0.1511
 7277TIP3    H246027   4.149   5.221   2.376 -1.4529 -0.2256 -0.5021
 7278TIP3   OH246028   6.127   0.535   1.448 -0.0151  0.0504 -0.1469
 7278TIP3    H146029   6.060   0.595   1.481  0.3694 -0.3998  1.5296
 7278TIP3    H246030   6.088   0.448   1.459  0.9603 -0.2464  1.2453
 7279TIP3   OH246031   5.932   4.613   0.434  0.0790  0.0030  0.5037
 7279TIP3    H146032   5.986   4.606   0.512  1.3298 -1.1468 -0.4055
 7279TIP3    H246033   5.963   4.693   0.391 -1.5670  1.4107  1.8228
 7280TIP3   OH246034   4.681   7.403   1.507 -0.3529  0.5102 -0.1646
 7280TIP3    H146035   4.674   7.493   1.538 -0.8449  0.8091 -1.1068
 7280TIP3    H246036   4.688   7.350   1.587 -0.2623  1.3581  0.3998
 7281TIP3   OH246037   2.385   0.287   1.532 -0.2685  0.5808  0.0475
 7281TIP3    H146038   2.402   0.226   1.605  0.1108  0.4389 -0.1559
 7281TIP3    H246039   2.327   0.353   1.570 -1.1690 -0.2240  0.1164
 7282TIP3   OH246040   4.692   5.652   0.804  0.1965 -0.5578 -0.0858
 7282TIP3    H146041   4.740   5.679   0.726  1.7957 -2.5533  0.1552
 7282TIP3    H246042   4.609   5.617   0.771 -0.6565  1.7356 -0.5809
 7283TIP3   OH246043   6.552   5.676   1.512  0.0101  0.5043  0.9251
 7283TIP3    H146044   6.616   5.747   1.521  0.1744  0.3990  0.5975
 7283TIP3    H246045   6.600   5.598   1.540 -0.8207  0.8128  3.4834
 7284TIP3   OH246046   6.678   3.609   1.596 -0.1282  0.4046  0.1318
 7284TIP3    H146047   6.708   3.628   1.685 -1.0079 -0.8894  0.7219
 7284TIP3    H246048   6.672   3.695   1.554  0.9213  0.9791  1.1063
 7285TIP3   OH246049   6.886   6.442   0.420  0.5819  0.3373  0.1860
 7285TIP3    H146050   6.918   6.502   0.488  0.9468 -0.4893  0.7614
 7285TIP3    H246051   6.907   6.485   0.338 -0.4660  1.6723  0.5858
 7286TIP3   OH246052   7.213   1.777   1.494  0.4967  0.2082  0.0505
 7286TIP3    H146053   7.242   1.838   1.562 -0.9997  1.7849 -0.6446
 7286TIP3    H246054   7.163   1.831   1.433 -1.4174 -1.7932 -0.2990
 7287TIP3   OH246055   7.437   0.350   1.495  0.1055  0.2545  0.5246
 7287TIP3    H146056   7.428   0.341   1.400  0.0031 -2.3164  0.6976
 7287TIP3    H246057   7.525   0.317   1.514  0.9970  2.8058  1.1724
 7288TIP3   OH246058   6.961   4.768   2.593  0.2326  0.0839 -0.1761
 7288TIP3    H146059   7.009   4.685   2.587 -0.9266 -0.5371 -1.1931
 7288TIP3    H246060   6.926   4.769   2.682  0.8530 -0.1710  0.0752
 7289TIP3   OH246061   1.283   4.059   0.587  0.5292 -0.2620  0.4666
 7289TIP3    H146062   1.223   4.090   0.655 -0.1966 -0.8762  0.1249
 7289TIP3    H246063   1.283   4.128   0.521 -2.1844 -1.4481 -0.9840
 7290TIP3   OH246064   6.668   3.087   2.682 -0.3207  0.4605  0.0967
 7290TIP3    H146065   6.656   3.021   2.750 -2.3394  1.9790  1.3272
 7290TIP3    H246066   6.752   3.128   2.702  1.2038 -1.9048 -0.9547
 7291TIP3   OH246067   6.779   3.271   1.763  0.7485  0.1403  0.0015
 7291TIP3    H146068   6.870   3.301   1.767  0.8810 -0.3997  2.5261
 7291TIP3    H246069   6.743   3.292   1.849 -0.7569 -1.9341 -0.0439
 7292TIP3   OH246070   4.427   6.650   1.259  0.2555 -0.1196 -0.2506
 7292TIP3    H146071   4.475   6.569   1.273  1.2122  0.7088  1.7088
 7292TIP3    H246072   4.480   6.700   1.197  0.5343 -0.3266 -0.1794
 7293TIP3   OH246073   3.287   6.088   1.954  0.8866 -0.0796 -0.3577
 7293TIP3    H146074   3.276   6.021   2.021 -0.1466  1.0574  0.6482
 7293TIP3    H246075   3.234   6.057   1.881 -0.5102  0.1592  0.5180
 7294TIP3   OH246076   1.197   2.506   0.617 -0.3559  0.1555 -0.1272
 7294TIP3    H146077   1.224   2.597   0.629 -0.1541 -0.0878  1.4603
 7294TIP3    H246078   1.132   2.490   0.686  0.5916 -1.2750  0.4908
 7295TIP3   OH246079   6.337   5.077   2.212  0.5075  0.1772 -0.3795
 7295TIP3    H146080   6.289   5.033   2.142  1.7254  0.6121 -1.5222
 7295TIP3    H246081   6.282   5.152   2.235 -0.0771 -0.1774 -0.6015
 7296TIP3   OH246082   4.838   6.074   0.799 -0.0443  0.1097 -0.1154
 7296TIP3    H146083   4.772   6.031   0.744 -1.0253  2.4901 -0.9277
 7296TIP3    H246084   4.875   6.142   0.743  1.8893 -0.0222  0.9114
 7297TIP3   OH246085   4.683   5.044   0.751  0.4190  0.3279 -0.2685
 7297TIP3    H146086   4.722   5.117   0.800  1.0046 -1.2746  1.8150
 7297TIP3    H246087   4.748   5.021   0.685  1.5050 -0.0733  0.9052
 7298TIP3   OH246088   2.762   2.146   0.809 -0.3089 -0.2572 -0.0915
 7298TIP3    H146089   2.668   2.150   0.793 -0.5381  0.8532  1.2937
 7298TIP3    H246090   2.799   2.215   0.754 -0.2531 -0.8247 -0.7882
 7299TIP3   OH246091   2.476   1.574   0.664 -0.8266 -0.0459  0.0814
 7299TIP3    H146092   2.413   1.503   0.678 -0.8891 -0.2577 -1.1307
 7299TIP3    H246093   2.560   1.530   0.651 -0.7268  0.1385  0.0925
 7300TIP3   OH246094   0.505   2.570   2.232 -0.2400 -0.7925 -0.4032
 7300TIP3    H146095   0.563   2.547   2.305 -0.1140 -0.5450 -0.4221
 7300TIP3    H246096   0.471   2.656   2.255  1.2590  0.1432 -1.5056
 7301TIP3   OH246097   4.661   0.308   3.265 -0.0341 -0.3451 -0.1325
 7301TIP3    H146098   4.716   0.230   3.270 -0.6179 -0.6792  1.9474
 7301TIP3    H246099   4.720   0.378   3.237  1.1267 -0.9896  0.6543
 7302TIP3   OH246100   3.746   3.258   2.110 -0.0532 -0.3775  0.2114
 7302TIP3    H146101   3.796   3.187   2.149  1.1095  0.1561 -0.2327
 7302TIP3    H246102   3.748   3.328   2.176 -1.6545 -0.9119  0.8726
 7303TIP3   OH246103   5.924   6.211   1.961 -0.6285  0.0527 -0.0534
 7303TIP3    H146104   5.857   6.277   1.944  0.9914  2.4274  2.0167
 7303TIP3    H246105   5.993   6.229   1.897 -0.9569 -0.9419 -0.7199
 7304TIP3   OH246106   6.435   2.018   1.402  0.2514  0.1737 -0.0858
 7304TIP3    H146107   6.413   2.043   1.312 -0.3802  0.3847  0.1223
 7304TIP3    H246108   6.357   1.973   1.434  0.0246  1.1297  0.7467
 7305TIP3   OH246109   6.642   2.969   0.742  0.8255 -0.3765  0.5040
 7305TIP3    H146110   6.589   2.918   0.682  0.2176  1.0500 -0.2131
 7305TIP3    H246111   6.580   3.004   0.806  1.4599 -1.8604  2.0027
 7306TIP3   OH246112   1.485   2.792   2.521 -0.1628 -0.0877  0.3240
 7306TIP3    H146113   1.489   2.863   2.585 -0.9547  2.1297 -1.9377
 7306TIP3    H246114   1.561   2.806   2.464 -1.1539 -0.0839 -1.0576
 7307TIP3   OH246115   6.381   6.404   3.080 -0.7273 -0.1689 -0.2119
 7307TIP3    H146116   6.467   6.432   3.050  0.9170 -0.5202  3.6614
 7307TIP3    H246117   6.341   6.363   3.003  3.2687 -1.6636 -1.7404
 7308TIP3   OH246118   0.274   4.235   1.415  0.2202 -0.1376  0.0240
 7308TIP3    H146119   0.359   4.277   1.429  0.6938 -0.7026 -1.0758
 7308TIP3    H246120   0.270   4.219   1.321 -0.6143 -1.1629  0.2150
 7309TIP3   OH246121   3.620   2.453   0.757  0.0040  0.3927  0.2225
 7309TIP3    H146122   3.677   2.470   0.831 -1.0088 -1.6077  1.5450
 7309TIP3    H246123   3.665   2.385   0.707 -0.6856 -0.4027  0.6674
 7310TIP3   OH246124   2.915   1.390   3.586  0.1660 -0.6655 -0.2611
 7310TIP3    H146125   2.896   1.300   3.614 -0.3026 -0.1204  1.3114
 7310TIP3    H246126   2.832   1.422   3.551 -0.4024 -0.0503  1.5509
 7311TIP3   OH246127   7.435   1.563   0.374  0.3046  0.2622  0.4195
 7311TIP3    H146128   7.392   1.581   0.291  0.0970 -0.6563  0.3246
 7311TIP3    H246129   7.379   1.499   0.417  0.8460  0.1101  0.9064
 7312TIP3   OH246130   4.963   1.545   1.042 -0.2762  0.3429  0.2177
 7312TIP3    H146131   4.943   1.453   1.059  1.8692  0.0792  1.6187
 7312TIP3    H246132   4.918   1.592   1.111 -0.2613  0.2175  0.3139
 7313TIP3   OH246133   3.367   1.008   2.541  0.3370 -0.1489  0.1550
 7313TIP3    H146134   3.278   0.976   2.530  0.1372  0.0683  1.1050
 7313TIP3    H246135   3.400   1.017   2.451 -1.1319  1.3251 -0.2892
 7314TIP3   OH246136   5.796   4.900   3.253 -0.0983 -0.4045  0.0394
 7314TIP3    H146137   5.704   4.873   3.260 -0.2318 -0.2189 -0.8402
 7314TIP3    H246138   5.840   4.853   3.324 -0.8487 -0.5881  0.4023
 7315TIP3   OH246139   0.471   5.757   3.547 -0.6088 -0.1024 -0.3750
 7315TIP3    H146140   0.385   5.775   3.586 -0.5268  0.0034 -0.2416
 7315TIP3    H246141   0.503   5.843   3.518 -0.3481 -0.0724 -0.0072
 7316TIP3   OH246142   6.831   2.886   2.309  0.0346  0.5889 -0.3707
 7316TIP3    H146143   6.834   2.801   2.352 -0.6503  0.5487 -0.3984
 7316TIP3    H246144   6.742   2.894   2.275  0.4524  0.7439 -1.5156
 7317TIP3   OH246145   5.849   2.344   1.350  0.4722 -0.2999  0.0846
 7317TIP3    H146146   5.760   2.333   1.317  0.7266 -1.5415 -0.2657
 7317TIP3    H246147   5.887   2.256   1.346  2.1113  0.3840 -0.9226
 7318TIP3   OH246148   3.837   4.593   1.655  0.5183 -0.0180  0.1411
 7318TIP3    H146149   3.821   4.562   1.566  0.0908  1.3565 -0.2850
 7318TIP3    H246150   3.751   4.597   1.695  0.6921 -0.4457  0.5699
 7319TIP3   OH246151   4.996   1.060   1.151 -0.3072  0.1305 -0.1441
 7319TIP3    H146152   5.034   1.076   1.238 -0.6792  0.6380 -0.0684
 7319TIP3    H246153   4.960   0.972   1.157 -1.0892  0.4754  0.5091
 7320TIP3   OH246154   1.949   5.267   2.527  0.1869  0.1931 -0.2016
 7320TIP3    H146155   1.884   5.329   2.492  0.4506  0.6688  0.1369
 7320TIP3    H246156   1.897   5.193   2.559 -0.0538 -0.3202 -1.7016
 7321TIP3   OH246157   1.176   4.674   1.692  0.2027 -0.0738  0.1616
 7321TIP3    H146158   1.164   4.759   1.650 -0.0926  0.6967  1.7309
 7321TIP3    H246159   1.217   4.694   1.776 -0.6617 -1.3964  0.9400
 7322TIP3   OH246160   0.824   6.304   1.941 -0.1075  0.0169  0.0165
 7322TIP3    H146161   0.821   6.359   2.019  0.0335 -0.8834  0.6772
 7322TIP3    H246162   0.908   6.257   1.948 -0.1844 -0.2193 -0.5752
 7323TIP3   OH246163   3.699   5.659   0.964 -0.3205 -0.1636  0.0381
 7323TIP3    H146164   3.786   5.698   0.956  0.9621 -2.4224  1.8136
 7323TIP3    H246165   3.708   5.595   1.035 -3.4100 -0.5711  0.1846
 7324TIP3   OH246166   0.141   0.038   2.828  0.2630  0.2067 -0.0006
 7324TIP3    H146167   0.080  -0.005   2.768 -1.0637 -0.2851  1.6149
 7324TIP3    H246168   0.204   0.081   2.771 -0.5037 -0.8299 -1.7284
 7325TIP3   OH246169   4.245   3.079   1.354  0.0110  0.5008 -0.4540
 7325TIP3    H146170   4.330   3.114   1.383 -0.0041 -0.3444  0.7005
 7325TIP3    H246171   4.189   3.087   1.431 -0.9664  1.0321 -1.2031
 7326TIP3   OH246172   3.386   1.198   1.598 -0.2148 -0.0381  0.4152
 7326TIP3    H146173   3.446   1.131   1.566  0.2280  0.4199  0.2750
 7326TIP3    H246174   3.442   1.258   1.647 -0.0843  1.8435 -1.8935
 7327TIP3   OH246175   2.609   1.572   1.457 -0.0488 -0.0311 -0.5109
 7327TIP3    H146176   2.700   1.594   1.475 -0.4140  0.2996  1.0825
 7327TIP3    H246177   2.610   1.477   1.443  0.7882  0.2166 -2.3403
 7328TIP3   OH246178   7.299   7.500   2.432  0.4825 -1.1463 -0.2161
 7328TIP3    H146179   7.336   7.559   2.366 -0.3084 -0.8498 -0.4005
 7328TIP3    H246180   7.249   7.436   2.382 -0.7716 -0.4657  0.1198
 7329TIP3   OH246181   0.170   4.356   2.286 -0.4792  0.0501 -0.1105
 7329TIP3    H146182   0.146   4.301   2.361 -1.5270 -1.0931 -1.2395
 7329TIP3    H246183   0.211   4.295   2.224 -2.9716  0.1508 -2.0201
 7330TIP3   OH246184   1.213   0.872   2.412 -0.6149 -0.1102  0.2278
 7330TIP3    H146185   1.144   0.857   2.346 -0.2183 -1.1420  0.0225
 7330TIP3    H246186   1.248   0.958   2.391 -0.5247 -0.4081 -0.9075
 7331TIP3   OH246187   3.162   3.260   2.560  0.1127  0.1969 -0.4306
 7331TIP3    H146188   3.113   3.324   2.509 -2.3254 -0.2711  1.1545
 7331TIP3    H246189   3.143   3.176   2.518  0.8646  0.1838 -0.7470
 7332TIP3   OH246190   3.335   3.560   0.734  0.1998 -0.2364  0.0365
 7332TIP3    H146191   3.419   3.571   0.689  0.2351  0.5081  0.2671
 7332TIP3    H246192   3.348   3.485   0.791 -0.5900 -2.8066 -2.8790
 7333TIP3   OH246193   6.118   6.022   1.807  0.3563  0.1098 -0.4581
 7333TIP3    H146194   6.168   5.941   1.797 -0.0965 -0.3183  0.5964
 7333TIP3    H246195   6.028   5.997   1.784  0.2034  0.2994 -0.0600
 7334TIP3   OH246196   0.676   4.086   3.036  0.0087 -0.1346 -0.6017
 7334TIP3    H146197   0.693   4.120   3.124 -1.4007 -3.2784  1.0866
 7334TIP3    H246198   0.595   4.129   3.009  0.1051  0.3885 -0.0841
 7335TIP3   OH246199   7.252   6.635   0.704 -0.5939  0.1791  0.2096
 7335TIP3    H146200   7.278   6.719   0.742 -0.8273  0.7636 -0.8672
 7335TIP3    H246201   7.320   6.574   0.730 -0.5904  0.6232  1.2884
 7336TIP3   OH246202   1.591   2.384   0.364 -0.1597 -0.2860  0.1180
 7336TIP3    H146203   1.643   2.388   0.445 -1.0050  0.2585  0.6532
 7336TIP3    H246204   1.530   2.311   0.378 -0.0807 -0.4093 -0.1727
 7337TIP3   OH246205   7.018   7.225   2.611 -0.3215 -0.1592 -0.5135
 7337TIP3    H146206   6.933   7.267   2.624 -0.5421 -0.6569 -0.3089
 7337TIP3    H246207   7.047   7.201   2.699  0.4615  0.8203 -0.4908
 7338TIP3   OH246208   3.118   3.547   3.635  0.1208 -0.1498  0.2463
 7338TIP3    H146209   3.125   3.477   3.700  0.2171 -0.7316 -0.3802
 7338TIP3    H246210   3.208   3.570   3.615  0.2999 -2.5030 -2.3342
 7339TIP3   OH246211   4.578   4.693   2.972  0.8051 -0.9576 -0.2906
 7339TIP3    H146212   4.601   4.681   2.880 -1.1001 -0.1821 -0.9184
 7339TIP3    H246213   4.483   4.702   2.972  0.9487  1.4539  1.4743
 7340TIP3   OH246214   0.932   1.101   2.537  0.1730  1.1004 -0.1943
 7340TIP3    H146215   0.933   1.161   2.462  0.5364  0.1940 -0.9434
 7340TIP3    H246216   1.014   1.118   2.583  1.7461 -0.7686 -2.0631
 7341TIP3   OH246217   6.114   7.069   1.030 -0.2896  0.1837  0.7088
 7341TIP3    H146218   6.022   7.092   1.021 -0.3282  0.3746  1.4802
 7341TIP3    H246219   6.149   7.069   0.941 -0.8552  0.8586  0.4869
 7342TIP3   OH246220   3.292   3.302   2.801 -0.1177 -0.4892  0.4944
 7342TIP3    H146221   3.323   3.211   2.803 -0.4942 -0.6158  1.7489
 7342TIP3    H246222   3.260   3.314   2.711  1.0541 -1.1953 -0.0398
 7343TIP3   OH246223   3.400   2.184   2.096  0.3954 -0.4294  0.0038
 7343TIP3    H146224   3.434   2.140   2.174 -0.7644 -0.6030  0.4280
 7343TIP3    H246225   3.324   2.233   2.127  0.2028 -0.1151 -0.9377
 7344TIP3   OH246226   5.405   7.535   2.815  0.0710 -0.3978 -0.0976
 7344TIP3    H146227   5.420   7.624   2.784 -0.1277 -0.2418  0.2503
 7344TIP3    H246228   5.431   7.536   2.907 -2.3645  0.0077  0.6612
 7345TIP3   OH246229   2.486   1.555   2.340  0.0990  0.2648 -0.0377
 7345TIP3    H146230   2.569   1.556   2.292  0.6686  0.8589  0.9377
 7345TIP3    H246231   2.427   1.610   2.287  0.9327  1.5031  0.2879
 7346TIP3   OH246232   0.065   6.329   1.205 -0.5440  0.1970  0.6848
 7346TIP3    H146233   0.020   6.359   1.283  1.0964 -0.4040  1.9168
 7346TIP3    H246234  -0.005   6.305   1.144 -1.8533  0.6915  1.9560
 7347TIP3   OH246235   6.115   3.110   1.846 -0.1870  0.0111  0.2166
 7347TIP3    H146236   6.108   3.196   1.804 -1.5214 -0.7024 -1.1324
 7347TIP3    H246237   6.208   3.099   1.863  0.2350  0.9695 -1.2597
 7348TIP3   OH246238   3.955   5.321   2.015  0.1428  0.1487  0.0577
 7348TIP3    H146239   4.007   5.360   1.944  1.0360 -0.8984  0.1007
 7348TIP3    H246240   3.998   5.350   2.095 -0.0585  0.2484  0.1287
 7349TIP3   OH246241   6.794   7.410   0.966 -0.2338  0.0911 -0.3011
 7349TIP3    H146242   6.718   7.391   0.911 -1.5647  0.9940  1.1249
 7349TIP3    H246243   6.756   7.444   1.048  1.6853 -0.2725  0.7962
 7350TIP3   OH246244   0.632   5.913   2.958  0.5698  0.5323  0.8089
 7350TIP3    H146245   0.567   5.969   3.000 -0.7323 -0.6894  0.4983
 7350TIP3    H246246   0.716   5.956   2.976 -0.1899  1.4603  2.3286
 7351TIP3   OH246247   4.973   0.914   1.483 -0.1365 -0.3896 -0.0831
 7351TIP3    H146248   4.965   0.910   1.578 -2.0749 -1.0991 -0.2214
 7351TIP3    H246249   5.018   0.833   1.459  1.4257  0.3352  0.2739
 7352TIP3   OH246250   2.617   6.842   1.626 -0.3458 -0.6882  0.0815
 7352TIP3    H146251   2.688   6.802   1.576 -0.3281  0.5817 -0.9488
 7352TIP3    H246252   2.567   6.893   1.562 -1.4764 -0.5693  1.0063
 7353TIP3   OH246253   1.844   2.989   0.801 -0.6454 -0.2300 -0.4139
 7353TIP3    H146254   1.912   3.051   0.829 -1.4922  0.6715 -0.3101
 7353TIP3    H246255   1.892   2.924   0.750  0.5434 -0.4990  0.9709
 7354TIP3   OH246256   0.604   3.485   2.123 -0.1043  0.6577  0.4663
 7354TIP3    H146257   0.525   3.468   2.073 -1.2169  0.7017  2.1395
 7354TIP3    H246258   0.668   3.513   2.057 -0.8394 -1.3090 -1.1984
 7355TIP3   OH246259   7.295   4.293   2.890 -0.1807 -0.4240 -0.5348
 7355TIP3    H146260   7.287   4.310   2.796 -0.9099 -0.6923 -0.5301
 7355TIP3    H246261   7.262   4.373   2.932  1.8773  0.4496 -0.4814
 7356TIP3   OH246262   6.513   3.904   1.599  0.0138 -0.2086 -0.7216
 7356TIP3    H146263   6.544   3.988   1.565  0.0027  0.2818  0.4044
 7356TIP3    H246264   6.427   3.925   1.638 -0.1266 -0.8067 -0.7067
 7357TIP3   OH246265   6.822   2.097   2.660  0.1473 -0.3255 -0.5411
 7357TIP3    H146266   6.791   2.063   2.744  3.3269 -1.3512  0.3604
 7357TIP3    H246267   6.814   2.022   2.600 -0.5458 -0.0956 -0.7504
 7358TIP3   OH246268   1.332   5.456   1.702  0.3476  0.4788  0.1320
 7358TIP3    H146269   1.262   5.521   1.696  0.9334  1.1341  0.2367
 7358TIP3    H246270   1.411   5.508   1.714  0.9456 -0.2124 -0.6835
 7359TIP3   OH246271   5.412   5.085   2.155  0.1905 -0.7841 -0.6087
 7359TIP3    H146272   5.446   5.005   2.193  0.9217 -0.1523  0.1009
 7359TIP3    H246273   5.463   5.155   2.196 -0.3753  0.0394 -1.2711
 7360TIP3   OH246274   6.213   6.998   2.364  0.2868  0.3246  0.2722
 7360TIP3    H146275   6.121   7.012   2.339 -0.5684 -0.4678  2.7158
 7360TIP3    H246276   6.233   7.071   2.422  1.9633  1.6705 -1.8343
 7361TIP3   OH246277   0.252   7.231   2.219 -0.1230  0.6698 -0.0548
 7361TIP3    H146278   0.263   7.225   2.124 -1.1760 -1.2534 -0.1101
 7361TIP3    H246279   0.210   7.316   2.233  1.3864  1.6370 -1.1334
 7362TIP3   OH246280   3.034   0.147   1.762 -0.1919 -0.2441  0.0175
 7362TIP3    H146281   3.014   0.148   1.669 -0.2136  0.9720  0.0214
 7362TIP3    H246282   3.108   0.207   1.771 -0.1901 -0.3530  0.7860
 7363TIP3   OH246283   3.632   1.713   3.696  0.0919 -0.7386  0.0572
 7363TIP3    H146284   3.576   1.640   3.724 -0.7969 -0.1700 -0.1836
 7363TIP3    H246285   3.621   1.717   3.601  0.0228 -0.2129  0.0808
 7364TIP3   OH246286   7.122   1.960   2.623 -0.0787  0.0443  0.5845
 7364TIP3    H146287   7.091   1.974   2.712 -0.1143 -0.6634  0.6862
 7364TIP3    H246288   7.200   2.015   2.616 -0.7314  1.0111  0.6666
 7365TIP3   OH246289   4.091   6.645   2.563 -0.5820  0.0265  0.0444
 7365TIP3    H146290   4.038   6.687   2.631  0.1214  0.5659  0.2735
 7365TIP3    H246291   4.173   6.693   2.564  0.1536 -1.1992  0.1360
 7366TIP3   OH246292   2.033   5.956   0.860  0.1588  0.3404 -0.0512
 7366TIP3    H146293   1.951   5.962   0.812  0.7511  1.9805 -0.9512
 7366TIP3    H246294   2.099   5.934   0.794  0.8084  1.5172  0.1693
 7367TIP3   OH246295   1.622   7.019   2.264 -0.3501  0.4942  0.7941
 7367TIP3    H146296   1.563   7.094   2.270  0.2052  0.9377  0.7588
 7367TIP3    H246297   1.565   6.943   2.272 -0.9472  0.9163  0.5834
 7368TIP3   OH246298   1.142   1.312   2.505  0.2987  0.5086 -0.4573
 7368TIP3    H146299   1.162   1.270   2.589 -0.7200  0.1750 -0.3660
 7368TIP3    H246300   1.191   1.394   2.507 -0.6639  1.0843  1.0163
 7369TIP3   OH246301   6.757   7.364   1.421 -0.7169 -0.6042  0.0504
 7369TIP3    H146302   6.734   7.284   1.374 -1.3686  0.1431 -0.9587
 7369TIP3    H246303   6.848   7.381   1.396 -0.8955 -0.4929 -0.5393
 7370TIP3   OH246304   0.715   0.754   3.062 -0.1537 -0.1558 -0.3794
 7370TIP3    H146305   0.629   0.786   3.089  0.5578  1.2670  0.3332
 7370TIP3    H246306   0.775   0.785   3.130  0.9713 -0.8880 -0.9943
 7371TIP3   OH246307   5.401   1.929   1.285 -0.3007 -0.0295  0.3599
 7371TIP3    H146308   5.328   1.885   1.239 -1.7836  1.2689  1.3610
 7371TIP3    H246309   5.387   1.906   1.377  0.0742  0.9140  0.6542
 7372TIP3   OH246310   3.348   4.620   2.736  0.0076  0.1743  0.3504
 7372TIP3    H146311   3.416   4.666   2.785 -0.7771  0.6798  0.9783
 7372TIP3    H246312   3.382   4.617   2.646  1.0807 -0.0309  0.7490
 7373TIP3   OH246313   1.643   4.522   2.900 -0.8381  0.0469 -0.2845
 7373TIP3    H146314   1.571   4.469   2.935 -0.1338  0.0243  1.2250
 7373TIP3    H246315   1.722   4.474   2.924 -0.2694  0.4714 -1.2268
 7374TIP3   OH246316   4.427   0.237   1.381 -0.1238 -0.5344  0.3140
 7374TIP3    H146317   4.469   0.321   1.366  1.0010 -0.7564  1.9063
 7374TIP3    H246318   4.335   0.258   1.396 -0.5715  0.0260 -2.6287
 7375TIP3   OH246319   7.576   6.721   2.283 -0.2137  0.2956  0.3601
 7375TIP3    H146320   7.655   6.774   2.295  0.2652  0.5611 -2.8534
 7375TIP3    H246321   7.606   6.631   2.295  0.6092  0.4071 -0.6672
 7376TIP3   OH246322   6.816   5.506   1.280  0.3798 -0.4468  0.2635
 7376TIP3    H146323   6.875   5.488   1.353  0.4919 -0.0136  0.2827
 7376TIP3    H246324   6.843   5.592   1.248  0.2325 -0.5677 -0.1924
 7377TIP3   OH246325   2.997   7.184   2.959  0.6605  0.2239 -0.1391
 7377TIP3    H146326   2.993   7.203   2.865  0.7646 -1.1916 -0.4470
 7377TIP3    H246327   3.027   7.094   2.965  0.1215  0.0982  1.2480
 7378TIP3   OH246328   6.148   1.109   2.688 -0.1607 -0.0308  0.2338
 7378TIP3    H146329   6.158   1.067   2.773  0.0048  2.7751  1.7107
 7378TIP3    H246330   6.057   1.138   2.686 -0.6929 -1.5512 -1.3896
 7379TIP3   OH246331   3.389   7.039   2.183  0.7455 -0.4205  0.0154
 7379TIP3    H146332   3.442   6.977   2.134  1.8156 -0.5428  1.2987
 7379TIP3    H246333   3.447   7.114   2.199  0.3153 -0.2421  0.8017
 7380TIP3   OH246334   3.942   5.961   1.960 -0.5615 -0.3853  0.0855
 7380TIP3    H146335   3.995   5.986   2.036 -2.6503 -1.0421  1.8937
 7380TIP3    H246336   3.900   6.043   1.932 -0.7911 -0.3497  0.5154
 7381TIP3   OH246337   7.368   2.408   2.445 -0.2896  0.0953 -0.5650
 7381TIP3    H146338   7.334   2.409   2.534 -1.7168  0.4843 -1.0901
 7381TIP3    H246339   7.355   2.498   2.414 -0.6679 -0.2657 -1.4707
 7382TIP3   OH246340   5.096   0.291   1.088 -0.0336  0.0104  0.1126
 7382TIP3    H146341   5.032   0.261   1.023  1.4377 -1.5533 -0.6761
 7382TIP3    H246342   5.161   0.220   1.093  1.5162  1.4284  1.0798
 7383TIP3   OH246343   0.908   0.091   3.056 -0.0165  0.5688  0.6146
 7383TIP3    H146344   0.837   0.142   3.095  0.0285 -0.2374  1.7901
 7383TIP3    H246345   0.871   0.004   3.044 -0.8683  1.3058 -3.5512
 7384TIP3   OH246346   2.209   6.986   3.278 -0.3874 -0.6615  0.0616
 7384TIP3    H146347   2.130   6.987   3.225 -0.8528 -1.3871  0.7247
 7384TIP3    H246348   2.182   7.026   3.361  0.1419 -0.2193  0.0316
 7385TIP3   OH246349   2.461   4.428   0.396  0.2547 -0.0778 -0.0846
 7385TIP3    H146350   2.389   4.401   0.339 -0.0723  2.2725 -0.9242
 7385TIP3    H246351   2.418   4.447   0.480  0.2120 -0.5405 -0.0027
 7386TIP3   OH246352   6.705   3.703   2.116 -0.0316 -0.3667 -0.0657
 7386TIP3    H146353   6.670   3.792   2.117 -1.3910 -0.8859  0.2169
 7386TIP3    H246354   6.780   3.706   2.175 -1.7142 -0.0240  2.1966
 7387TIP3   OH246355   2.875   0.003   0.816 -0.5522  0.1963 -0.3852
 7387TIP3    H146356   2.964  -0.019   0.843 -1.3787 -2.2021  0.5805
 7387TIP3    H246357   2.884   0.090   0.775  1.7862  1.2032  1.9604
 7388TIP3   OH246358   0.909   7.542   0.472 -0.1208 -0.4439  0.3382
 7388TIP3    H146359   0.858   7.622   0.465 -1.0315 -0.9681  0.7537
 7388TIP3    H246360   0.992   7.570   0.509 -1.2539  0.0449  2.7065
 7389TIP3   OH246361   3.791   3.384   0.897 -0.9417  0.2735 -0.1987
 7389TIP3    H146362   3.799   3.430   0.980  0.2045  0.6265 -0.4890
 7389TIP3    H246363   3.878   3.390   0.857 -0.9002 -1.6202 -0.5190
 7390TIP3   OH246364   4.062   3.943   3.063 -0.4151  0.1149  0.0121
 7390TIP3    H146365   3.998   4.012   3.082 -0.5218 -0.0466  0.2388
 7390TIP3    H246366   4.078   3.901   3.148  0.9100  0.9350  0.2037
 7391TIP3   OH246367   3.769   4.154   1.496 -0.0836  0.2565  0.0325
 7391TIP3    H146368   3.745   4.071   1.455 -1.5154 -0.0705  1.4620
 7391TIP3    H246369   3.856   4.138   1.533 -0.4172 -0.6728  0.4424
 7392TIP3   OH246370   0.078   3.176   0.568  0.3375  0.1790  0.0004
 7392TIP3    H146371   0.160   3.170   0.616 -0.2477  1.4860  1.2564
 7392TIP3    H246372   0.035   3.091   0.581  0.4323  0.3228  1.3797
 7393TIP3   OH246373   5.659   0.969   0.556  0.0726  0.2153 -0.4613
 7393TIP3    H146374   5.565   0.963   0.574  0.5470 -0.7379  2.1782
 7393TIP3    H246375   5.670   0.932   0.468 -1.7032 -2.5366  0.3778
 7394TIP3   OH246376   1.300   5.736   2.834 -0.2146  0.3091  0.4551
 7394TIP3    H146377   1.290   5.781   2.918 -1.4149 -3.2159  2.4125
 7394TIP3    H246378   1.214   5.742   2.793 -0.8448 -1.4497  1.4628
 7395TIP3   OH246379   5.330   7.623   1.525 -0.0385  0.4821 -0.6045
 7395TIP3    H146380   5.328   7.699   1.583 -2.2608 -0.3247  0.5117
 7395TIP3    H246381   5.408   7.635   1.471  1.6928  1.7149  1.9733
 7396TIP3   OH246382   3.623   0.236   1.054 -0.7885 -0.1536 -0.2388
 7396TIP3    H146383   3.558   0.248   0.986 -1.2501 -0.2585  0.1766
 7396TIP3    H246384   3.626   0.320   1.100  0.9020  0.5588 -1.5547
 7397TIP3   OH246385   0.539   2.452   2.802  0.0817  0.1778  0.0145
 7397TIP3    H146386   0.605   2.412   2.745  0.4411 -0.8352  1.1063
 7397TIP3    H246387   0.460   2.457   2.747  1.5255  3.4386 -2.0596
 7398TIP3   OH246388   0.426   7.641   0.878  0.7181  0.3304 -0.5019
 7398TIP3    H146389   0.347   7.694   0.887  0.2325 -0.5707  0.8676
 7398TIP3    H246390   0.495   7.705   0.859  0.1491  1.4951  1.0523
 7399TIP3   OH246391   1.541   4.287   0.602  0.5662  0.0286 -0.1994
 7399TIP3    H146392   1.461   4.296   0.653  0.1600 -2.5716 -0.2215
 7399TIP3    H246393   1.593   4.364   0.625 -0.2671 -0.1990  2.8747
 7400TIP3   OH246394   5.497   4.661   1.956  0.2406  0.2929 -0.5558
 7400TIP3    H146395   5.551   4.708   2.019  0.3842 -0.5789 -0.0147
 7400TIP3    H246396   5.554   4.592   1.922 -0.6023 -0.8977  0.3227
 7401TIP3   OH246397   4.140   0.294   1.461 -0.4312  0.5551  1.0369
 7401TIP3    H146398   4.120   0.207   1.494  1.9869 -0.4317  0.1006
 7401TIP3    H246399   4.061   0.322   1.415 -1.6550 -0.6059  2.3498
 7402TIP3   OH246400   1.035   2.122   2.003  0.2756 -0.2666  0.1197
 7402TIP3    H146401   0.998   2.151   1.920 -0.6241 -0.8167  0.3158
 7402TIP3    H246402   1.108   2.065   1.978 -0.3387 -0.8909 -0.3204
 7403TIP3   OH246403   2.946   4.550   0.853  0.1750  0.5849 -0.4934
 7403TIP3    H146404   3.009   4.621   0.868 -0.8397  1.4844 -0.3234
 7403TIP3    H246405   2.959   4.490   0.926  0.6341  0.9048 -0.3069
 7404TIP3   OH246406   6.537   7.077   2.629  0.6725  0.0935 -0.0131
 7404TIP3    H146407   6.475   7.133   2.582  1.3481  0.2407 -0.7567
 7404TIP3    H246408   6.570   7.132   2.699 -0.6887 -0.2734  0.9650
 7405TIP3   OH246409   1.080   0.700   1.838  0.8509  0.6207 -0.8628
 7405TIP3    H146410   1.057   0.608   1.826  1.5442 -0.1341  2.5304
 7405TIP3    H246411   1.160   0.711   1.788  1.2882 -0.9126 -0.5627
 7406TIP3   OH246412   3.915   5.650   3.036 -0.0399  0.3898  0.0667
 7406TIP3    H146413   3.822   5.659   3.054 -0.5697 -2.6612 -0.6255
 7406TIP3    H246414   3.942   5.737   3.006 -2.6118  1.3789  0.3515
 7407TIP3   OH246415   4.320   5.163   1.355 -0.2719  0.1677  0.2218
 7407TIP3    H146416   4.322   5.256   1.335 -1.2510 -0.1422 -1.6231
 7407TIP3    H246417   4.371   5.122   1.285 -2.5012 -0.8909 -0.8910
 7408TIP3   OH246418   4.062   3.486   1.352 -0.1936  0.4881  0.2877
 7408TIP3    H146419   3.973   3.471   1.382 -0.7550  0.2145 -1.3867
 7408TIP3    H246420   4.090   3.402   1.315  1.3823  0.0964  2.1869
 7409TIP3   OH246421   3.872   0.416   2.217  0.3440  0.0683 -0.4690
 7409TIP3    H146422   3.949   0.464   2.185  0.0949  1.4255  0.8332
 7409TIP3    H246423   3.905   0.329   2.236  1.0975  0.0318 -1.7981
 7410TIP3   OH246424   0.976   0.921   3.065 -0.1042  0.3877 -0.5803
 7410TIP3    H146425   1.062   0.945   3.030  0.8725 -1.1969  0.5927
 7410TIP3    H246426   0.995   0.870   3.144 -2.0579 -1.7305 -1.3613
 7411TIP3   OH246427   2.929   5.390   1.164 -0.0849 -0.5370 -0.1389
 7411TIP3    H146428   2.965   5.369   1.250 -0.4552 -0.5048  0.0246
 7411TIP3    H246429   2.893   5.479   1.174 -2.9585 -1.6816  0.5947
 7412TIP3   OH246430   0.585   0.051   1.168  0.2816 -0.5619  0.0482
 7412TIP3    H146431   0.546   0.130   1.130 -0.3443 -2.6817 -4.1858
 7412TIP3    H246432   0.511  -0.006   1.187  0.8028 -0.6502  2.1449
 7413TIP3   OH246433   5.054   6.897   0.768  0.3493 -0.1603  0.4978
 7413TIP3    H146434   5.096   6.895   0.854  0.2094  1.8072  0.6522
 7413TIP3    H246435   5.123   6.868   0.708  0.9757  0.0457  1.0972
 7414TIP3   OH246436   0.789   1.709   3.409 -0.0231  0.0585 -0.2511
 7414TIP3    H146437   0.752   1.635   3.360  0.0937  0.7423 -1.4131
 7414TIP3    H246438   0.713   1.757   3.441 -0.0989 -0.6837  0.7138
 7415TIP3   OH246439   6.324   6.845   2.769 -0.2554 -0.2435  0.0956
 7415TIP3    H146440   6.360   6.759   2.790 -2.3920 -1.1490  0.3372
 7415TIP3    H246441   6.236   6.844   2.806  0.0569  2.5290  1.1540
 7416TIP3   OH246442   5.289   4.632   1.279  0.2056  0.1136 -0.6392
 7416TIP3    H146443   5.276   4.619   1.373  0.6421 -1.2321 -0.7413
 7416TIP3    H246444   5.267   4.724   1.264 -1.7259 -0.1153  0.4454
 7417TIP3   OH246445   1.566   0.067   1.513 -0.0446 -0.1057 -0.2970
 7417TIP3    H146446   1.511   0.143   1.535 -0.1573  0.1854 -1.5092
 7417TIP3    H246447   1.565   0.014   1.592 -2.0711 -0.0934 -0.2431
 7418TIP3   OH246448   0.359   5.702   2.203  0.2490  0.2241  0.1831
 7418TIP3    H146449   0.392   5.788   2.226  0.2724 -0.4021  2.7768
 7418TIP3    H246450   0.264   5.713   2.196 -0.0850  0.0365  3.1859
 7419TIP3   OH246451   6.392   4.130   2.457  0.0620 -0.8741 -0.8508
 7419TIP3    H146452   6.423   4.043   2.480  0.6425 -0.1960  1.2398
 7419TIP3    H246453   6.343   4.159   2.534  0.5881  0.9499 -1.1461
 7420TIP3   OH246454   7.022   4.728   2.233 -0.4648  0.0792 -0.5896
 7420TIP3    H146455   7.088   4.795   2.253 -0.4438  0.0821 -0.6720
 7420TIP3    H246456   7.062   4.674   2.165  0.8489 -1.9391  1.6272
 7421TIP3   OH246457   3.482   5.657   3.057  0.2641 -0.1162  0.1911
 7421TIP3    H146458   3.477   5.724   3.124 -0.1963  1.6060 -1.4817
 7421TIP3    H246459   3.553   5.685   3.000 -1.3751  0.2426 -1.8066
 7422TIP3   OH246460   2.034   5.771   1.330  0.3055  0.0225  0.3901
 7422TIP3    H146461   2.094   5.762   1.256 -0.1108  1.0059 -0.0758
 7422TIP3    H246462   2.003   5.861   1.326 -0.5307 -0.2139  1.1427
 7423TIP3   OH246463   4.527   3.443   1.030 -0.0250 -0.3723 -0.4534
 7423TIP3    H146464   4.557   3.385   1.100 -0.2000  0.7218  0.5661
 7423TIP3    H246465   4.557   3.530   1.057  0.2022  0.0217 -1.9216
 7424TIP3   OH246466   3.648   3.192   3.245  0.2481 -0.0180 -0.0805
 7424TIP3    H146467   3.575   3.133   3.262 -0.5219  0.9407  0.0476
 7424TIP3    H246468   3.682   3.164   3.160  0.1978 -0.9341  0.1927
 7425TIP3   OH246469   5.910   2.985   1.715 -0.2567 -0.4158 -0.0869
 7425TIP3    H146470   5.889   3.036   1.637  2.0656 -0.2732 -0.6921
 7425TIP3    H246471   5.972   3.039   1.763 -3.7787  0.9196  3.6053
 7426TIP3   OH246472   1.120   1.329   0.831  0.3932 -0.1399 -0.2908
 7426TIP3    H146473   1.110   1.252   0.886 -0.6524 -0.2931 -0.6867
 7426TIP3    H246474   1.146   1.294   0.745 -1.0572 -0.1477 -0.7486
 7427TIP3   OH246475   6.295   6.312   2.352  0.3823 -0.4536 -0.2843
 7427TIP3    H146476   6.283   6.239   2.413  2.3329 -2.5168 -2.1805
 7427TIP3    H246477   6.207   6.348   2.341 -0.5809 -2.1534  1.1705
 7428TIP3   OH246478   6.255   1.116   1.615  0.3753  0.3266 -0.2421
 7428TIP3    H146479   6.322   1.087   1.554  0.6722 -1.0034  0.6784
 7428TIP3    H246480   6.180   1.059   1.598  0.7400 -0.6241  1.1473
 7429TIP3   OH246481   0.766   1.034   1.434 -0.8860 -0.0723  0.0257
 7429TIP3    H146482   0.782   0.972   1.364  0.8278 -0.0875  0.3895
 7429TIP3    H246483   0.677   1.015   1.464 -1.4582 -0.3728 -1.7942
 7430TIP3   OH246484   1.427   6.799   2.275 -0.0222  0.0453 -0.0017
 7430TIP3    H146485   1.348   6.746   2.271  0.2483 -0.3238 -0.6580
 7430TIP3    H246486   1.485   6.752   2.335 -0.4909  0.5827  0.8758
 7431TIP3   OH246487   4.096   6.208   0.890  0.0373 -0.0649 -0.1093
 7431TIP3    H146488   4.102   6.112   0.891  0.2235 -0.0525  1.0307
 7431TIP3    H246489   4.161   6.235   0.825  1.5375 -0.6316  1.0958
 7432TIP3   OH246490   0.631   5.820   0.674  0.0231  0.4498  0.0456
 7432TIP3    H146491   0.537   5.811   0.693 -0.1104 -1.6811 -1.3142
 7432TIP3    H246492   0.667   5.733   0.690  1.7474  1.1629  0.2451
 7433TIP3   OH246493   0.819   0.303   0.749 -0.0476  0.3255 -0.3786
 7433TIP3    H146494   0.900   0.275   0.792 -0.2139  0.3090 -0.0746
 7433TIP3    H246495   0.769   0.347   0.817 -0.5335 -0.1479 -0.4234
 7434TIP3   OH246496   4.578   0.135   1.670 -0.4029  0.0368  0.5239
 7434TIP3    H146497   4.566   0.158   1.578 -0.3802 -2.0945 -0.0432
 7434TIP3    H246498   4.551   0.044   1.677 -0.9309  0.2955  2.7620
 7435TIP3   OH246499   0.647   6.999   2.494 -0.7486 -0.2139  0.6665
 7435TIP3    H146500   0.642   7.091   2.470 -1.3764  0.1862  2.2196
 7435TIP3    H246501   0.561   6.964   2.472 -1.0610 -0.0295  1.5558
 7436TIP3   OH246502   1.821   7.631   3.361 -0.0475 -0.0928 -0.0595
 7436TIP3    H146503   1.851   7.678   3.439  0.9611  0.4480 -0.7527
 7436TIP3    H246504   1.772   7.697   3.312 -0.4687 -0.3676 -0.0155
 7437TIP3   OH246505   3.620   6.902   2.060  0.1098  0.1508 -0.1121
 7437TIP3    H146506   3.623   6.972   1.995  0.9432  1.0233  0.8466
 7437TIP3    H246507   3.707   6.903   2.100 -0.8087  0.5567  1.9798
 7438TIP3   OH246508   6.333   5.169   3.212  0.0705  0.5842  0.0550
 7438TIP3    H146509   6.257   5.220   3.185 -1.0097 -0.9088  0.1266
 7438TIP3    H246510   6.355   5.116   3.135  1.1376  1.0873 -0.0067
 7439TIP3   OH246511   2.424   5.876   1.290  0.2122 -0.2132  0.2477
 7439TIP3    H146512   2.512   5.904   1.267 -0.9576  3.1075 -0.6648
 7439TIP3    H246513   2.414   5.791   1.245  1.8956  0.7871 -2.2278
 7440TIP3   OH246514   0.781   1.300   1.323 -0.2604 -0.6976 -0.0707
 7440TIP3    H146515   0.787   1.283   1.417 -3.0147  2.0812  0.7798
 7440TIP3    H246516   0.707   1.248   1.293 -1.6626  1.0583  0.1685
 7441TIP3   OH246517   5.167   0.720   0.838  0.5579  0.6782  0.3846
 7441TIP3    H146518   5.201   0.640   0.798  1.8316  1.1828  0.4171
 7441TIP3    H246519   5.166   0.702   0.932 -2.1332 -0.3920  0.2376
 7442TIP3   OH246520   1.473   4.110   1.571  0.0204  0.0053  0.1819
 7442TIP3    H146521   1.541   4.161   1.615  0.0809 -0.0425  0.1432
 7442TIP3    H246522   1.520   4.059   1.505 -0.2209  1.1342 -0.9066
 7443TIP3   OH246523   3.383   7.289   2.036 -0.4763 -0.1600  0.5897
 7443TIP3    H146524   3.468   7.324   2.065 -0.4615  1.3075 -1.0733
 7443TIP3    H246525   3.323   7.314   2.106 -0.0073  1.1527  0.5644
 7444TIP3   OH246526   0.137   2.831   0.955  0.0580 -0.0150  0.0119
 7444TIP3    H146527   0.216   2.777   0.954  0.8584  1.0346 -2.3059
 7444TIP3    H246528   0.128   2.860   1.046  2.8098  0.4711  0.1998
 7445TIP3   OH246529   3.722   2.119   1.336 -0.1747 -0.2476  0.1844
 7445TIP3    H146530   3.636   2.159   1.321 -0.4662 -0.8233  0.2702
 7445TIP3    H246531   3.708   2.062   1.412 -0.3060 -2.0639 -1.1413
 7446TIP3   OH246532   4.446   6.471   2.503  0.1431 -0.4172 -0.3276
 7446TIP3    H146533   4.494   6.435   2.578 -0.3730  0.3981  0.4204
 7446TIP3    H246534   4.433   6.397   2.445  0.2856 -1.1385  0.5389
 7447TIP3   OH246535   6.819   4.584   2.337  0.0527  0.1871  0.4497
 7447TIP3    H146536   6.880   4.648   2.301 -0.1838  0.3131  0.2671
 7447TIP3    H246537   6.735   4.605   2.296  0.1253 -0.7047 -0.1661
 7448TIP3   OH246538   7.243   6.459   2.665  0.4204 -0.2497 -0.5925
 7448TIP3    H146539   7.227   6.456   2.571 -0.7902 -2.9281 -0.3984
 7448TIP3    H246540   7.157   6.443   2.704  1.2121 -1.0358  0.8973
 7449TIP3   OH246541   4.589   3.212   1.187 -0.2108 -0.1795  0.3062
 7449TIP3    H146542   4.562   3.126   1.154  1.4589 -0.3154 -0.8455
 7449TIP3    H246543   4.683   3.203   1.201 -0.2003  1.1623  1.1926
 7450TIP3   OH246544   2.391   1.804   3.347  0.0782  0.3171  0.1271
 7450TIP3    H146545   2.398   1.720   3.393 -0.3440  0.1183 -0.1671
 7450TIP3    H246546   2.469   1.853   3.374  0.6190 -0.3869 -0.1461
 7451TIP3   OH246547   3.985   5.462   3.247 -0.0590  0.0913 -0.1189
 7451TIP3    H146548   3.937   5.518   3.186 -0.4211 -1.2923 -1.1326
 7451TIP3    H246549   3.919   5.402   3.282  0.7433 -1.2776 -0.8925
 7452TIP3   OH246550   6.173   1.511   2.052  0.0304 -0.6040  0.2860
 7452TIP3    H146551   6.154   1.477   2.140 -0.4579  2.6261  1.5801
 7452TIP3    H246552   6.116   1.587   2.043  1.8369  0.6117 -1.8299
 7453TIP3   OH246553   2.778   2.431   3.360 -0.4537 -0.2923  0.0859
 7453TIP3    H146554   2.777   2.490   3.285 -1.9359 -1.9038 -1.2298
 7453TIP3    H246555   2.854   2.376   3.346 -0.5041 -0.3357 -0.0146
 7454TIP3   OH246556   1.696   4.353   3.148 -0.1193 -0.7095  0.2186
 7454TIP3    H146557   1.724   4.388   3.233 -1.1428 -1.4289  0.8776
 7454TIP3    H246558   1.776   4.351   3.095  0.3870  0.4820  0.8990
 7455TIP3   OH246559   0.479   2.274   3.482 -0.0071 -0.1305  0.2627
 7455TIP3    H146560   0.462   2.187   3.446  0.0731  0.5645 -1.5605
 7455TIP3    H246561   0.414   2.331   3.440 -2.0369  0.2894  3.6188
 7456TIP3   OH246562   1.871   0.967   1.165 -0.0994  0.2956 -0.0661
 7456TIP3    H146563   1.850   1.027   1.094 -0.0112  0.0474 -0.3064
 7456TIP3    H246564   1.808   0.988   1.234 -0.6891  0.0227 -0.5098
 7457TIP3   OH246565   6.317   6.029   3.532  0.3923  0.4679 -0.3367
 7457TIP3    H146566   6.250   6.096   3.518 -0.3022 -0.1683 -0.1114
 7457TIP3    H246567   6.391   6.076   3.569 -0.5927  0.9004  1.1761
 7458TIP3   OH246568   2.763   0.482   0.569 -0.0267 -0.1031 -0.6320
 7458TIP3    H146569   2.729   0.464   0.481 -1.3429  1.5001 -0.5122
 7458TIP3    H246570   2.836   0.542   0.555 -1.2576  1.4774 -0.6104
 7459TIP3   OH246571   4.511   5.504   0.643  0.3707 -0.7716  0.3936
 7459TIP3    H146572   4.519   5.432   0.706 -0.9849 -1.1388  0.1759
 7459TIP3    H246573   4.499   5.461   0.559  0.5469 -0.2881  0.1187
 7460TIP3   OH246574   6.572   4.135   1.894 -0.0061 -0.6408 -0.6930
 7460TIP3    H146575   6.558   4.129   1.988 -0.5932 -0.6188 -0.7758
 7460TIP3    H246576   6.543   4.224   1.872 -0.3590 -0.8255 -0.9753
 7461TIP3   OH246577   1.243   5.729   2.442 -0.3584  0.5922  0.3842
 7461TIP3    H146578   1.208   5.650   2.483 -0.7128  0.7211  0.3329
 7461TIP3    H246579   1.167   5.788   2.435  0.0304  1.1804  1.0153
 7462TIP3   OH246580   2.610   4.575   2.332  0.6504  0.3919  0.7171
 7462TIP3    H146581   2.579   4.610   2.248 -0.9228 -0.8670  0.7176
 7462TIP3    H246582   2.601   4.480   2.322 -1.3042  0.2562  2.9014
 7463TIP3   OH246583   2.780   3.150   2.431 -0.1038  0.2650 -0.6998
 7463TIP3    H146584   2.789   3.169   2.524  0.9683  0.9245 -0.9258
 7463TIP3    H246585   2.696   3.103   2.424 -1.1363  1.8757  0.3284
 7464TIP3   OH246586   1.283   1.065   1.829  0.1463  0.2204  0.1066
 7464TIP3    H146587   1.379   1.074   1.833  0.1925 -0.5107  1.5387
 7464TIP3    H246588   1.251   1.128   1.894 -0.4281  1.1176 -1.0030
 7465TIP3   OH246589   6.021   5.066   3.418 -0.0540 -0.0196  0.3328
 7465TIP3    H146590   6.107   5.029   3.403  0.0216  0.9232 -1.9771
 7465TIP3    H246591   5.964   4.990   3.429  0.6275 -0.7587 -0.9858
 7466TIP3   OH246592   1.381   5.868   1.492 -0.3053  0.2616 -0.0292
 7466TIP3    H146593   1.364   5.786   1.447 -0.6477 -0.1975  0.9132
 7466TIP3    H246594   1.400   5.931   1.422 -0.3913 -0.5298 -0.7734
 7467TIP3   OH246595   1.585   0.717   0.938  0.0987 -0.3690  0.2966
 7467TIP3    H146596   1.676   0.726   0.909  0.2456 -0.7270  0.6335
 7467TIP3    H246597   1.545   0.660   0.873  0.9009 -2.6989  1.7190
 7468TIP3   OH246598   4.264   1.990   0.918  0.0560 -0.0489  1.2111
 7468TIP3    H146599   4.348   2.024   0.947  0.3327 -0.0765  0.4591
 7468TIP3    H246600   4.206   2.066   0.918  0.0791 -0.0247  1.7029
 7469TIP3   OH246601   5.241   4.273   0.861  0.3524 -0.0911  0.7395
 7469TIP3    H146602   5.242   4.368   0.868  1.1228 -0.1394  1.4993
 7469TIP3    H246603   5.320   4.245   0.908 -0.9792 -1.2081  2.4386
 7470TIP3   OH246604   5.920   7.523   1.724  0.4495 -0.2513  0.0977
 7470TIP3    H146605   5.828   7.511   1.699 -0.2506  0.6757  2.0330
 7470TIP3    H246606   5.931   7.618   1.730  1.0618 -0.3868  1.4601
 7471TIP3   OH246607   2.446   4.311   0.862 -0.2419  0.0702 -0.6652
 7471TIP3    H146608   2.389   4.385   0.884  0.3638  0.2115  0.5063
 7471TIP3    H246609   2.426   4.245   0.927 -0.0942 -0.4394 -1.1334
 7472TIP3   OH246610   1.208   0.785   1.061 -1.0604  0.0350 -0.0632
 7472TIP3    H146611   1.251   0.764   1.143 -0.8611 -2.6579 -0.7604
 7472TIP3    H246612   1.189   0.878   1.067 -1.7252 -0.2017  3.3249
 7473TIP3   OH246613   3.214   0.913   3.177 -0.7848  0.7857  0.5599
 7473TIP3    H146614   3.156   0.944   3.108 -2.0491 -1.1645  0.6941
 7473TIP3    H246615   3.258   0.836   3.140  1.3002  1.8293  0.6927
 7474TIP3   OH246616   0.531   0.179   3.054 -0.1520 -0.3460  0.0629
 7474TIP3    H146617   0.495   0.128   3.127  1.0074 -0.1291  0.8036
 7474TIP3    H246618   0.611   0.219   3.089  0.1041  0.2524 -1.1487
 7475TIP3   OH246619   1.294   1.557   2.478  0.6174 -0.6386  0.3389
 7475TIP3    H146620   1.387   1.569   2.459 -0.0126  2.1142 -1.4783
 7475TIP3    H246621   1.261   1.645   2.493 -1.8839 -1.4641  0.1170
 7476TIP3   OH246622   0.479   6.338   2.133 -0.4475 -0.2559 -0.1014
 7476TIP3    H146623   0.429   6.256   2.130  0.7221 -0.9563 -1.2945
 7476TIP3    H246624   0.435   6.395   2.070  0.1547 -0.8383 -1.0774
 7477TIP3   OH246625   2.588   4.717   1.712 -0.4421 -0.1385  0.0714
 7477TIP3    H146626   2.633   4.759   1.785 -1.1972  0.2047  0.3619
 7477TIP3    H246627   2.513   4.672   1.753  1.0661 -2.9749 -0.0374
 7478TIP3   OH246628   4.604   4.901   1.778  0.3059  0.1364  0.3686
 7478TIP3    H146629   4.605   4.835   1.848  0.9395 -0.3617 -0.1005
 7478TIP3    H246630   4.639   4.855   1.702  0.1739  0.8483 -0.1229
 7479TIP3   OH246631   3.571   1.973   8.095  0.6169 -0.4104 -0.0409
 7479TIP3    H146632   3.652   1.927   8.116  1.2420  0.8798  0.5332
 7479TIP3    H246633   3.574   2.052   8.150 -0.9676 -0.2744 -0.1093
 7480TIP3   OH246634   5.403   6.799   2.171 -0.5512  0.5320  0.3763
 7480TIP3    H146635   5.487   6.822   2.130 -1.3222  1.7407 -0.5820
 7480TIP3    H246636   5.417   6.710   2.204  0.6976  0.2041 -0.9030
 7481TIP3   OH246637   4.715   0.664   1.526  0.4795  0.1541 -0.4028
 7481TIP3    H146638   4.720   0.593   1.591 -1.7306 -0.1795 -0.5259
 7481TIP3    H246639   4.805   0.677   1.498  1.1510 -1.4992  0.8187
 7482TIP3   OH246640   3.208   1.932   2.664  0.2332  0.0946 -0.4748
 7482TIP3    H146641   3.166   2.012   2.634 -0.5300 -0.2591 -0.3509
 7482TIP3    H246642   3.256   1.958   2.743 -0.6690  0.2549  0.0225
 7483TIP3   OH246643   3.264   1.709   2.823 -0.0019  0.1222 -0.2384
 7483TIP3    H146644   3.189   1.755   2.787  0.6827  1.1192 -0.4262
 7483TIP3    H246645   3.274   1.744   2.911  0.7187  0.5935 -0.4979
 7484TIP3   OH246646   2.301   7.609   0.982 -0.0599 -0.1314  0.6459
 7484TIP3    H146647   2.364   7.547   0.945 -0.4010 -1.0513  1.5475
 7484TIP3    H246648   2.354   7.669   1.035  0.0324 -1.2708  1.8936
 7485TIP3   OH246649   7.551   5.207   2.851  0.2605  0.1136  0.2416
 7485TIP3    H146650   7.599   5.278   2.894  1.4620  0.7843 -2.0192
 7485TIP3    H246651   7.461   5.238   2.846  0.6362  1.2013 -0.0824
 7486TIP3   OH246652   1.538   1.739   1.226  0.2841 -0.1370  0.5303
 7486TIP3    H146653   1.483   1.660   1.225  0.4027 -0.3395 -2.7567
 7486TIP3    H246654   1.475   1.811   1.234 -0.7541 -0.3617 -3.2741
 7487TIP3   OH246655   4.256   0.928   2.915 -0.5772 -0.2372 -0.0224
 7487TIP3    H146656   4.244   1.021   2.930 -1.1738 -0.2672 -0.2821
 7487TIP3    H246657   4.181   0.887   2.957  0.0682 -0.6683  0.7488
 7488TIP3   OH246658   6.841   5.148   3.532 -0.1593 -0.5572  0.3433
 7488TIP3    H146659   6.793   5.115   3.456 -0.6411 -1.1031  0.8814
 7488TIP3    H246660   6.818   5.241   3.535 -1.1830 -0.8002  0.5748
 7489TIP3   OH246661   4.789   0.967   2.812  0.1706 -0.3736 -0.2231
 7489TIP3    H146662   4.824   1.023   2.881 -0.9328  1.5794 -1.1695
 7489TIP3    H246663   4.713   0.925   2.853  0.3997 -0.3865  0.1961
 7490TIP3   OH246664   4.888   1.295   1.120  0.0692  0.3828  0.0329
 7490TIP3    H146665   4.886   1.301   1.215 -0.4812  0.3236  0.0265
 7490TIP3    H246666   4.947   1.221   1.102  1.5137  1.4243  0.2717
 7491TIP3   OH246667   0.713   6.243   1.405  0.1268  0.4569 -0.3403
 7491TIP3    H146668   0.741   6.157   1.438 -1.7111  0.2038  0.7123
 7491TIP3    H246669   0.691   6.227   1.314 -1.0749 -0.4619  0.0740
 7492TIP3   OH246670   1.673   5.879   0.564  0.8693 -0.4864 -0.0979
 7492TIP3    H146671   1.589   5.893   0.607  0.9348 -0.5590  0.0524
 7492TIP3    H246672   1.694   5.788   0.581  0.1050 -0.9891 -1.6633
 7493TIP3   OH246673   1.043   4.197   2.934 -0.1636  0.1872  0.0919
 7493TIP3    H146674   1.061   4.224   2.844  0.4695 -0.1857  0.1058
 7493TIP3    H246675   1.032   4.102   2.929  1.2398 -0.0247  0.6161
 7494TIP3   OH246676   3.515   1.248   1.181 -0.5657 -0.1293  0.2433
 7494TIP3    H146677   3.423   1.262   1.203 -0.2250 -0.4111  1.9007
 7494TIP3    H246678   3.524   1.154   1.171 -0.2944 -0.1636  0.8154
 7495TIP3   OH246679   4.136   4.353   1.581  0.3324 -0.2567 -0.0861
 7495TIP3    H146680   4.227   4.352   1.551  0.0478  0.8766 -1.0536
 7495TIP3    H246681   4.124   4.442   1.616 -0.4072 -0.4021  0.0365
 7496TIP3   OH246682   1.262   0.218   2.493 -0.1053 -0.6603  0.2438
 7496TIP3    H146683   1.174   0.252   2.508 -0.3366 -1.6901  1.3573
 7496TIP3    H246684   1.267   0.208   2.398 -1.7625 -1.9792  0.2430
 7497TIP3   OH246685   6.864   0.797   1.856  0.1549  0.7067 -0.0860
 7497TIP3    H146686   6.949   0.771   1.821  0.8749  1.1061  1.2960
 7497TIP3    H246687   6.802   0.778   1.785  1.4873  1.1834 -1.4356
 7498TIP3   OH246688   3.210   7.235   1.309  0.4088 -0.0913 -0.1581
 7498TIP3    H146689   3.124   7.270   1.332  0.1016  0.3209 -1.8275
 7498TIP3    H246690   3.221   7.158   1.365 -0.9100  0.0293  0.2838
 7499TIP3   OH246691   5.967   7.363   0.671 -0.0652  0.2902 -0.0518
 7499TIP3    H146692   5.946   7.394   0.758 -0.5517 -0.2213  0.0203
 7499TIP3    H246693   5.930   7.428   0.612 -1.0606 -0.1231  0.0965
 7500TIP3   OH246694   5.231   0.171   3.287  0.1895  0.6464  0.0688
 7500TIP3    H146695   5.324   0.171   3.309  0.5838 -0.3986 -1.4684
 7500TIP3    H246696   5.226   0.128   3.202 -1.6317  1.3218 -0.2159
 7501TIP3   OH246697   3.153   6.481   0.702 -0.0031 -0.3042 -0.4362
 7501TIP3    H146698   3.116   6.401   0.663  0.9296 -1.2544  0.5426
 7501TIP3    H246699   3.246   6.476   0.680 -0.2503  1.6773 -2.2603
 7502TIP3   OH246700   2.835   6.555   2.739 -0.2768 -0.8704  0.2235
 7502TIP3    H146701   2.761   6.549   2.678 -0.9278  0.4116  0.8591
 7502TIP3    H246702   2.909   6.579   2.684 -0.7559 -0.2116 -0.1434
 7503TIP3   OH246703   3.066   4.362   2.637 -0.1603  0.0953 -0.6655
 7503TIP3    H146704   3.030   4.434   2.689  0.1953  0.6115 -1.1272
 7503TIP3    H246705   3.083   4.400   2.551  1.2774 -0.1723 -0.5376
 7504TIP3   OH246706   0.547   7.278   1.989 -0.3275  0.0281 -0.4176
 7504TIP3    H146707   0.601   7.357   1.985  0.4700 -0.4893 -0.1346
 7504TIP3    H246708   0.459   7.308   1.969 -0.0742  1.0272 -0.0846
 7505TIP3   OH246709   4.620   4.469   2.023 -0.3784  0.0448  0.1221
 7505TIP3    H146710   4.528   4.483   2.045 -0.0221  0.6965  1.3329
 7505TIP3    H246711   4.667   4.489   2.104  0.9954  1.7670 -1.0161
 7506TIP3   OH246712   3.621   0.197   1.470 -0.0278 -0.5838  0.0325
 7506TIP3    H146713   3.611   0.268   1.406 -0.4867 -0.0817  0.6480
 7506TIP3    H246714   3.668   0.236   1.543 -1.4036 -0.5304  0.9345
 7507TIP3   OH246715   2.343   4.600   2.539  0.1766 -0.0451  0.2727
 7507TIP3    H146716   2.328   4.522   2.487  0.1497 -0.8036  1.3718
 7507TIP3    H246717   2.306   4.672   2.488 -0.5377 -0.8683 -0.3812
 7508TIP3   OH246718   3.685   2.483   2.679  0.1950 -0.3696  0.4717
 7508TIP3    H146719   3.608   2.514   2.631 -0.9349 -1.7626  1.2969
 7508TIP3    H246720   3.704   2.554   2.741 -1.0942 -0.4198  0.9659
 7509TIP3   OH246721   5.934   4.926   2.628  0.1697  0.2349  0.7547
 7509TIP3    H146722   6.027   4.948   2.630  0.4695 -0.5943 -1.3722
 7509TIP3    H246723   5.927   4.846   2.680  0.4998  0.7129  1.5517
 7510TIP3   OH246724   1.765   5.485   2.457 -0.0420  0.1736  0.1670
 7510TIP3    H146725   1.724   5.462   2.540 -2.8840 -1.1676 -1.4880
 7510TIP3    H246726   1.695   5.524   2.405  1.7499  1.3392 -1.5158
 7511TIP3   OH246727   2.576   4.758   1.387  0.5298 -0.4047 -0.0063
 7511TIP3    H146728   2.503   4.703   1.415  1.0811 -0.3993  1.5102
 7511TIP3    H246729   2.648   4.697   1.373  0.8859 -0.1765  0.7941
 7512TIP3   OH246730   3.684   3.151   2.469 -0.2128  0.0896  0.0185
 7512TIP3    H146731   3.608   3.207   2.449 -1.0870 -0.5010  1.5615
 7512TIP3    H246732   3.698   3.162   2.563  1.3214 -0.2169 -0.1520
 7513TIP3   OH246733   6.328   6.107   0.562 -0.3794  0.2678 -0.4244
 7513TIP3    H146734   6.241   6.132   0.592  0.1265  1.3057  0.2319
 7513TIP3    H246735   6.369   6.190   0.537  0.6032 -0.1438 -0.2149
 7514TIP3   OH246736   2.314   1.812   0.722  0.5037 -0.2642 -0.3026
 7514TIP3    H146737   2.221   1.800   0.705  0.5648 -0.2416 -0.6668
 7514TIP3    H246738   2.355   1.733   0.684  0.7169  0.1498 -0.9570
 7515TIP3   OH246739   6.433   6.235   1.884  0.5797  0.3064 -0.1195
 7515TIP3    H146740   6.487   6.266   1.956  0.9303  0.2536 -0.3554
 7515TIP3    H246741   6.458   6.291   1.810  0.0342  0.5341 -0.1347
 7516TIP3   OH246742   7.361   0.180   0.679  0.1116 -0.3784  0.0673
 7516TIP3    H146743   7.324   0.217   0.599 -1.1130  0.3065  0.9101
 7516TIP3    H246744   7.451   0.211   0.680 -0.4295  1.3288 -0.0506
 7517TIP3   OH246745   4.978   7.263   2.662  0.4279 -0.5137 -0.0663
 7517TIP3    H146746   4.949   7.197   2.725  1.0194 -0.6131  0.1000
 7517TIP3    H246747   4.961   7.347   2.705 -1.6265 -0.4745 -0.8110
 7518TIP3   OH246748   7.124   1.061   1.867  0.1593 -0.4808 -0.4442
 7518TIP3    H146749   7.030   1.075   1.878  0.2257  0.8201 -1.3549
 7518TIP3    H246750   7.152   1.127   1.803  2.0222  0.3503  1.1067
 7519TIP3   OH246751   1.794   0.286   1.995  0.2216 -0.4286  0.3017
 7519TIP3    H146752   1.762   0.254   2.080 -1.6584 -1.0125 -0.5533
 7519TIP3    H246753   1.848   0.215   1.961  1.6738  0.1413  1.3243
 7520TIP3   OH246754   6.001   4.213   3.182 -0.4878 -0.0527 -0.1440
 7520TIP3    H146755   6.096   4.214   3.168 -0.3893 -0.6468  0.4729
 7520TIP3    H246756   5.973   4.300   3.154  0.3170  0.3420  0.2324
 7521TIP3   OH246757   1.405   5.503   2.687  0.0388  0.0902 -0.4544
 7521TIP3    H146758   1.399   5.530   2.595 -0.0807 -0.1119 -0.5065
 7521TIP3    H246759   1.381   5.581   2.737  1.4509  0.6192 -0.5552
 7522TIP3   OH246760   1.672   1.292   1.445  0.2741  0.3899 -0.3042
 7522TIP3    H146761   1.661   1.371   1.497 -1.3955  0.5101 -0.7744
 7522TIP3    H246762   1.750   1.249   1.482  0.7461  1.8358  0.4597
 7523TIP3   OH246763   2.686   1.314   1.472 -0.0302  0.0831 -0.1527
 7523TIP3    H146764   2.743   1.312   1.549  0.0787 -2.6914 -0.2225
 7523TIP3    H246765   2.716   1.242   1.417 -1.1125  1.0310 -2.0951
 7524TIP3   OH246766   4.437   3.100   2.219  0.2880 -0.0488  0.2831
 7524TIP3    H146767   4.501   3.039   2.182 -0.9301 -2.0803  1.3945
 7524TIP3    H246768   4.358   3.086   2.166 -0.5103 -0.7123  1.6115
 7525TIP3   OH246769   5.620   5.118   1.141  0.3755 -0.1240  0.7921
 7525TIP3    H146770   5.565   5.196   1.142 -1.5160 -1.3349 -0.8761
 7525TIP3    H246771   5.592   5.067   1.217  0.8238  0.2758  1.2357
 7526TIP3   OH246772   6.095   3.974   2.098  0.4155 -0.0358 -0.5340
 7526TIP3    H146773   6.099   4.068   2.081 -0.2119 -0.1375 -1.3205
 7526TIP3    H246774   6.036   3.940   2.031  1.0434 -1.0711 -0.5887
 7527TIP3   OH246775   1.591   3.363   2.241  0.4967 -0.5559 -0.0257
 7527TIP3    H146776   1.550   3.296   2.187 -0.5429  0.3124 -0.3468
 7527TIP3    H246777   1.536   3.441   2.230  0.9467 -0.0049  1.3252
 7528TIP3   OH246778   3.544   7.472   1.495  0.2693  0.0150 -0.2572
 7528TIP3    H146779   3.623   7.455   1.443  0.1324 -0.9087 -0.1837
 7528TIP3    H246780   3.576   7.497   1.581  0.5062  1.8273 -0.8237
 7529TIP3   OH246781   4.537   0.874   2.891 -0.4739  0.1275 -0.4985
 7529TIP3    H146782   4.554   0.781   2.902 -0.0706  0.4845  2.7049
 7529TIP3    H246783   4.442   0.883   2.902 -0.4730  0.1584 -0.5127
 7530TIP3   OH246784   0.431   1.570   1.421 -0.1048  0.2355 -0.0701
 7530TIP3    H146785   0.423   1.487   1.468  2.2804 -1.1044 -1.8127
 7530TIP3    H246786   0.397   1.550   1.333  0.3467  1.1490 -0.4583
 7531TIP3   OH246787   1.969   1.829   0.926  0.3793  0.5630 -0.1496
 7531TIP3    H146788   1.890   1.774   0.927  0.7523  0.0399  0.3290
 7531TIP3    H246789   1.997   1.827   0.834  0.4832 -0.1804 -0.1100
 7532TIP3   OH246790   2.171   7.073   1.901 -0.0997 -0.3736 -0.5549
 7532TIP3    H146791   2.087   7.066   1.857  0.7900  2.2044 -2.9358
 7532TIP3    H246792   2.149   7.085   1.993 -2.4026  0.9182 -1.1966
 7533TIP3   OH246793   2.931   6.988   1.470 -0.3655  0.5645 -0.3514
 7533TIP3    H146794   3.016   6.990   1.427  0.0249  2.2272  0.4051
 7533TIP3    H246795   2.927   6.902   1.512  0.3043 -0.0900 -1.5871
 7534TIP3   OH246796   7.545   0.507   1.109 -0.1617  0.1858 -0.0026
 7534TIP3    H146797   7.489   0.544   1.040  2.5372  0.9099 -1.9818
 7534TIP3    H246798   7.543   0.572   1.179 -3.1333 -0.6668  0.8865
 7535TIP3   OH246799   1.912   7.613   1.529  0.1675 -0.7474 -0.4329
 7535TIP3    H146800   1.883   7.549   1.594  1.6177 -1.5198 -0.4817
 7535TIP3    H246801   1.899   7.698   1.570 -2.0675 -1.0314 -0.4791
 7536TIP3   OH246802   3.783   5.450   1.822 -0.4163  0.0123 -0.0002
 7536TIP3    H146803   3.748   5.510   1.888 -0.2111 -0.7610  0.8360
 7536TIP3    H246804   3.878   5.461   1.828 -0.2762 -1.3345  1.1443
 7537TIP3   OH246805   7.112   0.105   2.494 -0.3999  0.1394 -0.0690
 7537TIP3    H146806   7.086   0.178   2.550 -0.1337  0.4500 -0.3477
 7537TIP3    H246807   7.099   0.137   2.405 -1.5419 -0.6171 -0.1936
 7538TIP3   OH246808   7.342   2.101   2.660 -0.0206 -0.4201 -0.8689
 7538TIP3    H146809   7.403   2.158   2.613  2.5601 -1.8969  0.4681
 7538TIP3    H246810   7.354   2.124   2.752 -1.3780 -0.8981 -0.5500
 7539TIP3   OH246811   6.748   5.030   3.227 -0.2457 -0.3215  0.1343
 7539TIP3    H146812   6.711   5.025   3.139  0.5434  0.6281 -0.2633
 7539TIP3    H246813   6.692   5.091   3.273  0.1555  0.2651 -0.1403
 7540TIP3   OH246814   6.638   2.539   3.284 -0.0511  0.2802 -0.3878
 7540TIP3    H146815   6.704   2.591   3.238  0.1697  0.2645 -0.0920
 7540TIP3    H246816   6.588   2.603   3.334 -0.6313  0.3606 -1.0544
 7541TIP3   OH246817   0.673   1.280   2.844 -0.4775  0.1529 -0.1790
 7541TIP3    H146818   0.616   1.247   2.914 -0.5879  0.8082  0.0446
 7541TIP3    H246819   0.757   1.237   2.860 -1.4644 -2.6434 -1.8672
 7542TIP3   OH246820   5.229   5.968   1.416  0.1078 -0.3966  0.0312
 7542TIP3    H146821   5.191   5.905   1.355  1.7176  1.5041 -3.1845
 7542TIP3    H246822   5.161   6.035   1.427  0.6743  0.5757 -1.9039
 7543TIP3   OH246823   1.369   7.044   1.205 -0.3410 -0.1446  0.2603
 7543TIP3    H146824   1.306   7.043   1.277 -0.8322 -0.6013 -0.1668
 7543TIP3    H246825   1.449   7.078   1.244 -0.6808 -0.1251  0.9575
 7544TIP3   OH246826   4.296   1.790   1.807 -0.6080 -0.1351 -0.2001
 7544TIP3    H146827   4.215   1.841   1.811 -0.3018  0.3668 -0.2399
 7544TIP3    H246828   4.271   1.708   1.767 -0.9561  0.3074 -0.9098
 7545TIP3   OH246829   5.859   7.456   0.959  0.1178 -0.6255 -0.3463
 7545TIP3    H146830   5.796   7.528   0.964 -0.6282 -1.1754 -1.4869
 7545TIP3    H246831   5.828   7.393   1.024 -0.2260 -0.6646 -0.5426
 7546TIP3   OH246832   0.568   3.239   1.849 -0.1906 -0.0088 -0.2853
 7546TIP3    H146833   0.586   3.280   1.764  0.0472  1.3888  0.4156
 7546TIP3    H246834   0.500   3.293   1.888  0.0139 -0.3816  0.6010
 7547TIP3   OH246835   6.832   3.022   1.172  0.8618  0.2297  0.5887
 7547TIP3    H146836   6.745   3.037   1.210  0.9865  0.4281  0.7986
 7547TIP3    H246837   6.866   3.110   1.156  0.2032  0.1755 -1.3921
 7548TIP3   OH246838   3.806   2.375   1.272  0.2918 -0.0988 -0.2851
 7548TIP3    H146839   3.722   2.417   1.290  1.4020  1.3846  2.0254
 7548TIP3    H246840   3.790   2.281   1.285 -1.2996 -0.0090 -1.3775
 7549TIP3   OH246841   6.783   7.345   2.672 -0.2199 -0.2587  0.1600
 7549TIP3    H146842   6.711   7.329   2.733 -1.2295  1.0198 -0.6399
 7549TIP3    H246843   6.769   7.435   2.642  1.3108 -0.2357 -0.5645
 7550TIP3   OH246844   0.824   7.308   2.403  0.2810  0.0026  0.3712
 7550TIP3    H146845   0.745   7.354   2.431 -0.8959 -0.8248 -1.3849
 7550TIP3    H246846   0.827   7.230   2.458  0.3071  0.4081  0.9524
 7551TIP3   OH246847   2.838   5.572   2.185  0.2360 -0.0523 -0.4769
 7551TIP3    H146848   2.825   5.536   2.273  0.3687  0.0760 -0.4036
 7551TIP3    H246849   2.852   5.495   2.129  0.6591 -0.1105 -0.2980
 7552TIP3   OH246850   0.638   5.749   1.024  0.5316  0.0921  0.6912
 7552TIP3    H146851   0.629   5.678   0.961  1.9844  0.1178  0.4018
 7552TIP3    H246852   0.556   5.749   1.073  0.0991 -1.1093  0.0099
 7553TIP3   OH246853   4.708   0.080   2.870 -0.8751 -0.4090 -0.0771
 7553TIP3    H146854   4.758   0.114   2.796 -0.9053 -2.4881 -1.1144
 7553TIP3    H246855   4.771   0.080   2.943  0.1005 -1.2108 -0.8902
 7554TIP3   OH246856   1.580   7.172   3.514 -0.2746 -0.1343 -0.3112
 7554TIP3    H146857   1.492   7.150   3.484 -0.5643  0.9085 -0.2644
 7554TIP3    H246858   1.605   7.247   3.460  0.5886 -0.4272 -0.3254
 7555TIP3   OH246859   2.267   6.672   1.922 -0.1609  0.4397  0.2132
 7555TIP3    H146860   2.321   6.747   1.901 -0.5411  0.8792  0.7771
 7555TIP3    H246861   2.246   6.682   2.015 -1.8210  0.6928 -0.1605
 7556TIP3   OH246862   6.460   5.398   0.838  0.1739 -1.0689 -0.0120
 7556TIP3    H146863   6.385   5.348   0.871  1.1122 -2.2102  0.4561
 7556TIP3    H246864   6.529   5.333   0.826  0.9611 -0.1080 -0.8745
 7557TIP3   OH246865   3.880   3.623   2.413  0.0854  0.0349  0.1115
 7557TIP3    H146866   3.900   3.590   2.501  0.4363 -1.3212 -0.4527
 7557TIP3    H246867   3.902   3.550   2.354  1.7976  1.5844 -1.2935
 7558TIP3   OH246868   5.534   0.013   3.038 -0.4027 -0.3943  0.1926
 7558TIP3    H146869   5.578   0.072   2.977  0.2192  1.1535  2.0537
 7558TIP3    H246870   5.578   0.027   3.121 -1.5875 -2.0319  1.1563
 7559TIP3   OH246871   0.679   5.509   1.954 -0.4234 -0.2184 -0.4057
 7559TIP3    H146872   0.654   5.527   1.864 -0.7600 -1.6727 -0.6346
 7559TIP3    H246873   0.757   5.453   1.946 -1.1648 -1.3707  0.1508
 7560TIP3   OH246874   6.124   5.348   3.138  0.0113 -0.4734  0.0756
 7560TIP3    H146875   6.176   5.420   3.175 -0.3817  0.6962 -1.5315
 7560TIP3    H246876   6.055   5.333   3.202  2.5655 -2.5534  2.6555
 7561TIP3   OH246877   2.028   1.633   1.507 -0.3791 -0.1645 -0.2227
 7561TIP3    H146878   2.042   1.555   1.454 -0.5773  0.0597 -0.6111
 7561TIP3    H246879   2.072   1.703   1.459 -2.8571  0.5971 -1.5793
 7562TIP3   OH246880   7.643   3.612   1.117  0.0474 -0.5477 -0.4285
 7562TIP3    H146881   7.711   3.673   1.147 -1.9381  2.0710 -0.9210
 7562TIP3    H246882   7.648   3.616   1.021 -0.8419 -0.2585 -0.4713
 7563TIP3   OH246883   6.968   6.403   1.121 -0.2597 -0.3713  0.2238
 7563TIP3    H146884   7.007   6.479   1.077  0.1474  0.5258  2.0272
 7563TIP3    H246885   6.876   6.406   1.098  0.1313 -0.5992 -1.4610
 7564TIP3   OH246886   6.252   6.398   0.881 -0.2927  0.3218  0.6689
 7564TIP3    H146887   6.201   6.479   0.889 -1.0053  0.2516 -2.0755
 7564TIP3    H246888   6.333   6.425   0.837 -1.0726 -0.5355 -1.4416
 7565TIP3   OH246889   0.107   4.506   3.315 -0.3995 -0.3982  0.1949
 7565TIP3    H146890   0.192   4.462   3.316 -1.1607 -1.9098  0.7718
 7565TIP3    H246891   0.043   4.436   3.327 -1.7187  0.7555  0.1455
 7566TIP3   OH246892   1.532   1.747   2.677  0.3341 -0.4687  0.1346
 7566TIP3    H146893   1.623   1.765   2.702  0.2969 -1.2223  0.8663
 7566TIP3    H246894   1.498   1.694   2.749 -1.0693  0.8352  0.4599
 7567TIP3   OH246895   6.277   5.752   1.164 -0.2642  0.9566 -0.4270
 7567TIP3    H146896   6.224   5.831   1.153 -0.9215  0.3995 -1.5063
 7567TIP3    H246897   6.362   5.784   1.196 -1.6861  1.7320  3.0153
 7568TIP3   OH246898   3.764   1.294   3.126  0.4569 -0.3415 -0.1061
 7568TIP3    H146899   3.683   1.335   3.156  1.1455 -0.1939  1.6508
 7568TIP3    H246900   3.744   1.265   3.037 -1.6833 -0.7478  0.4419
 7569TIP3   OH246901   2.496   3.643   2.078  0.2860  0.3995 -0.3824
 7569TIP3    H146902   2.490   3.550   2.103 -0.2264  0.5279 -0.0040
 7569TIP3    H246903   2.512   3.689   2.161  1.4610  0.5719 -0.6881
 7570TIP3   OH246904   6.736   7.103   2.334 -0.4118  0.3617  0.3469
 7570TIP3    H146905   6.776   7.088   2.248 -0.0865  0.2956  0.5044
 7570TIP3    H246906   6.647   7.070   2.326 -0.1865 -0.2257  0.2209
 7571TIP3   OH246907   6.806   2.010   1.717 -0.0834 -0.1316 -0.2563
 7571TIP3    H146908   6.862   2.088   1.708  0.2958 -0.3861 -0.1221
 7571TIP3    H246909   6.788   1.983   1.627 -0.2101  0.1051 -0.3036
 7572TIP3   OH246910   4.611   6.010   1.361 -0.6420  0.1063  0.1450
 7572TIP3    H146911   4.652   6.089   1.395 -0.5687 -0.2228  0.8604
 7572TIP3    H246912   4.650   5.996   1.275 -2.4102  2.1797 -1.0871
 7573TIP3   OH246913   1.296   5.231   1.407  0.1752 -0.1100 -0.2077
 7573TIP3    H146914   1.219   5.276   1.372  1.4702  1.1675 -1.5397
 7573TIP3    H246915   1.282   5.139   1.385 -0.9302  0.1108 -0.4824
 7574TIP3   OH246916   6.608   2.911   1.881  0.9640  0.2637  0.1451
 7574TIP3    H146917   6.639   2.967   1.811  0.4442 -0.0633 -0.3509
 7574TIP3    H246918   6.620   2.963   1.961 -1.6876  2.0423 -0.5155
 7575TIP3   OH246919   2.002   2.355   2.388 -0.3299  0.2328 -0.3892
 7575TIP3    H146920   1.944   2.302   2.333 -0.5514  0.7498 -0.6594
 7575TIP3    H246921   1.945   2.422   2.426  0.0530  0.6426 -0.5216
 7576TIP3   OH246922   3.159   2.565   2.508 -0.2988 -0.2762 -0.0722
 7576TIP3    H146923   3.220   2.510   2.459  1.0657 -0.0067  1.2865
 7576TIP3    H246924   3.072   2.531   2.484  0.2625  0.0223 -2.8605
 7577TIP3   OH246925   1.587   3.660   2.473  0.4423 -0.0868 -0.6221
 7577TIP3    H146926   1.500   3.629   2.445  0.4124 -1.7619  1.1438
 7577TIP3    H246927   1.580   3.670   2.568  1.5765  1.9206 -0.7008
 7578TIP3   OH246928   1.360   1.518   1.775  0.3090 -0.0047  0.0680
 7578TIP3    H146929   1.356   1.478   1.688  1.6002 -0.2073  0.0785
 7578TIP3    H246930   1.333   1.449   1.835  1.9991 -0.7517  0.0384
 7579TIP3   OH246931   2.214   5.496   2.057  0.6469 -0.1036  0.2123
 7579TIP3    H146932   2.134   5.515   2.106  0.3965  0.2943 -0.3411
 7579TIP3    H246933   2.216   5.400   2.051  0.2487 -0.1188  0.2955
 7580TIP3   OH246934   5.710   6.499   2.551 -0.4346  0.0224  0.1288
 7580TIP3    H146935   5.675   6.525   2.635  0.0138  0.6104  0.1368
 7580TIP3    H246936   5.726   6.405   2.560  2.3411  0.5390  1.7333
 7581TIP3   OH246937   4.375   7.264   1.807  0.8632  0.1511 -0.2508
 7581TIP3    H146938   4.389   7.220   1.891  1.4962  0.4331 -0.2049
 7581TIP3    H246939   4.306   7.213   1.765 -0.4725  0.8082  1.0271
 7582TIP3   OH246940   7.463   2.961   1.093 -0.2086  0.1838  0.1144
 7582TIP3    H146941   7.369   2.973   1.080 -0.0200  0.4868 -1.1182
 7582TIP3    H246942   7.494   3.044   1.130 -0.5279 -0.1709  1.2094
 7583TIP3   OH246943   3.643   2.797   2.783 -0.6021 -0.9964 -0.1827
 7583TIP3    H146944   3.606   2.827   2.701 -0.1195 -0.3231 -0.1609
 7583TIP3    H246945   3.728   2.841   2.789 -0.6970 -0.9192  0.7452
 7584TIP3   OH246946   7.620   2.995   2.494  0.1805  0.3419  0.3916
 7584TIP3    H146947   7.710   3.026   2.499 -0.4316  2.4527 -0.5179
 7584TIP3    H246948   7.600   2.996   2.400 -0.7606 -0.2542  0.5725
 7585TIP3   OH246949   7.424   6.395   2.907  0.1416 -0.1337  0.1172
 7585TIP3    H146950   7.362   6.457   2.946  0.5487  0.4398 -0.1294
 7585TIP3    H246951   7.423   6.415   2.813  0.4607 -0.3342  0.0678
 7586TIP3   OH246952   4.257   2.721   1.682 -0.2247 -0.1153  0.0784
 7586TIP3    H146953   4.219   2.692   1.600  1.2740  0.4649 -0.8743
 7586TIP3    H246954   4.343   2.680   1.685 -1.3620 -2.6345  2.8956
 7587TIP3   OH246955   0.292   3.445   1.201 -0.0402 -0.0896  0.2788
 7587TIP3    H146956   0.275   3.434   1.107  2.6663 -1.0292 -0.2041
 7587TIP3    H246957   0.255   3.366   1.242  0.9354 -0.9348 -0.3945
 7588TIP3   OH246958   5.980   2.113   1.937 -0.0013  0.0583  0.3575
 7588TIP3    H146959   5.909   2.085   1.879 -0.1596  1.2997 -0.0704
 7588TIP3    H246960   5.993   2.038   1.995 -0.4685 -0.8673 -0.6748
 7589TIP3   OH246961   2.574   3.336   2.819  0.2032  0.1618 -0.6249
 7589TIP3    H146962   2.567   3.427   2.791  2.1496 -0.0158 -1.9707
 7589TIP3    H246963   2.624   3.340   2.901  1.8213  0.2872 -1.5556
 7590TIP3   OH246964   2.692   4.061   0.608  0.7132 -0.0817 -0.0373
 7590TIP3    H146965   2.758   3.993   0.596  0.3668 -0.6157  0.9025
 7590TIP3    H246966   2.688   4.106   0.524  1.1401 -1.0503 -0.5974
 7591TIP3   OH246967   7.467   3.619   0.598  0.0853 -0.5193 -0.2935
 7591TIP3    H146968   7.498   3.549   0.542 -0.5337 -2.1385  1.2929
 7591TIP3    H246969   7.373   3.606   0.603 -0.0025  0.2440  0.2784
 7592TIP3   OH246970   1.457   1.466   0.835 -0.1945 -0.2292 -0.4726
 7592TIP3    H146971   1.551   1.457   0.852 -0.3248  0.1654  0.5160
 7592TIP3    H246972   1.416   1.399   0.891 -0.5874  0.5309  0.1601
 7593TIP3   OH246973   7.311   2.164   3.195 -0.1249  0.1132 -0.9991
 7593TIP3    H146974   7.221   2.149   3.224 -0.4197 -0.8310 -2.3071
 7593TIP3    H246975   7.353   2.211   3.268 -1.9268  1.4353 -0.7620
 7594TIP3   OH246976   1.519   2.218   1.106 -0.3674 -0.2140  0.4967
 7594TIP3    H146977   1.465   2.296   1.121 -0.3310  0.1440 -1.0488
 7594TIP3    H246978   1.456   2.147   1.097 -0.4769 -0.1317  0.6157
 7595TIP3   OH246979   6.565   0.237   1.769 -0.0726 -0.2677 -0.7862
 7595TIP3    H146980   6.605   0.184   1.701 -2.6971  0.0551 -2.7371
 7595TIP3    H246981   6.495   0.182   1.804  0.4541  0.0353  0.8289
 7596TIP3   OH246982   2.679   1.758   2.743  0.6153  0.0327 -0.2358
 7596TIP3    H146983   2.671   1.842   2.699  0.4106 -0.0115 -0.2829
 7596TIP3    H246984   2.664   1.777   2.835 -0.8760 -0.1699 -0.4072
 7597TIP3   OH246985   5.445   4.420   1.119  0.0263 -0.3805 -0.0938
 7597TIP3    H146986   5.407   4.474   1.049  2.2736  0.9522 -0.3754
 7597TIP3    H246987   5.467   4.483   1.188 -0.5035 -1.4519  1.0831
 7598TIP3   OH246988   6.597   3.049   2.422  0.6709 -0.0331  0.5051
 7598TIP3    H146989   6.581   2.954   2.424 -0.7873  0.0515 -1.9958
 7598TIP3    H246990   6.576   3.079   2.510  2.3343 -2.1534  1.7151
 7599TIP3   OH246991   1.340   1.721   1.936  0.6713 -0.0726  0.1521
 7599TIP3    H146992   1.356   1.688   2.025 -1.3037  0.2980  0.7007
 7599TIP3    H246993   1.356   1.645   1.880  0.8649 -0.6326  0.9342
 7600TIP3   OH246994   5.878   5.925   1.726 -0.2590  0.2084  0.5144
 7600TIP3    H146995   5.892   5.837   1.693 -2.4009  0.7281 -2.1802
 7600TIP3    H246996   5.799   5.918   1.780 -0.2129  0.3905  0.6052
 7601TIP3   OH246997   7.248   2.978   1.794 -0.2644  0.1924  0.1409
 7601TIP3    H146998   7.213   3.061   1.827  0.2875 -0.3136  2.1483
 7601TIP3    H246999   7.171   2.929   1.766 -0.7233  0.8033  0.3103
 7602TIP3   OH247000   4.256   5.151   1.609  0.0121 -0.1311  0.5421
 7602TIP3    H147001   4.270   5.157   1.515  2.0637 -1.2296  0.7087
 7602TIP3    H247002   4.341   5.124   1.644 -0.7616  0.0063  2.6845
 7603TIP3   OH247003   3.784   7.499   1.104  0.1388  0.6529 -0.4497
 7603TIP3    H147004   3.793   7.525   1.012  0.4187 -1.4968 -1.0961
 7603TIP3    H247005   3.699   7.533   1.131  0.0993  1.4000 -1.4830
 7604TIP3   OH247006   2.727   5.947   0.528 -0.4188  0.0939 -0.2258
 7604TIP3    H147007   2.740   5.856   0.502 -1.4266  0.0799 -0.7472
 7604TIP3    H247008   2.676   5.943   0.608  0.0862  0.1942  0.1045
 7605TIP3   OH247009   2.992   6.632   1.879  0.2339 -0.3060 -0.0921
 7605TIP3    H147010   2.974   6.574   1.952  2.3896 -0.7383  0.1651
 7605TIP3    H247011   3.067   6.684   1.908  1.0608 -0.4039 -1.9275
 7606TIP3   OH247012   3.725   5.178   1.023 -0.2677 -0.0328 -0.5138
 7606TIP3    H147013   3.756   5.088   1.031 -1.0535 -0.2375  0.3744
 7606TIP3    H247014   3.631   5.169   1.008 -0.7372  0.6495  1.6677
 7607TIP3   OH247015   3.600   0.401   1.291  0.2022  0.1749  0.4246
 7607TIP3    H147016   3.667   0.467   1.310  1.6399 -1.0973 -0.1131
 7607TIP3    H247017   3.518   0.442   1.321  1.0643  2.1267  0.2698
 7608TIP3   OH247018   0.220   5.029   2.045  0.0725  0.0565  0.6099
 7608TIP3    H147019   0.258   5.081   1.974  0.6303 -1.0460  0.0817
 7608TIP3    H247020   0.257   4.942   2.033 -1.9402 -0.8551  0.6049
 7609TIP3   OH247021   3.850   1.582   2.487  0.5322  0.2854  0.2511
 7609TIP3    H147022   3.852   1.555   2.579 -1.2698 -1.5091 -0.1606
 7609TIP3    H247023   3.809   1.668   2.488 -2.0922 -0.8783  0.9909
 7610TIP3   OH247024   3.703   6.283   0.717 -0.2564  0.3108 -0.4530
 7610TIP3    H147025   3.750   6.340   0.778 -0.6534 -0.3201  0.4722
 7610TIP3    H247026   3.714   6.195   0.753 -0.1652 -0.1256 -1.5241
 7611TIP3   OH247027   7.254   5.935   1.179 -0.0131 -0.5880  0.1612
 7611TIP3    H147028   7.339   5.939   1.224 -0.5446  0.7946  1.1086
 7611TIP3    H247029   7.197   5.890   1.242 -0.9044  1.8479  1.2118
 7612TIP3   OH247030   1.447   2.334   2.165 -0.1982  0.3431  0.6715
 7612TIP3    H147031   1.450   2.340   2.261 -1.9503  1.1931  0.7126
 7612TIP3    H247032   1.356   2.352   2.143  0.2325  0.4183 -1.1946
 7613TIP3   OH247033   0.597   3.284   2.898 -0.2946  0.3707  0.2974
 7613TIP3    H147034   0.559   3.221   2.836  1.0114 -1.6054  1.3845
 7613TIP3    H247035   0.635   3.352   2.843  0.2265 -0.9609 -1.0518
 7614TIP3   OH247036   0.947   5.514   0.991  0.0178 -0.1347  0.1685
 7614TIP3    H147037   0.918   5.510   1.082  0.5349  1.1237  0.4196
 7614TIP3    H247038   0.982   5.427   0.973  0.0800 -0.3499  1.2325
 7615TIP3   OH247039   0.985   3.330   2.788 -0.4089 -0.0118 -0.6839
 7615TIP3    H147040   0.930   3.408   2.790  0.7075  0.7909  0.2328
 7615TIP3    H247041   0.931   3.262   2.829 -0.9591  0.5859 -0.3994
 7616TIP3   OH247042   3.253   2.339   3.056  0.1618  0.4233  0.1160
 7616TIP3    H147043   3.170   2.376   3.025  0.5551  0.6024 -0.7406
 7616TIP3    H247044   3.253   2.249   3.024 -0.2922 -0.0052  1.2582
 7617TIP3   OH247045   1.793   3.694   1.258 -0.2960  0.3660  0.3247
 7617TIP3    H147046   1.827   3.677   1.346  0.5115  2.5568  0.5102
 7617TIP3    H247047   1.862   3.663   1.199 -1.6018 -2.8087  0.2898
 7618TIP3   OH247048   4.767   6.608   2.562  0.9096 -0.4435  0.2450
 7618TIP3    H147049   4.828   6.663   2.611  2.4195 -1.7207 -0.1036
 7618TIP3    H247050   4.683   6.652   2.570  1.9560  1.6413  0.3641
 7619TIP3   OH247051   4.511   2.081   1.027  0.1915  0.6333  0.2781
 7619TIP3    H147052   4.498   2.095   1.121 -0.7717 -0.0403  0.2645
 7619TIP3    H247053   4.602   2.106   1.011 -0.3676  3.2828  0.8699
 7620TIP3   OH247054   6.330   3.488   1.983 -0.0300 -0.1525  0.1562
 7620TIP3    H147055   6.377   3.514   1.904 -1.4390  0.2496 -0.5949
 7620TIP3    H247056   6.298   3.570   2.020  0.0293 -0.3979  0.7705
 7621TIP3   OH247057   7.596   2.381   0.587  0.1548  0.1129  0.1228
 7621TIP3    H147058   7.581   2.459   0.534 -0.4668  0.5971  0.9856
 7621TIP3    H247059   7.688   2.386   0.613  1.1735 -1.3378 -2.7743
 7622TIP3   OH247060   5.043   5.090   0.883 -0.2831 -0.1434 -0.2843
 7622TIP3    H147061   5.127   5.134   0.869 -1.1268  1.4610 -0.5185
 7622TIP3    H247062   4.977   5.159   0.872 -1.4959 -0.3926  3.7362
 7623TIP3   OH247063   3.452   2.197   1.281  0.4683 -0.7387 -0.0345
 7623TIP3    H147064   3.447   2.261   1.210 -0.3780  0.1631  0.8039
 7623TIP3    H247065   3.361   2.180   1.304  0.6168 -2.9625 -0.8243
 7624TIP3   OH247066   0.477   5.238   2.873 -0.4372 -0.6430  0.1139
 7624TIP3    H147067   0.405   5.207   2.817 -1.2336  0.1282  0.6935
 7624TIP3    H247068   0.520   5.306   2.821 -0.2249 -0.9843 -0.1641
 7625TIP3   OH247069   7.186   6.559   3.034 -0.5841  0.6432 -0.0750
 7625TIP3    H147070   7.168   6.539   3.125 -0.8623 -1.1902 -0.4968
 7625TIP3    H247071   7.104   6.542   2.989 -0.1605  0.5000 -0.8128
 7626TIP3   OH247072   1.667   0.254   2.953 -0.7813  0.3954 -0.0015
 7626TIP3    H147073   1.625   0.328   2.908 -0.5133  0.5445 -0.0068
 7626TIP3    H247074   1.654   0.180   2.894 -0.0034  0.6913 -0.5628
 7627TIP3   OH247075   3.439   1.011   2.201  0.0164 -0.0648 -0.1793
 7627TIP3    H147076   3.473   1.093   2.236  0.1840 -0.7635  1.3837
 7627TIP3    H247077   3.498   0.989   2.129 -1.2691  2.2274 -2.0589
 7628TIP3   OH247078   6.901   4.290   1.017  0.3123  0.0187  0.2295
 7628TIP3    H147079   6.860   4.297   0.931 -1.6512  0.8540  1.1895
 7628TIP3    H247080   6.865   4.209   1.054  0.4360  0.1456  0.6302
 7629TIP3   OH247081   6.783   6.323   1.380  0.0242  0.2768  0.5913
 7629TIP3    H147082   6.769   6.393   1.317 -3.5380 -0.7110  0.0442
 7629TIP3    H247083   6.775   6.365   1.465 -0.8022  0.7982  0.2755
 7630TIP3   OH247084   0.536   6.829   0.503 -0.6610  0.4022  0.6438
 7630TIP3    H147085   0.481   6.887   0.450  0.3607  1.5291  0.7554
 7630TIP3    H247086   0.563   6.884   0.577 -0.7151 -0.6398  1.4612
 7631TIP3   OH247087   2.408   4.991   2.878  0.3240 -0.5563 -0.5280
 7631TIP3    H147088   2.405   5.080   2.842  0.6899  0.1771  1.1458
 7631TIP3    H247089   2.501   4.968   2.878  0.5744  0.2172  1.5818
 7632TIP3   OH247090   7.290   4.646   2.594 -0.2271 -0.3232  0.1133
 7632TIP3    H147091   7.289   4.732   2.636  0.0277 -0.3415  0.1587
 7632TIP3    H247092   7.292   4.666   2.500 -1.4631 -0.2857  0.0874
 7633TIP3   OH247093   3.831   5.406   2.794  0.1699 -0.5139 -0.1515
 7633TIP3    H147094   3.885   5.468   2.842  0.9802 -1.9681  0.8779
 7633TIP3    H247095   3.806   5.453   2.714 -1.5319  2.1481  1.7421
 7634TIP3   OH247096   6.432   6.350   0.515  0.0128  0.6155  0.4119
 7634TIP3    H147097   6.523   6.379   0.503 -0.4886  2.2823  0.4018
 7634TIP3    H247098   6.384   6.430   0.538 -1.5077 -0.1864  0.1530
 7635TIP3   OH247099   6.200   5.707   1.835 -0.3402  0.2847  0.2470
 7635TIP3    H147100   6.244   5.717   1.751 -0.4308  0.9211  0.2727
 7635TIP3    H247101   6.266   5.732   1.900  0.5649 -2.5292  0.5606
 7636TIP3   OH247102   1.071   4.257   1.933 -0.1581  0.0978 -0.2049
 7636TIP3    H147103   1.160   4.285   1.912  0.7635 -2.0135  0.6759
 7636TIP3    H247104   1.027   4.253   1.848  0.3059  1.8936 -0.5771
 7637TIP3   OH247105   6.014   6.373   2.683  0.1097  0.0556  0.4024
 7637TIP3    H147106   6.016   6.343   2.592  0.5843 -0.7552  0.6616
 7637TIP3    H247107   5.985   6.464   2.679 -2.1298 -0.6352 -0.3783
 7638TIP3   OH247108   3.952   0.969   2.501  0.3366  0.3009 -0.4646
 7638TIP3    H147109   3.876   0.911   2.504  0.5561  0.0464  1.4932
 7638TIP3    H247110   3.917   1.051   2.466 -0.9722  0.3335  0.8255
 7639TIP3   OH247111   7.408   3.876   1.454  0.2304 -0.0143  0.0170
 7639TIP3    H147112   7.503   3.879   1.443  0.1951  1.8510 -0.1597
 7639TIP3    H247113   7.373   3.906   1.370 -0.6911 -3.8779 -1.1506
 7640TIP3   OH247114   5.923   7.640   1.277 -0.8548 -0.0959 -0.1433
 7640TIP3    H147115   5.935   7.733   1.260 -0.1510  0.3785  2.4310
 7640TIP3    H247116   5.839   7.634   1.323 -0.8015 -0.7081 -0.1089
 7641TIP3   OH247117   6.801   1.678   0.437  0.0470  0.0356  0.2348
 7641TIP3    H147118   6.814   1.661   0.343 -0.2303 -1.3473  0.4299
 7641TIP3    H247119   6.710   1.706   0.443 -0.1297 -0.5253  0.1748
 7642TIP3   OH247120   4.410   4.393   1.501  0.0274  0.5170 -0.3490
 7642TIP3    H147121   4.418   4.352   1.415 -0.2678  0.9140 -0.5653
 7642TIP3    H247122   4.469   4.468   1.497 -0.6524  1.0506 -0.5145
 7643TIP3   OH247123   7.361   3.130   0.586  0.0731  0.0243  0.2832
 7643TIP3    H147124   7.408   3.047   0.575 -0.4409  0.0418 -3.1333
 7643TIP3    H247125   7.268   3.106   0.580 -0.0564  0.8951 -1.8512
 7644TIP3   OH247126   3.213   5.128   1.974 -0.1223 -0.1842 -0.3948
 7644TIP3    H147127   3.304   5.136   1.945  0.0115  0.5953  0.2034
 7644TIP3    H247128   3.162   5.152   1.896  0.1796 -0.5398 -0.7093
 7645TIP3   OH247129   7.006   2.326   2.654 -0.6028  0.4475  0.0822
 7645TIP3    H147130   6.965   2.240   2.662  2.0116 -1.1120 -1.6672
 7645TIP3    H247131   6.984   2.355   2.565  2.1445 -0.6034 -1.0461
 7646TIP3   OH247132   5.500   6.642   1.524  0.1636 -0.1760 -0.2386
 7646TIP3    H147133   5.444   6.582   1.573 -0.0376  0.9361  0.9606
 7646TIP3    H247134   5.547   6.586   1.462  0.3607 -1.6568  1.1670
 7647TIP3   OH247135   5.338   2.778   2.579  0.1743 -0.3580 -0.4673
 7647TIP3    H147136   5.250   2.755   2.550  0.0905 -0.0732 -0.4468
 7647TIP3    H247137   5.364   2.707   2.637 -1.2824  1.0427  2.0607
 7648TIP3   OH247138   0.656   4.548   2.965  0.6168 -0.0234  0.0083
 7648TIP3    H147139   0.703   4.488   3.023  0.0791 -0.2173  0.2476
 7648TIP3    H247140   0.567   4.550   2.999  0.8735  1.7991  0.6886
 7649TIP3   OH247141   5.527   7.187   1.532  0.1688 -0.2468  0.4650
 7649TIP3    H147142   5.498   7.235   1.454 -1.0569 -0.9726  0.4579
 7649TIP3    H247143   5.545   7.256   1.597  0.8253  0.3427 -0.3177
 7650TIP3   OH247144   5.258   4.592   1.553 -1.1947 -0.1214  0.3983
 7650TIP3    H147145   5.249   4.508   1.598  0.9948 -0.3559  0.4903
 7650TIP3    H247146   5.275   4.655   1.623 -1.8683  0.2508  0.2385
 7651TIP3   OH247147   2.217   3.174   2.152 -0.5203  0.1785  0.2106
 7651TIP3    H147148   2.276   3.173   2.228 -1.1278 -0.6231  0.6924
 7651TIP3    H247149   2.240   3.253   2.105  1.4932 -0.5007 -0.0410
 7652TIP3   OH247150   4.162   7.324   2.395  0.6444  0.2161 -0.3099
 7652TIP3    H147151   4.168   7.356   2.484 -0.0098 -2.7412  0.9221
 7652TIP3    H247152   4.074   7.348   2.366 -0.2562 -1.2980  0.9976
 7653TIP3   OH247153   6.600   7.413   1.913  0.5643 -0.2813  0.9250
 7653TIP3    H147154   6.626   7.458   1.994  0.7986 -1.4847  1.5441
 7653TIP3    H247155   6.607   7.320   1.934  2.2607 -0.6728 -0.9878
 7654TIP3   OH247156   7.134   4.540   2.942 -0.5038 -0.0984 -0.0361
 7654TIP3    H147157   7.132   4.504   3.031 -2.0809  1.2775  0.5336
 7654TIP3    H247158   7.155   4.633   2.954  0.8587 -0.2148 -1.2555
 7655TIP3   OH247159   1.238   4.646   1.399 -0.3494  0.1757  0.2195
 7655TIP3    H147160   1.229   4.674   1.490 -1.4923 -0.8362  0.4520
 7655TIP3    H247161   1.148   4.639   1.368 -0.1326 -2.2955 -0.0687
 7656TIP3   OH247162   3.287   4.814   1.580  0.1986  0.5191  0.3274
 7656TIP3    H147163   3.345   4.827   1.505 -1.0512 -0.3424 -0.8484
 7656TIP3    H247164   3.250   4.900   1.597  0.3130  0.6804 -0.2129
 7657TIP3   OH247165   2.995   0.134   2.560 -0.1788 -0.0100 -0.3528
 7657TIP3    H147166   3.029   0.058   2.609 -0.6052  0.4616  0.7145
 7657TIP3    H247167   2.903   0.139   2.585 -0.3964  0.2611 -1.2081
 7658TIP3   OH247168   3.101   0.855   2.898  0.0780  0.3461 -0.1116
 7658TIP3    H147169   3.126   0.766   2.873 -0.1758 -0.0788  1.0668
 7658TIP3    H247170   3.175   0.909   2.872  1.1342 -0.5227  1.0012
 7659TIP3   OH247171   7.459   5.797   1.566 -0.4813  0.0431  0.6502
 7659TIP3    H147172   7.430   5.804   1.657 -0.1938 -3.0758  1.0895
 7659TIP3    H247173   7.387   5.751   1.522  0.2203 -0.2598 -0.2108
 7660TIP3   OH247174   1.154   7.316   0.894 -0.1306  0.3902 -0.1322
 7660TIP3    H147175   1.095   7.353   0.828  0.3846  1.5351  0.0431
 7660TIP3    H247176   1.140   7.370   0.972  1.3559  0.8760 -0.1718
 7661TIP3   OH247177   6.493   0.813   1.790 -0.0635 -0.2621 -0.3888
 7661TIP3    H147178   6.408   0.791   1.752 -0.1770  0.3019 -0.4638
 7661TIP3    H247179   6.477   0.891   1.844  0.2657 -0.5570  0.1513
 7662TIP3   OH247180   6.115   7.301   2.152  0.2079  0.4881  0.3418
 7662TIP3    H147181   6.100   7.368   2.084 -1.7110  0.0386  0.2497
 7662TIP3    H247182   6.074   7.222   2.117  2.5723 -0.8308  0.3880
 7663TIP3   OH247183   2.389   3.603   0.650  0.0793 -0.5949  0.1838
 7663TIP3    H147184   2.367   3.634   0.562 -1.3217 -1.5205  0.1709
 7663TIP3    H247185   2.398   3.682   0.703 -0.3922 -0.0716 -0.5069
 7664TIP3   OH247186   1.083   2.216   0.813  0.0506  0.5716 -0.3814
 7664TIP3    H147187   1.048   2.173   0.736  0.2916  0.1267 -0.2490
 7664TIP3    H247188   1.025   2.290   0.829 -1.4585 -0.7376  0.4470
 7665TIP3   OH247189   5.536   3.017   0.707 -0.2398 -0.1184  0.2698
 7665TIP3    H147190   5.529   3.060   0.622  0.9233 -1.4600 -0.5583
 7665TIP3    H247191   5.446   3.002   0.735 -0.6415  1.5634 -0.0605
 7666TIP3   OH247192   2.406   0.714   1.697  0.0231 -0.1615  0.1085
 7666TIP3    H147193   2.358   0.729   1.615  0.1431 -0.2559  0.0207
 7666TIP3    H247194   2.393   0.794   1.748 -1.2880 -0.6638  0.6098
 7667TIP3   OH247195   2.623   3.131   0.803  0.0510  0.2722 -0.1496
 7667TIP3    H147196   2.697   3.131   0.743  0.7207  0.3336  0.6524
 7667TIP3    H247197   2.578   3.214   0.786 -0.5747 -0.3300 -1.5115
 7668TIP3   OH247198   5.727   4.047   1.994  0.2485 -0.6404  0.2594
 7668TIP3    H147199   5.729   4.139   2.021 -0.3540 -0.4772 -0.2043
 7668TIP3    H247200   5.809   4.034   1.947  0.0783 -0.1684 -0.1820
 7669TIP3   OH247201   2.945   6.116   2.585  0.0420  0.0674  0.0845
 7669TIP3    H147202   2.866   6.079   2.623  0.5169 -0.4983  0.5287
 7669TIP3    H247203   2.916   6.152   2.501 -0.6520 -0.2691  0.1725
 7670TIP3   OH247204   0.513   3.758   1.547 -0.8296  0.3227 -0.1438
 7670TIP3    H147205   0.543   3.691   1.609 -1.6215 -0.3604 -0.4838
 7670TIP3    H247206   0.589   3.777   1.494  0.5698  2.5413  2.3961
 7671TIP3   OH247207   0.219   4.995   2.325  0.4396 -0.3953  0.0287
 7671TIP3    H147208   0.221   5.017   2.232 -0.6341 -3.0435 -0.7133
 7671TIP3    H247209   0.233   5.078   2.370  0.0668  1.1115 -2.4727
 7672TIP3   OH247210   7.351   1.372   2.213 -0.0227 -0.0002  0.2905
 7672TIP3    H147211   7.319   1.438   2.274 -0.9704 -0.2371  0.0717
 7672TIP3    H247212   7.297   1.383   2.135  1.4671  0.5892 -0.7003
 7673TIP3   OH247213   0.851   1.315   1.614  0.0385 -0.0321 -0.4390
 7673TIP3    H147214   0.795   1.377   1.661 -0.3813  0.8495 -2.0309
 7673TIP3    H247215   0.840   1.232   1.660 -1.3971  0.4776  0.1898
 7674TIP3   OH247216   6.266   1.821   1.905  0.2595 -0.1642  0.8690
 7674TIP3    H147217   6.177   1.831   1.871  0.1195  0.1006  1.3120
 7674TIP3    H247218   6.299   1.741   1.863 -0.2468 -0.3590  0.8365
 7675TIP3   OH247219   4.610   4.522   1.669 -0.3075 -0.6879 -0.0389
 7675TIP3    H147220   4.665   4.595   1.697 -0.3350 -0.7248  0.1177
 7675TIP3    H247221   4.528   4.533   1.718 -0.8958  0.0228 -1.1409
 7676TIP3   OH247222   6.747   5.869   1.469  0.1251  0.2989 -0.0744
 7676TIP3    H147223   6.717   5.954   1.502  1.8840  0.5572  1.0121
 7676TIP3    H247224   6.841   5.867   1.489  0.0250 -2.1560  0.5427
 7677TIP3   OH247225   5.462   3.425   2.849 -0.4202 -0.7405 -0.3003
 7677TIP3    H147226   5.455   3.336   2.814 -0.3218 -1.1133  0.6085
 7677TIP3    H247227   5.372   3.449   2.872 -0.7455  0.1369 -2.2695
 7678TIP3   OH247228   6.104   6.234   1.030  0.3057  0.0108  0.1247
 7678TIP3    H147229   6.155   6.293   0.975 -0.3872 -0.1560 -0.7190
 7678TIP3    H247230   6.016   6.235   0.992  0.3791 -1.8913 -0.1955
 7679TIP3   OH247231   7.564   3.947   2.988 -0.3355  0.1634 -0.5743
 7679TIP3    H147232   7.540   4.030   3.030 -0.1152 -0.7096  1.4110
 7679TIP3    H247233   7.555   3.964   2.895  0.5516  2.6980 -0.2884
 7680TIP3   OH247234   2.552   6.531   1.634  0.1363 -0.5587 -0.3565
 7680TIP3    H147235   2.597   6.537   1.718  1.4220 -1.6299 -0.9287
 7680TIP3    H247236   2.603   6.588   1.575 -0.6627  0.0659 -0.4542
 7681TIP3   OH247237   4.948   4.177   1.427 -0.1509 -0.2635 -0.0167
 7681TIP3    H147238   4.979   4.253   1.476 -2.0635  0.7471 -0.2781
 7681TIP3    H247239   4.971   4.196   1.336 -0.9524  0.2079 -0.1318
 7682TIP3   OH247240   1.681   4.284   2.269 -0.6216 -0.4187 -0.1769
 7682TIP3    H147241   1.768   4.302   2.232  0.0497 -1.4126  0.8552
 7682TIP3    H247242   1.639   4.370   2.274  1.3066  0.4821  1.7538
 7683TIP3   OH247243   1.753   2.913   2.458  0.3965 -0.3389  0.1594
 7683TIP3    H147244   1.794   2.920   2.545  0.7463  1.8176 -0.1123
 7683TIP3    H247245   1.825   2.890   2.399  1.0167  1.9740 -0.0869
 7684TIP3   OH247246   0.867   5.051   3.131 -0.2725 -0.2182 -0.6587
 7684TIP3    H147247   0.921   4.972   3.131 -1.3320 -1.0082  1.3272
 7684TIP3    H247248   0.780   5.021   3.103 -1.1000 -0.1470  1.6346
 7685TIP3   OH247249   6.241   1.708   0.878  0.3710 -0.0570  0.2682
 7685TIP3    H147250   6.258   1.792   0.836 -1.1578  1.1135  1.8449
 7685TIP3    H247251   6.240   1.644   0.806 -0.0337  1.5158 -1.1703
 7686TIP3   OH247252   3.595   6.486   1.575  0.5865  0.6000  0.3502
 7686TIP3    H147253   3.525   6.436   1.618  2.2740 -1.9560  0.3260
 7686TIP3    H247254   3.595   6.570   1.620 -1.0047 -0.1655  1.9115
 7687TIP3   OH247255   7.432   4.729   2.999 -0.9266  0.0990  0.3609
 7687TIP3    H147256   7.346   4.747   3.039 -2.0166  0.5690 -1.9995
 7687TIP3    H247257   7.458   4.813   2.961  0.9632  0.1313  1.5868
 7688TIP3   OH247258   7.078   0.970   2.724  0.4421  0.3839  0.7554
 7688TIP3    H147259   7.024   1.048   2.731  0.7686  0.6063  0.8059
 7688TIP3    H247260   7.024   0.908   2.674  1.1380  1.5434 -1.6253
 7689TIP3   OH247261   6.200   0.016   1.370  0.4215  0.1759 -0.2385
 7689TIP3    H147262   6.209  -0.012   1.461 -1.5843  1.5190  0.4319
 7689TIP3    H247263   6.116  -0.019   1.342  0.6267  0.5004 -1.3280
 7690TIP3   OH247264   3.713   2.205   0.647 -0.1374 -0.1808 -0.0257
 7690TIP3    H147265   3.667   2.163   0.575 -0.0624  0.1300 -0.2592
 7690TIP3    H247266   3.806   2.198   0.624 -0.0242 -1.2174  0.6648
 7691TIP3   OH247267   3.249   4.323   1.934 -0.3905  0.0258  0.0719
 7691TIP3    H147268   3.246   4.410   1.894 -1.9313 -0.1380 -0.2556
 7691TIP3    H247269   3.161   4.288   1.921 -0.3984 -0.8040  1.9361
 7692TIP3   OH247270   2.627   2.570   2.473 -0.3130  0.4632  0.4182
 7692TIP3    H147271   2.595   2.545   2.386  1.2114 -0.0859 -0.0265
 7692TIP3    H247272   2.678   2.649   2.457  0.5644 -0.0383  0.6793
 7693TIP3   OH247273   3.402   1.491   8.004  0.1838 -0.7264 -0.2170
 7693TIP3    H147274   3.361   1.545   8.071  1.1056 -1.1448  0.7168
 7693TIP3    H247275   3.337   1.424   7.983 -0.0378 -0.7235  0.4325
 7694TIP3   OH247276   4.910   0.816   2.609  0.7302 -0.4578  0.0828
 7694TIP3    H147277   4.933   0.729   2.644 -1.4591 -1.3364 -0.5136
 7694TIP3    H247278   4.884   0.866   2.686  2.0911 -0.2641  0.4436
 7695TIP3   OH247279   3.776   5.253   2.403  0.6190  0.0492 -0.1451
 7695TIP3    H147280   3.728   5.334   2.419  1.5014  0.5370  0.1153
 7695TIP3    H247281   3.718   5.183   2.435  0.0113  0.6050 -0.0261
 7696TIP3   OH247282   5.814   2.083   0.562  0.3321  0.0556  0.2427
 7696TIP3    H147283   5.876   2.148   0.527 -0.7777  1.5609  0.9583
 7696TIP3    H247284   5.800   2.111   0.653 -0.0088 -1.3481  0.6423
 7697TIP3   OH247285   6.459   6.728   1.753  0.1114 -0.1550  0.5317
 7697TIP3    H147286   6.477   6.709   1.845 -1.2547  1.3348  1.1586
 7697TIP3    H247287   6.363   6.739   1.749  0.0999 -0.6103 -1.1517
 7698TIP3   OH247288   1.597   6.627   2.749  0.0706 -0.3203  0.4816
 7698TIP3    H147289   1.554   6.578   2.819 -1.2631 -2.1470 -1.4855
 7698TIP3    H247290   1.660   6.565   2.711 -0.9445 -0.2655 -1.4244
 7699TIP3   OH247291   1.301   7.388   2.073  0.2888  0.4170 -0.5647
 7699TIP3    H147292   1.250   7.445   2.130  1.4322  0.4160  0.5077
 7699TIP3    H247293   1.241   7.318   2.049  0.9291 -2.4974  4.8170
 7700TIP3   OH247294   0.093   4.892   1.053  0.1200  0.2461 -0.3061
 7700TIP3    H147295   0.016   4.940   1.085 -0.1726  0.9278 -1.8928
 7700TIP3    H247296   0.061   4.844   0.977  0.9826 -0.5252 -0.1957
 7701TIP3   OH247297   6.772   6.420   1.640  0.5924  0.2741 -0.4553
 7701TIP3    H147298   6.840   6.486   1.640  1.9447 -1.0303  1.5267
 7701TIP3    H247299   6.762   6.394   1.731 -0.6225 -1.5214 -1.0255
 7702TIP3   OH247300   1.074   7.243   3.238 -0.5746 -0.3308  0.0444
 7702TIP3    H147301   1.035   7.316   3.191 -0.0641 -0.1610 -0.1226
 7702TIP3    H247302   1.051   7.258   3.330  0.9495  0.9667  0.2439
 7703TIP3   OH247303   5.489   6.864   0.850 -0.3448  0.2757  0.1696
 7703TIP3    H147304   5.581   6.840   0.847 -0.7237 -1.2085 -0.8060
 7703TIP3    H247305   5.449   6.798   0.907 -0.8464  0.7529  0.3770
 7704TIP3   OH247306   0.526   7.664   1.482 -0.2569  0.0143 -0.2016
 7704TIP3    H147307   0.553   7.751   1.452 -0.8877  0.4031  0.3269
 7704TIP3    H247308   0.521   7.672   1.577  0.0368 -0.7085 -0.1215
 7705TIP3   OH247309   4.995   0.626   1.446  0.3981  0.2900 -0.0238
 7705TIP3    H147310   5.090   0.614   1.449  0.6502  1.3271 -2.3218
 7705TIP3    H247311   4.961   0.538   1.428  0.8178 -0.2197  1.4756
 7706TIP3   OH247312   4.247   4.724   2.152 -0.5042  0.4324  0.0775
 7706TIP3    H147313   4.340   4.707   2.136 -0.2442  0.9969  0.9521
 7706TIP3    H247314   4.203   4.643   2.125  0.1875  0.3335 -0.7885
 7707TIP3   OH247315   6.018   6.601   2.020 -0.2245 -0.1518  0.5337
 7707TIP3    H147316   6.107   6.610   1.985  0.4860 -3.0880  1.2897
 7707TIP3    H247317   5.963   6.584   1.944  0.2034 -0.2560  0.2451
 7708TIP3   OH247318   7.194   6.264   1.187 -0.0806  0.3326  0.2107
 7708TIP3    H147319   7.104   6.293   1.167 -0.5988 -1.0420  0.4538
 7708TIP3    H247320   7.192   6.170   1.172  1.6464  0.4346 -0.8923
 7709TIP3   OH247321   0.689   0.997   1.100 -0.3786  0.1632 -0.3978
 7709TIP3    H147322   0.636   1.043   1.165  0.4188 -0.0990  0.4578
 7709TIP3    H247323   0.709   1.064   1.035  0.0669  0.8354  0.4046
 7710TIP3   OH247324   6.823   5.963   1.022  0.6048 -0.6506 -0.3015
 7710TIP3    H147325   6.825   5.976   0.927 -1.6119 -1.1339 -0.4748
 7710TIP3    H247326   6.746   6.012   1.051  1.2885 -0.4555  1.2805
 7711TIP3   OH247327   2.390   5.765   1.554  0.3582 -0.4432  0.5565
 7711TIP3    H147328   2.388   5.803   1.466  0.2451 -0.2842  0.6281
 7711TIP3    H247329   2.406   5.840   1.612  1.1571 -0.6469  0.6116
 7712TIP3   OH247330   0.083   4.135   2.447 -0.0281 -0.2640  0.2727
 7712TIP3    H147331  -0.002   4.096   2.430  0.3740 -0.2995 -1.8609
 7712TIP3    H247332   0.141   4.061   2.463 -0.1351 -0.2990  0.5071
 7713TIP3   OH247333   3.429   0.086   2.627  0.0804  0.1288 -0.1645
 7713TIP3    H147334   3.402   0.042   2.708 -0.1986  0.1686 -0.2333
 7713TIP3    H247335   3.479   0.162   2.657  2.0420 -1.1470 -0.0692
 7714TIP3   OH247336   6.075   6.377   2.162 -0.1961  0.0891  0.4284
 7714TIP3    H147337   6.021   6.303   2.134 -0.6406  0.4556  0.3017
 7714TIP3    H247338   6.044   6.451   2.109 -0.8332  0.7233  1.6518
 7715TIP3   OH247339   0.620   7.368   1.637 -0.3396  0.2923  0.1540
 7715TIP3    H147340   0.546   7.324   1.679 -0.1645  0.2623  0.4332
 7715TIP3    H247341   0.586   7.397   1.552 -0.4146 -0.4999 -0.0927
 7716TIP3   OH247342   2.218   6.783   0.879  0.3348 -0.1072 -0.2514
 7716TIP3    H147343   2.260   6.783   0.965  0.3364  1.5735 -0.2168
 7716TIP3    H247344   2.137   6.733   0.892  0.1729  0.4046  0.8131
 7717TIP3   OH247345   0.250   0.748   2.253 -0.3507 -0.2373  0.2768
 7717TIP3    H147346   0.328   0.767   2.306 -0.3723  0.5183  0.0469
 7717TIP3    H247347   0.199   0.829   2.256 -0.0256  0.0594 -1.4685
 7718TIP3   OH247348   6.595   0.635   2.037  0.1585 -0.1017  0.3351
 7718TIP3    H147349   6.566   0.717   1.996  0.8196  0.2773  0.6213
 7718TIP3    H247350   6.644   0.589   1.968 -0.6233 -0.4914  0.0225
 7719TIP3   OH247351   3.876   0.147   1.137 -0.4833  0.3713  0.2315
 7719TIP3    H147352   3.789   0.149   1.097 -0.1948  2.7142 -0.4478
 7719TIP3    H247353   3.929   0.203   1.080  1.1637 -0.0455  1.2976
 7720TIP3   OH247354   1.385   5.402   0.734 -0.2608  0.6278  0.7123
 7720TIP3    H147355   1.318   5.352   0.781  0.3087  1.0972  2.0926
 7720TIP3    H247356   1.348   5.489   0.725 -0.0443  0.7550  1.0311
 7721TIP3   OH247357   1.271   6.967   1.480  0.3326  0.0505 -0.0710
 7721TIP3    H147358   1.199   6.972   1.543 -0.2093  1.6895 -0.7728
 7721TIP3    H247359   1.337   7.026   1.515  1.0697 -0.9353  0.2208
 7722TIP3   OH247360   4.959   2.628   1.203  0.1258  0.0234 -0.4086
 7722TIP3    H147361   4.937   2.718   1.181 -0.7356  0.4932  2.1027
 7722TIP3    H247362   5.047   2.616   1.167  0.4605  2.0234 -0.3774
 7723TIP3   OH247363   5.425   1.554   2.017 -0.3178  0.2812 -0.6880
 7723TIP3    H147364   5.343   1.594   2.046 -0.2267  0.3927 -0.5811
 7723TIP3    H247365   5.461   1.617   1.954  0.1461  0.6883 -0.0368
 7724TIP3   OH247366   6.108   6.616   1.261 -0.2829  0.0843 -0.1895
 7724TIP3    H147367   6.077   6.534   1.300 -1.6590  1.5156  1.9707
 7724TIP3    H247368   6.201   6.602   1.246 -0.8136 -2.5360 -1.8502
 7725TIP3   OH247369   0.044   7.160   0.636  0.7512 -0.3229  0.0777
 7725TIP3    H147370   0.075   7.250   0.646 -0.3008 -0.1678  3.1897
 7725TIP3    H247371   0.111   7.107   0.680  0.0236 -0.7332  0.7119
 7726TIP3   OH247372   4.510   6.287   2.702 -0.3563  0.4463 -0.3796
 7726TIP3    H147373   4.426   6.260   2.738 -0.0351  0.9030  0.7854
 7726TIP3    H247374   4.560   6.317   2.779  1.6492 -1.7650 -0.7065
 7727TIP3   OH247375   4.904   6.290   0.594 -0.7169  0.1304  0.3251
 7727TIP3    H147376   4.963   6.365   0.595  1.0705 -1.1580  2.3565
 7727TIP3    H247377   4.933   6.238   0.519 -1.6504  1.2008 -0.8021
 7728TIP3   OH247378   1.167   4.318   1.359 -0.5004 -0.1543  0.0498
 7728TIP3    H147379   1.155   4.368   1.439  0.2533  0.6015 -0.3009
 7728TIP3    H247380   1.260   4.297   1.357 -0.7396 -1.3122  0.0301
 7729TIP3   OH247381   5.213   2.990   2.061 -0.1231  0.3776  0.5702
 7729TIP3    H147382   5.216   2.903   2.101  1.6610  0.7692  1.3918
 7729TIP3    H247383   5.228   2.974   1.968  2.0153 -0.1237  0.9353
 7730TIP3   OH247384   6.452   1.741   2.127  0.5614  0.0270 -0.1075
 7730TIP3    H147385   6.379   1.792   2.094  1.2975  2.2093  1.3872
 7730TIP3    H247386   6.457   1.665   2.069 -1.6257  0.8031 -1.4265
 7731TIP3   OH247387   1.257   7.209   2.498 -0.1949  0.0600 -0.4811
 7731TIP3    H147388   1.220   7.151   2.432  0.0636  2.9268 -3.4061
 7731TIP3    H247389   1.189   7.274   2.515 -1.7340 -2.3862  5.0586
 7732TIP3   OH247390   5.658   1.025   1.136  0.6235  0.2199  0.3124
 7732TIP3    H147391   5.592   0.985   1.192  1.0594 -0.2476  0.5044
 7732TIP3    H247392   5.612   1.095   1.090  0.3004  0.7347  1.3834
 7733TIP3   OH247393   7.384   6.936   2.217  0.2884 -0.4019 -0.0049
 7733TIP3    H147394   7.426   7.021   2.229 -0.2466  0.2052 -2.0267
 7733TIP3    H247395   7.394   6.892   2.302  0.1172  1.8647  1.2831
 7734TIP3   OH247396   0.034   6.233   1.991 -0.0628  0.1086 -0.3734
 7734TIP3    H147397  -0.018   6.313   2.002  1.4229  0.9474  0.9983
 7734TIP3    H247398   0.093   6.254   1.918  0.3394  0.2888 -0.0012
 7735TIP3   OH247399   6.934   7.112   0.961 -0.4129 -0.6354 -0.3805
 7735TIP3    H147400   6.939   7.190   0.906 -3.1169 -0.1614 -0.0831
 7735TIP3    H247401   6.991   7.132   1.036  0.2519  0.3288 -1.1215
 7736TIP3   OH247402   5.078   4.153   2.092 -0.2353 -0.0815 -0.3586
 7736TIP3    H147403   5.111   4.155   2.002 -0.1323 -0.4409 -0.3286
 7736TIP3    H247404   5.029   4.071   2.098  1.3868 -1.0164  0.4869
 7737TIP3   OH247405   2.838   2.323   1.014  0.2098  0.0379 -0.3437
 7737TIP3    H147406   2.751   2.356   1.035  0.2846 -0.7224  1.3577
 7737TIP3    H247407   2.823   2.259   0.944 -0.5106  0.3901 -0.5170
 7738TIP3   OH247408   7.506   6.309   0.674 -0.1864  0.0878 -0.1733
 7738TIP3    H147409   7.432   6.321   0.734 -0.0026  0.8405 -0.0814
 7738TIP3    H247410   7.547   6.395   0.670  0.5274 -0.2581 -0.4358
 7739TIP3   OH247411   4.056   7.513   1.244 -0.4553  0.0446  0.0380
 7739TIP3    H147412   4.118   7.546   1.178  1.4980  1.1962  2.2790
 7739TIP3    H247413   3.970   7.527   1.205  0.5969 -0.7013 -2.8410
 7740TIP3   OH247414   6.042   1.776   1.278  0.9999 -0.2619  0.3716
 7740TIP3    H147415   6.039   1.783   1.183 -0.0406  0.4290  0.4354
 7740TIP3    H247416   5.960   1.733   1.302  0.9369  0.1786  0.9978
 7741TIP3   OH247417   6.533   5.840   1.223 -0.5668  0.2865 -0.3987
 7741TIP3    H147418   6.569   5.830   1.311 -1.3455  0.7763 -0.0141
 7741TIP3    H247419   6.563   5.927   1.195 -0.8852  0.4159 -0.3419
 7742TIP3   OH247420   0.672   4.191   1.749 -0.1674  0.0857  0.3533
 7742TIP3    H147421   0.647   4.231   1.833  0.5868  2.8097 -0.6280
 7742TIP3    H247422   0.767   4.179   1.756 -0.2518 -0.7062  0.2605
 7743TIP3   OH247423   0.925   3.697   2.340  0.5481  0.2978 -0.1333
 7743TIP3    H147424   0.923   3.678   2.247  1.1245 -0.8789  0.0749
 7743TIP3    H247425   1.014   3.729   2.356  1.0367 -1.1765  0.2890
 7744TIP3   OH247426   4.208   1.295   1.119  0.0558  0.0550 -0.3692
 7744TIP3    H147427   4.240   1.207   1.138 -1.0802 -0.4071 -0.5269
 7744TIP3    H247428   4.283   1.339   1.078  0.5097 -0.9642 -0.6778
 7745TIP3   OH247429   6.496   1.366   2.664  0.3491 -0.2732 -0.0653
 7745TIP3    H147430   6.522   1.445   2.711  1.6279 -0.8095  0.1748
 7745TIP3    H247431   6.557   1.360   2.591  1.2638 -1.8364  0.7809
 7746TIP3   OH247432   2.670   6.382   3.529 -0.3727  0.1839 -0.2134
 7746TIP3    H147433   2.751   6.334   3.510  0.6483 -0.8083  5.0956
 7746TIP3    H247434   2.601   6.318   3.516  0.2687 -0.6034  0.1486
 7747TIP3   OH247435   4.764   5.990   1.151  0.4424 -0.2810 -0.0712
 7747TIP3    H147436   4.840   5.952   1.107  1.0015  1.8885 -1.0967
 7747TIP3    H247437   4.791   6.079   1.173 -1.4883  0.2329  0.3997
 7748TIP3   OH247438   0.745   1.439   1.838  0.5236 -0.3714  0.3055
 7748TIP3    H147439   0.669   1.496   1.850 -0.1510 -0.8723 -1.3153
 7748TIP3    H247440   0.713   1.351   1.857  1.3802 -0.3580  2.0883
 7749TIP3   OH247441   7.417   2.306   1.133  0.2451 -0.3605 -0.2459
 7749TIP3    H147442   7.496   2.272   1.090 -0.5041 -2.4130 -0.0981
 7749TIP3    H247443   7.450   2.350   1.211  1.4344  1.3231 -1.6101
 7750TIP3   OH247444   7.031   2.378   1.468  0.5729  0.3115 -0.0965
 7750TIP3    H147445   6.951   2.429   1.479 -0.4694 -1.3800  0.5455
 7750TIP3    H247446   7.052   2.385   1.375  0.6482  2.1200  0.0284
 7751TIP3   OH247447   2.398   3.149   1.926 -0.2075 -0.2619 -0.8846
 7751TIP3    H147448   2.398   3.239   1.892  0.8843  0.2194  0.2765
 7751TIP3    H247449   2.356   3.157   2.012  0.4343 -0.7536 -0.5229
 7752TIP3   OH247450   3.825   4.215   2.247 -0.7875 -0.1236  0.3253
 7752TIP3    H147451   3.839   4.252   2.335 -0.9912  1.3092 -0.2173
 7752TIP3    H247452   3.776   4.282   2.201 -0.2418 -0.6499 -1.0639
 7753TIP3   OH247453   1.496   0.610   1.188 -0.0534  0.5590 -0.5465
 7753TIP3    H147454   1.585   0.637   1.212  0.1136 -0.4616  0.0664
 7753TIP3    H247455   1.504   0.580   1.097  0.2546  0.3828 -0.4642
 7754TIP3   OH247456   0.288   2.543   2.696  0.0214  0.5173 -0.3388
 7754TIP3    H147457   0.313   2.604   2.627  0.2572  1.2188  0.3439
 7754TIP3    H247458   0.281   2.598   2.775  0.4152 -0.3708  0.3337
 7755TIP3   OH247459   3.228   5.180   1.209  0.0868 -0.0921 -0.2509
 7755TIP3    H147460   3.255   5.271   1.201  0.0825  0.0385  0.9196
 7755TIP3    H247461   3.210   5.169   1.303 -3.5879 -0.2825 -0.8639
 7756TIP3   OH247462   0.364   0.582   0.953 -0.2013 -0.0760  0.1396
 7756TIP3    H147463   0.393   0.664   0.992 -1.6035  0.5744 -0.1267
 7756TIP3    H247464   0.375   0.595   0.859  0.4300 -0.5545  0.1368
 7757TIP3   OH247465   4.612   6.884   0.740 -0.1915  0.7000  0.3761
 7757TIP3    H147466   4.579   6.972   0.756 -0.2667  0.6524  0.4836
 7757TIP3    H247467   4.685   6.896   0.679  0.9077  0.9977  1.6931
 7758TIP3   OH247468   2.623   5.105   0.511 -0.2950  0.3059 -0.2379
 7758TIP3    H147469   2.652   5.014   0.505 -2.2187 -0.2532 -2.4494
 7758TIP3    H247470   2.699   5.152   0.544  1.5023 -1.7440 -1.2130
 7759TIP3   OH247471   2.448   0.977   1.201  0.5206 -0.0859  0.0190
 7759TIP3    H147472   2.378   1.041   1.204 -0.1207 -0.8264  2.7064
 7759TIP3    H247473   2.515   1.018   1.146 -0.4581  2.2479  0.4576
 7760TIP3   OH247474   4.716   3.569   1.769  0.0334  0.0833  0.3619
 7760TIP3    H147475   4.805   3.585   1.801 -0.3869 -0.9704  2.2020
 7760TIP3    H247476   4.697   3.645   1.713  1.8736  0.5887  0.3376
 7761TIP3   OH247477   5.548   1.026   2.145 -0.5569 -0.1927 -0.3552
 7761TIP3    H147478   5.541   1.108   2.096  1.5997  0.5675  0.4570
 7761TIP3    H247479   5.545   1.053   2.237 -0.7046 -1.1294 -0.0770
 7762TIP3   OH247480   3.118   4.537   3.011  0.0056  0.8108 -0.4697
 7762TIP3    H147481   3.140   4.448   2.983 -4.2963  0.0257 -2.1714
 7762TIP3    H247482   3.120   4.534   3.106 -0.5507 -1.3017 -0.4734
 7763TIP3   OH247483   0.228   3.566   1.438  0.1565 -0.1187  0.2761
 7763TIP3    H147484   0.247   3.555   1.345  1.7717 -0.0630  0.5710
 7763TIP3    H247485   0.250   3.658   1.456  0.5588 -0.3270  0.8623
 7764TIP3   OH247486   7.416   5.658   2.713 -0.5844 -0.0697  0.0121
 7764TIP3    H147487   7.487   5.593   2.711 -0.5863 -0.0667 -1.6277
 7764TIP3    H247488   7.337   5.607   2.728 -0.3457 -0.1683  1.0134
 7765TIP3   OH247489   0.779   4.355   2.536 -0.5207  0.0782  0.0862
 7765TIP3    H147490   0.792   4.302   2.615 -0.0803 -1.5766 -1.0556
 7765TIP3    H247491   0.865   4.357   2.494 -0.7241  1.0426 -0.3028
 7766TIP3   OH247492   3.456   2.695   0.777 -0.2687 -0.0751  0.7031
 7766TIP3    H147493   3.511   2.772   0.790  0.4622 -0.6591  1.1159
 7766TIP3    H247494   3.515   2.629   0.741 -0.7648 -0.6191  0.8788
 7767TIP3   OH247495   4.710   6.132   2.555  0.5660 -0.4973 -0.0326
 7767TIP3    H147496   4.644   6.190   2.594  0.5397 -1.7916  1.9942
 7767TIP3    H247497   4.672   6.106   2.471 -0.7831  0.0830  0.3702
 7768TIP3   OH247498   5.444   3.552   1.411 -0.0107  0.4954 -0.0461
 7768TIP3    H147499   5.429   3.573   1.319 -1.6749 -1.0790 -0.1931
 7768TIP3    H247500   5.373   3.596   1.457 -1.0679 -1.2307  0.0819
 7769TIP3   OH247501   2.135   5.820   1.067 -0.4009  0.4220 -0.6365
 7769TIP3    H147502   2.208   5.778   1.021 -0.6866 -0.6008 -0.1873
 7769TIP3    H247503   2.093   5.874   1.000  0.3284  0.4581 -1.0814
 7770TIP3   OH247504   1.273   0.411   1.972  0.0101  0.0189  0.2077
 7770TIP3    H147505   1.310   0.372   1.893 -0.1494 -2.0031  1.0579
 7770TIP3    H247506   1.343   0.404   2.037  0.1010  1.5575  0.2944
 7771TIP3   OH247507   7.037   0.123   0.992 -0.0835  0.0817 -0.7919
 7771TIP3    H147508   7.040   0.073   1.074 -0.8362 -1.8605 -1.8874
 7771TIP3    H247509   6.970   0.190   1.009  1.2363  1.0593  0.8495
 7772TIP3   OH247510   2.141   0.375   2.545 -0.1056  0.3747 -0.4484
 7772TIP3    H147511   2.187   0.405   2.623 -0.3196 -1.3308  0.3949
 7772TIP3    H247512   2.172   0.286   2.532  1.1912  1.1581 -3.3607
 7773TIP3   OH247513   0.313   3.766   2.612  0.7624  0.4375 -0.4946
 7773TIP3    H147514   0.253   3.691   2.617  0.2173  0.7954 -1.5001
 7773TIP3    H247515   0.291   3.820   2.688  1.5627 -0.6968  0.5861
 7774TIP3   OH247516   3.556   7.074   3.043 -0.0200  0.5210 -0.1214
 7774TIP3    H147517   3.518   7.162   3.042  0.9556  0.9788  0.8838
 7774TIP3    H247518   3.487   7.017   3.009 -1.2818  1.4411  0.8358
 7775TIP3   OH247519   6.968   3.672   1.857 -0.6017  0.6598 -0.4712
 7775TIP3    H147520   6.878   3.682   1.886 -0.8726 -1.2624 -0.4857
 7775TIP3    H247521   6.973   3.721   1.774 -1.5630  0.9481 -0.3682
 7776TIP3   OH247522   1.785   4.427   1.930 -0.1203 -0.4035  0.2306
 7776TIP3    H147523   1.757   4.490   1.863  0.4498 -0.9440 -0.5412
 7776TIP3    H247524   1.754   4.464   2.012 -2.6807 -0.7185 -0.4930
 7777TIP3   OH247525   2.751   2.169   1.414  0.1697 -0.1220  0.3925
 7777TIP3    H147526   2.684   2.101   1.417 -1.5331  1.2938 -1.9406
 7777TIP3    H247527   2.702   2.251   1.422  1.9302  0.9089  1.1254
 7778TIP3   OH247528   6.772   4.320   0.772 -0.4375  0.3880  0.3020
 7778TIP3    H147529   6.810   4.335   0.685  0.8383  2.1348  1.0990
 7778TIP3    H247530   6.753   4.226   0.774  0.5937  0.0942 -1.4352
 7779TIP3   OH247531   4.143   6.748   1.045 -0.5259 -0.5745 -0.7210
 7779TIP3    H147532   4.104   6.721   1.129 -0.1188 -0.6866 -0.5675
 7779TIP3    H247533   4.138   6.670   0.990 -3.0014  0.1303 -1.6414
 7780TIP3   OH247534   3.902   2.841   0.763 -0.6136  0.0442  0.2941
 7780TIP3    H147535   3.968   2.906   0.789  0.2059 -1.5526  2.6021
 7780TIP3    H247536   3.819   2.877   0.795 -0.8645  1.7675 -2.0575
 7781TIP3   OH247537   3.123   0.946   1.326  0.7178 -0.0334 -0.3658
 7781TIP3    H147538   3.164   0.882   1.268 -1.7756  0.5272 -2.9796
 7781TIP3    H247539   3.036   0.910   1.344  0.5712  0.9754  1.0744
 7782TIP3   OH247540   0.215   7.063   0.855 -0.0445 -0.2600 -0.0055
 7782TIP3    H147541   0.184   7.125   0.921  1.0783 -0.5480  0.8305
 7782TIP3    H247542   0.311   7.070   0.860  0.1044  1.1503 -2.9845
 7783TIP3   OH247543   5.891   4.362   0.988 -0.2564 -0.8422  0.2030
 7783TIP3    H147544   5.833   4.346   0.914  0.0775  1.5291 -0.6265
 7783TIP3    H247545   5.853   4.436   1.034  0.9330 -0.6412  0.9278
 7784TIP3   OH247546   0.609   0.093   2.630  0.0615  0.4446  0.0013
 7784TIP3    H147547   0.602   0.160   2.698 -0.6668 -0.9542  1.3744
 7784TIP3    H247548   0.682   0.038   2.658 -0.0753  0.0003 -0.4904
 7785TIP3   OH247549   4.099   2.764   1.440  0.2492 -0.0568 -0.6993
 7785TIP3    H147550   4.058   2.679   1.425  1.1120 -0.7412  0.6605
 7785TIP3    H247551   4.053   2.799   1.516 -0.5217  1.0037 -1.6137
 7786TIP3   OH247552   0.605   2.859   2.183  0.2956 -0.4059 -0.2867
 7786TIP3    H147553   0.577   2.895   2.267  0.5606  3.5235 -1.6620
 7786TIP3    H247554   0.699   2.874   2.180  0.0279  1.4586 -1.9529
 7787TIP3   OH247555   4.043   7.431   2.613 -0.0845 -0.5418  0.3964
 7787TIP3    H147556   4.095   7.511   2.614 -0.2433 -0.3611 -1.5815
 7787TIP3    H247557   3.953   7.462   2.625 -0.0059 -0.5909  1.1551
 7788TIP3   OH247558   1.270   2.265   2.721 -0.0095 -0.5201  0.0784
 7788TIP3    H147559   1.244   2.192   2.776 -2.1393  1.1456  1.4816
 7788TIP3    H247560   1.329   2.317   2.775  0.9790 -0.8354 -0.6694
 7789TIP3   OH247561   0.806   5.143   2.721  0.3117  0.2866  0.4140
 7789TIP3    H147562   0.876   5.208   2.713  0.7080 -0.2879 -1.5819
 7789TIP3    H247563   0.841   5.077   2.781  1.1222  0.4819  0.1701
 7790TIP3   OH247564   3.908   0.699   0.438  0.1222 -0.4543  0.4889
 7790TIP3    H147565   3.930   0.705   0.345 -0.6957 -0.7772  0.2572
 7790TIP3    H247566   3.969   0.758   0.482 -1.1498  1.7623 -0.5379
 7791TIP3   OH247567   4.684   5.620   1.386 -0.4361  0.1661  0.2801
 7791TIP3    H147568   4.751   5.656   1.443  0.7644  0.6243 -1.3586
 7791TIP3    H247569   4.601   5.643   1.428  0.3937  0.3388  1.8881
 7792TIP3   OH247570   7.478   7.013   2.736 -0.5130  0.0842  0.3212
 7792TIP3    H147571   7.537   7.038   2.665 -0.8843 -1.4408 -0.5612
 7792TIP3    H247572   7.532   6.961   2.795 -0.4891  0.4064  0.5908
 7793TIP3   OH247573   6.720   1.135   0.854  0.3404 -0.0287 -0.4085
 7793TIP3    H147574   6.685   1.213   0.898 -1.4991  0.2224 -2.1516
 7793TIP3    H247575   6.667   1.063   0.887  2.6522 -0.7887  1.9072
 7794TIP3   OH247576   0.222   6.479   2.707  0.7242 -0.0163  0.1216
 7794TIP3    H147577   0.214   6.452   2.615 -1.3651 -2.0619  0.8069
 7794TIP3    H247578   0.222   6.398   2.756  1.1524  1.0622  2.0114
 7795TIP3   OH247579   7.318   6.387   0.873  0.2919 -0.2952  0.1357
 7795TIP3    H147580   7.246   6.336   0.911  1.3720 -1.8098  0.2556
 7795TIP3    H247581   7.376   6.407   0.946  0.5873 -0.1271 -0.1402
 7796TIP3   OH247582   6.085   7.312   1.784  0.4222 -0.2185  0.3134
 7796TIP3    H147583   6.020   7.379   1.760 -1.6354 -2.2026 -0.0391
 7796TIP3    H247584   6.138   7.300   1.705 -0.8711 -0.7580 -0.5104
 7797TIP3   OH247585   4.825   4.118   2.897  0.4032 -0.3205  0.2778
 7797TIP3    H147586   4.915   4.149   2.884  0.4078 -0.2737  0.4197
 7797TIP3    H247587   4.827   4.077   2.984  0.2262 -0.1029  0.3855
 7798TIP3   OH247588   5.111   3.339   1.138  0.0090 -0.3030  0.1167
 7798TIP3    H147589   5.145   3.275   1.075 -0.5962  1.0026 -1.6190
 7798TIP3    H247590   5.111   3.421   1.090  0.8716  1.0656  2.3145
 7799TIP3   OH247591   4.558   0.502   1.370  0.1631  0.2397 -0.0035
 7799TIP3    H147592   4.486   0.554   1.334  1.3529  1.3104 -0.8995
 7799TIP3    H247593   4.606   0.564   1.425  1.7157  0.1618 -1.2326
 7800TIP3   OH247594   5.768   7.111   1.816 -0.7132 -0.1953 -0.4116
 7800TIP3    H147595   5.719   7.051   1.760  0.4605  0.5313 -2.3150
 7800TIP3    H247596   5.837   7.146   1.759 -0.5281  1.9169  0.9963
 7801TIP3   OH247597   3.275   1.426   2.330 -0.3582 -0.2273  0.1743
 7801TIP3    H147598   3.278   1.448   2.423  0.3469 -0.0267  0.1135
 7801TIP3    H247599   3.316   1.340   2.325  0.4756  0.1709 -0.0549
 7802TIP3   OH247600   1.045   2.512   2.458 -0.3042 -0.0370  0.4914
 7802TIP3    H147601   1.079   2.454   2.390 -0.7869 -1.5874  1.5267
 7802TIP3    H247602   1.063   2.466   2.540 -2.2260  0.4482  1.2486
 7803TIP3   OH247603   6.162   6.869   0.480 -0.3037 -0.4070  0.1943
 7803TIP3    H147604   6.083   6.816   0.465 -1.3942  0.8516  1.2249
 7803TIP3    H247605   6.152   6.944   0.421 -1.6202  1.4666  2.6091
 7804TIP3   OH247606   5.895   3.693   1.744  0.4502  0.6591  0.2824
 7804TIP3    H147607   5.824   3.632   1.763 -1.0288  2.5061  1.0634
 7804TIP3    H247608   5.970   3.659   1.794  0.0659 -1.1526 -0.3067
 7805TIP3   OH247609   1.662   1.713   1.869  0.9874 -0.4413  0.1593
 7805TIP3    H147610   1.581   1.732   1.823  0.7683 -0.1895  0.6461
 7805TIP3    H247611   1.712   1.658   1.808  0.1873 -1.1266  0.1047
 7806TIP3   OH247612   6.587   6.647   2.005  0.0663  0.1751 -0.1750
 7806TIP3    H147613   6.661   6.592   1.981 -0.1197  0.4765 -1.4963
 7806TIP3    H247614   6.614   6.690   2.086  1.2422  0.1076 -0.5226
 7807TIP3   OH247615   2.801   1.248   0.504 -0.0826 -0.2026  0.7607
 7807TIP3    H147616   2.875   1.308   0.493  0.3972 -0.6028  1.6348
 7807TIP3    H247617   2.731   1.303   0.538  0.6956 -0.2955  2.6480
 7808TIP3   OH247618   7.604   6.462   2.387  0.4338  0.3567  0.1360
 7808TIP3    H147619   7.562   6.441   2.471  0.6882  0.2370  0.2342
 7808TIP3    H247620   7.696   6.439   2.400  0.5512  0.7161 -0.0455
 7809TIP3   OH247621   6.248   2.753   1.972  0.7666  0.4375 -0.3818
 7809TIP3    H147622   6.255   2.729   1.880  0.0109 -0.4573 -0.2178
 7809TIP3    H247623   6.295   2.836   1.979  1.4564  0.1439 -1.4211
 7810TIP3   OH247624   2.716   1.570   2.210 -0.3559  0.2055  0.0785
 7810TIP3    H147625   2.776   1.496   2.203 -1.6441 -0.8305 -0.4090
 7810TIP3    H247626   2.761   1.632   2.268 -0.0609 -1.8188  2.1728
 7811TIP3   OH247627   6.048   5.691   3.205  0.3873 -0.0420 -0.2906
 7811TIP3    H147628   6.059   5.785   3.196 -2.0075  0.4094  0.7252
 7811TIP3    H247629   6.137   5.656   3.206  1.3330  2.2256 -0.4039
 7812TIP3   OH247630   0.430   4.818   3.332 -0.0759 -0.2230  0.1905
 7812TIP3    H147631   0.436   4.738   3.280 -1.6742 -1.3128  1.5606
 7812TIP3    H247632   0.342   4.814   3.371 -0.2691  2.3022  0.1635
 7813TIP3   OH247633   0.969   1.165   2.863  0.1337  0.2123 -0.0498
 7813TIP3    H147634   1.046   1.121   2.899 -0.4195 -0.9953 -0.3194
 7813TIP3    H247635   0.922   1.098   2.814 -0.7461  1.0937 -0.4668
 7814TIP3   OH247636   6.063   6.534   1.612 -0.4734  0.1043  0.5660
 7814TIP3    H147637   6.119   6.463   1.641 -1.4798 -1.1498 -0.4641
 7814TIP3    H247638   5.989   6.491   1.570 -0.8817  1.7621 -0.5153
 7815TIP3   OH247639   6.021   4.120   3.524  0.0163 -0.1246  0.4627
 7815TIP3    H147640   6.040   4.033   3.487 -0.8869  0.0277 -0.4083
 7815TIP3    H247641   5.952   4.155   3.468  1.3153  1.7434 -0.0775
 7816TIP3   OH247642   0.351   2.768   2.076 -0.5154  0.6385  0.0472
 7816TIP3    H147643   0.335   2.835   2.142  0.9067 -0.5380  1.6734
 7816TIP3    H247644   0.446   2.771   2.061 -0.5819 -0.3092 -0.6438
 7817TIP3   OH247645   3.894   7.106   1.792 -0.4461  0.7154  0.2639
 7817TIP3    H147646   3.878   7.128   1.700  0.5501  0.7495  0.0795
 7817TIP3    H247647   3.850   7.022   1.805 -0.3795  0.5840 -0.3207
 7818TIP3   OH247648   4.192   5.214   3.472  0.2862  0.5513 -0.0928
 7818TIP3    H147649   4.283   5.199   3.448  0.7332  2.7799 -0.0086
 7818TIP3    H247650   4.172   5.301   3.436 -1.3649  0.7127  1.1005
 7819TIP3   OH247651   5.480   1.289   2.041 -0.1798 -0.1261 -0.3708
 7819TIP3    H147652   5.575   1.305   2.038 -0.1048  0.1995  2.1447
 7819TIP3    H247653   5.441   1.370   2.008  0.3385 -0.7757 -2.8597
 7820TIP3   OH247654   1.056   5.673   2.039 -0.1737  0.2454  0.0674
 7820TIP3    H147655   1.105   5.725   2.102  0.9571  1.3534 -1.6491
 7820TIP3    H247656   1.006   5.611   2.093  2.4090 -0.3709  1.9615
 7821TIP3   OH247657   6.731   6.608   1.353  0.2864 -0.2136  0.1565
 7821TIP3    H147658   6.818   6.645   1.369 -0.2817  1.2983 -0.1005
 7821TIP3    H247659   6.675   6.651   1.417 -0.8113  1.0789 -1.5738
 7822TIP3   OH247660   0.524   0.566   3.332 -0.0774  0.2535  0.9194
 7822TIP3    H147661   0.556   0.656   3.339 -0.0596  0.3068  0.2202
 7822TIP3    H247662   0.602   0.511   3.342  0.1734  0.3686 -0.2907
 7823TIP3   OH247663   3.062   0.948   1.734  0.0777 -0.6732 -0.3269
 7823TIP3    H147664   3.145   0.904   1.715  0.3632  0.2646 -1.3417
 7823TIP3    H247665   3.058   0.952   1.829  0.8110 -1.4444 -0.2535
 7824TIP3   OH247666   0.248   6.908   2.849 -0.4093 -0.0727  0.8751
 7824TIP3    H147667   0.198   6.827   2.852 -1.6766  0.6580  0.4929
 7824TIP3    H247668   0.293   6.906   2.765 -0.4927 -0.3459  0.8363
 7825TIP3   OH247669   2.290   3.832   2.515  0.1325  0.2623  0.4064
 7825TIP3    H147670   2.316   3.811   2.605 -2.4161  0.8390  1.3661
 7825TIP3    H247671   2.307   3.926   2.507  0.9440  0.0928  0.0387
 7826TIP3   OH247672   7.171   6.523   2.370  0.6742  0.6736 -0.2828
 7826TIP3    H147673   7.097   6.483   2.325  1.1976 -0.6335 -0.0135
 7826TIP3    H247674   7.248   6.481   2.332  1.1283 -0.9365  2.1969
 7827TIP3   OH247675   3.170   3.017   0.839  0.0893 -0.4290 -0.6273
 7827TIP3    H147676   3.092   2.962   0.831 -1.1279  1.1274 -0.0269
 7827TIP3    H247677   3.136   3.107   0.843  1.9480  0.3319 -0.7929
 7828TIP3   OH247678   6.217   2.735   1.705  0.1480  0.9773  0.0264
 7828TIP3    H147679   6.237   2.651   1.661  1.8779  1.0680  0.5421
 7828TIP3    H247680   6.123   2.747   1.693  0.0267 -0.5812 -0.8748
 7829TIP3   OH247681   1.450   6.731   1.209 -0.0644 -0.5614 -0.1314
 7829TIP3    H147682   1.386   6.733   1.138  1.4272 -1.2014 -1.5769
 7829TIP3    H247683   1.452   6.640   1.238 -1.6776 -0.0599  1.7880
 7830TIP3   OH247684   4.466   6.952   3.383 -0.4776 -1.2187 -0.6780
 7830TIP3    H147685   4.387   6.976   3.335  0.3908 -0.8353 -1.9775
 7830TIP3    H247686   4.502   6.879   3.333  0.5238 -0.7166 -0.7084
 7831TIP3   OH247687   4.404   1.570   1.255 -0.3970  0.1299  0.1871
 7831TIP3    H147688   4.370   1.646   1.209  0.2520  0.4493  0.2258
 7831TIP3    H247689   4.336   1.546   1.318 -0.8264  0.3492 -0.1955
 7832TIP3   OH247690   7.204   4.933   2.228  0.3202  0.0434 -0.3147
 7832TIP3    H147691   7.187   4.952   2.320 -2.6519  0.1356 -0.7824
 7832TIP3    H247692   7.220   5.019   2.188  3.0644 -0.0965  0.2425
 7833TIP3   OH247693   3.730   1.057   1.736  1.0651  0.4828 -0.4943
 7833TIP3    H147694   3.794   1.023   1.672 -0.8296  1.5469 -3.1433
 7833TIP3    H247695   3.756   1.148   1.749  1.4969  0.2435  0.3627
 7834TIP3   OH247696   1.959   2.032   1.095  0.1593 -0.2079  0.3332
 7834TIP3    H147697   1.960   1.964   1.028  0.3012 -0.9884  1.1016
 7834TIP3    H247698   1.923   2.109   1.051 -0.2389 -0.8496 -0.4938
 7835TIP3   OH247699   0.283   7.060   2.420  0.2321  0.1430  0.1404
 7835TIP3    H147700   0.349   6.996   2.392  0.3442 -0.5630  1.8985
 7835TIP3    H247701   0.279   7.123   2.349  2.1000 -0.3459 -0.4418
 7836TIP3   OH247702   4.343   0.638   1.275 -0.0692 -0.5476  0.1823
 7836TIP3    H147703   4.396   0.712   1.246  0.0300 -0.0292  1.6206
 7836TIP3    H247704   4.274   0.630   1.208 -1.1095  1.9614  0.8368
 7837TIP3   OH247705   2.361   2.202   2.114  1.0819  0.0410 -0.3699
 7837TIP3    H147706   2.375   2.266   2.043 -2.6533  0.0839 -1.2691
 7837TIP3    H247707   2.344   2.119   2.069 -0.2908 -0.1608  0.4484
 7838TIP3   OH247708   0.272   6.584   2.218  0.4255  0.0724 -0.2152
 7838TIP3    H147709   0.190   6.612   2.177 -0.5908 -3.0969 -0.6639
 7838TIP3    H247710   0.340   6.608   2.155 -0.6989 -1.2312 -2.0190
 7839TIP3   OH247711   4.585   3.547   2.934  0.1928  0.7461 -0.2320
 7839TIP3    H147712   4.670   3.563   2.893  0.2125  1.3110  0.0289
 7839TIP3    H247713   4.566   3.455   2.913  0.8984  0.5903 -0.2309
 7840TIP3   OH247714   4.003   1.293   2.413  0.0714  0.1473 -0.1220
 7840TIP3    H147715   4.021   1.265   2.323  0.3720  0.1171 -0.0523
 7840TIP3    H247716   4.003   1.388   2.408  2.1361  0.2216  0.2229
 7841TIP3   OH247717   4.905   6.592   2.336  0.7056  0.0758  0.1679
 7841TIP3    H147718   4.981   6.645   2.362  2.0480 -1.9762  0.6999
 7841TIP3    H247719   4.856   6.580   2.418  1.1066 -0.5621  0.3171
 7842TIP3   OH247720   3.784   1.535   1.301 -1.0339  0.2705 -0.2998
 7842TIP3    H147721   3.871   1.502   1.323 -1.2124  0.0792  0.1362
 7842TIP3    H247722   3.731   1.515   1.378 -1.6318 -0.2611 -0.8360
 7843TIP3   OH247723   5.491   4.130   2.244  0.1261  0.2824  0.1837
 7843TIP3    H147724   5.516   4.043   2.215  0.3085  0.7111 -1.0198
 7843TIP3    H247725   5.435   4.116   2.320  0.6100 -0.8502  0.3476
 7844TIP3   OH247726   0.845   0.403   1.457  0.3017  0.5012  0.3262
 7844TIP3    H147727   0.795   0.323   1.475 -2.2103  1.9056  0.0283
 7844TIP3    H247728   0.889   0.385   1.374 -0.2614 -0.5433  0.2362
 7845TIP3   OH247729   4.301   1.034   1.246  0.2879  0.1965 -0.3417
 7845TIP3    H147730   4.216   1.052   1.286 -0.7012 -0.1776 -2.1977
 7845TIP3    H247731   4.339   0.964   1.300 -0.7098  0.1393  0.3016
 7846TIP3   OH247732   2.269   5.025   2.119 -0.0482  0.1180 -0.4573
 7846TIP3    H147733   2.265   5.115   2.086  1.4916  0.2078 -0.4330
 7846TIP3    H247734   2.284   4.971   2.040  1.4438  0.1298 -0.2104
 7847TIP3   OH247735   4.319   2.154   3.309  0.2086  0.2450  0.2139
 7847TIP3    H147736   4.239   2.203   3.330 -0.7903 -1.2765  0.0941
 7847TIP3    H247737   4.364   2.145   3.393 -0.3867  0.0104  0.5115
 7848TIP3   OH247738   1.407   3.470   0.848 -0.3080  0.8837  0.0884
 7848TIP3    H147739   1.454   3.387   0.844  1.0334  1.6723 -1.6541
 7848TIP3    H247740   1.397   3.487   0.942 -1.2279 -1.5262  0.5040
 7849TIP3   OH247741   6.569   2.535   1.962  0.2063 -0.2903 -0.5683
 7849TIP3    H147742   6.577   2.576   1.875  0.8622  0.9956  0.0734
 7849TIP3    H247743   6.598   2.445   1.948 -0.0986 -0.2256 -1.7673
 7850TIP3   OH247744   2.148   0.133   0.860  0.5440  0.2371  0.5869
 7850TIP3    H147745   2.203   0.091   0.794 -2.6926 -1.3748 -1.3606
 7850TIP3    H247746   2.103   0.202   0.812 -2.0982 -1.1481  0.8846
 7851TIP3   OH247747   0.676   1.451   3.558  0.4316  0.4788 -0.2738
 7851TIP3    H147748   0.714   1.536   3.582 -0.9398  1.4278 -1.3332
 7851TIP3    H247749   0.744   1.409   3.505  1.0715  0.9376  0.1578
 7852TIP3   OH247750   6.927   0.381   3.057 -0.0710  0.3804 -0.1512
 7852TIP3    H147751   6.901   0.292   3.082  2.4183 -0.4888 -0.2906
 7852TIP3    H247752   6.967   0.417   3.136  1.9120  0.0651 -0.9334
 7853TIP3   OH247753   2.316   4.169   1.938  0.4206  0.9556 -0.2406
 7853TIP3    H147754   2.343   4.083   1.970  1.9135  0.3579 -2.8058
 7853TIP3    H247755   2.394   4.224   1.948  0.5147  1.0876 -1.5241
 7854TIP3   OH247756   3.773   0.588   1.342 -0.4235 -0.4389  0.2903
 7854TIP3    H147757   3.826   0.642   1.285  0.0203 -0.6946  0.4539
 7854TIP3    H247758   3.744   0.647   1.412 -0.2677 -0.3229  0.2558
 7855TIP3   OH247759   0.391   5.411   2.542 -0.0070 -0.2106 -0.0296
 7855TIP3    H147760   0.390   5.448   2.630 -0.5242 -0.7364  0.1878
 7855TIP3    H247761   0.476   5.438   2.506  0.3309 -0.2297  0.7280
 7856TIP3   OH247762   3.961   2.455   2.450  0.1701  0.9325 -0.1174
 7856TIP3    H147763   4.018   2.460   2.373  0.2933  0.6292 -0.0484
 7856TIP3    H247764   3.874   2.476   2.417  0.1129  0.1742 -0.4702
 7857TIP3   OH247765   0.849   0.909   2.824  0.3510  0.3261 -0.2955
 7857TIP3    H147766   0.891   0.897   2.909 -0.4278 -4.7662 -0.3150
 7857TIP3    H247767   0.908   0.868   2.761 -1.1592 -0.1787 -1.4573
 7858TIP3   OH247768   4.887   4.850   0.812  0.4558  0.4246 -0.2843
 7858TIP3    H147769   4.911   4.937   0.782  2.0751  0.2502  0.4247
 7858TIP3    H247770   4.791   4.853   0.820  0.6069  2.9676  2.1131
 7859TIP3   OH247771   4.928   4.941   1.407 -0.0084  0.4341  0.8848
 7859TIP3    H147772   5.012   4.983   1.421  0.1480  0.1957  0.6720
 7859TIP3    H247773   4.919   4.936   1.312 -1.2576  2.4358  0.8334
 7860TIP3   OH247774   5.407   4.979   0.780 -0.1669  0.3877 -0.1215
 7860TIP3    H147775   5.469   4.944   0.717  0.0466  1.4154 -0.5101
 7860TIP3    H247776   5.340   4.912   0.789 -0.5360  0.4636 -1.9233
 7861TIP3   OH247777   6.575   3.671   2.370  0.1346 -0.2498 -0.1551
 7861TIP3    H147778   6.589   3.763   2.393 -0.9063  0.4672 -2.1257
 7861TIP3    H247779   6.633   3.655   2.295 -1.0985 -0.5858 -1.0782
 7862TIP3   OH247780   5.620   3.789   0.913 -0.4112  0.1835  0.2405
 7862TIP3    H147781   5.555   3.722   0.933  0.0721 -0.4586 -0.2976
 7862TIP3    H247782   5.623   3.843   0.992  0.3987 -1.4202  1.3703
 7863TIP3   OH247783   1.353   0.821   2.120 -0.1920 -0.0108  0.6532
 7863TIP3    H147784   1.390   0.807   2.033  0.4870  1.0562  0.7583
 7863TIP3    H247785   1.421   0.790   2.180 -0.4412 -0.2412  0.8216
 7864TIP3   OH247786   0.532   1.199   1.238  0.2002 -0.0297  0.0395
 7864TIP3    H147787   0.495   1.277   1.197 -0.0091  0.2154  0.6889
 7864TIP3    H247788   0.457   1.153   1.275  0.4607  0.0984  0.7310
 7865TIP3   OH247789   1.324   2.804   0.699 -0.1230 -0.6629  0.2581
 7865TIP3    H147790   1.276   2.887   0.700 -1.4066 -1.3711  0.8725
 7865TIP3    H247791   1.407   2.822   0.743  1.2281  1.1502 -2.7409
 7866TIP3   OH247792   7.422   1.947   2.284 -0.5302  0.1286 -0.6744
 7866TIP3    H147793   7.493   1.912   2.231 -1.0799 -0.2202 -1.1965
 7866TIP3    H247794   7.451   2.035   2.308 -0.0440  0.0919 -1.1178
 7867TIP3   OH247795   7.446   0.216   1.876  0.0346 -0.3091 -0.1850
 7867TIP3    H147796   7.483   0.149   1.934 -0.0810  1.2604  1.7906
 7867TIP3    H247797   7.506   0.290   1.882 -0.3026  0.1127 -1.6532
 7868TIP3   OH247798   1.546   3.065   3.373 -0.0229 -0.4445 -0.3837
 7868TIP3    H147799   1.521   3.032   3.459  0.0285  1.6729  0.4979
 7868TIP3    H247800   1.468   3.109   3.340  0.5372  0.4479 -0.5431
 7869TIP3   OH247801   3.234   7.382   2.487 -0.5289  0.0296 -0.0702
 7869TIP3    H147802   3.208   7.329   2.413 -0.2574 -0.4844  0.1971
 7869TIP3    H247803   3.328   7.396   2.475 -0.2882 -0.8734  0.6815
 7870TIP3   OH247804   6.248   5.461   1.264  0.6228 -0.2321 -0.3058
 7870TIP3    H147805   6.338   5.490   1.246  0.2466  0.1976 -1.6100
 7870TIP3    H247806   6.253   5.419   1.350  2.3079 -1.2870 -0.8671
 7871TIP3   OH247807   0.891   7.140   3.910  0.3633 -0.4202  0.0398
 7871TIP3    H147808   0.820   7.077   3.898  0.6025 -0.3365 -2.3867
 7871TIP3    H247809   0.967   7.099   3.869  0.6528  1.1647 -1.1328
 7872TIP3   OH247810   0.651   2.014   2.184  0.1208  0.6444 -0.4840
 7872TIP3    H147811   0.588   2.038   2.252 -0.7981  0.1080 -1.1287
 7872TIP3    H247812   0.623   2.063   2.106  1.0280  1.0794 -0.5578
 7873TIP3   OH247813   5.447   3.538   2.030 -0.0600 -0.3285 -0.0858
 7873TIP3    H147814   5.433   3.632   2.017  1.9115  0.1604  0.8281
 7873TIP3    H247815   5.496   3.510   1.952  0.4875 -0.2915  0.2397
 7874TIP3   OH247816   3.654   3.012   1.407  0.3206 -0.6700 -0.2731
 7874TIP3    H147817   3.624   3.065   1.333  0.6352 -0.4617 -0.2541
 7874TIP3    H247818   3.577   3.004   1.463  0.7851  1.6507  0.8241
 7875TIP3   OH247819   3.607   7.028   1.187  0.5266  0.3367 -0.1597
 7875TIP3    H147820   3.603   7.013   1.093 -2.1378 -0.8264  0.0669
 7875TIP3    H247821   3.556   7.108   1.201  0.2004  0.0386  0.3784
 7876TIP3   OH247822   1.863   1.827   2.390  0.0497  0.3487  0.3296
 7876TIP3    H147823   1.899   1.910   2.422  1.4983 -0.3676  0.6588
 7876TIP3    H247824   1.769   1.841   2.387  0.2884  2.1241  0.0455
 7877TIP3   OH247825   2.400   4.255   1.641 -0.1301  0.0752  0.3274
 7877TIP3    H147826   2.472   4.194   1.657 -1.2130 -1.2567  0.2490
 7877TIP3    H247827   2.348   4.254   1.722 -0.6926  0.1535 -0.0257
 7878TIP3   OH247828   3.198   1.944   0.824  0.6436  0.4262 -0.1718
 7878TIP3    H147829   3.227   1.909   0.908 -0.1726 -0.6343 -0.3170
 7878TIP3    H247830   3.103   1.950   0.833  0.6739  1.7817 -0.4806
 7879TIP3   OH247831   0.090   7.583   1.114 -0.4424  0.2656  0.1022
 7879TIP3    H147832   0.098   7.641   1.038  0.2205 -0.1341 -0.1506
 7879TIP3    H247833   0.153   7.617   1.177  0.1995 -0.3716 -0.1834
 7880TIP3   OH247834   1.136   0.598   1.462  0.4073  0.0289  0.5335
 7880TIP3    H147835   1.172   0.526   1.410  0.1592 -0.7546  1.4185
 7880TIP3    H247836   1.044   0.575   1.475  0.0328  1.0632 -0.0935
 7881TIP3   OH247837   6.009   2.316   2.129  0.5702 -0.2681 -0.3106
 7881TIP3    H147838   6.100   2.335   2.105  0.3463 -0.4674 -1.3266
 7881TIP3    H247839   5.987   2.237   2.079 -0.1127 -0.3215  0.0667
 7882TIP3   OH247840   0.396   0.743   1.319 -0.0070 -0.2287 -0.5866
 7882TIP3    H147841   0.408   0.826   1.273 -0.2377 -1.0778 -2.2418
 7882TIP3    H247842   0.469   0.688   1.289  0.6967 -0.3636  1.2141
 7883TIP3   OH247843   4.363   4.523   2.672  0.4387  0.6956  0.8082
 7883TIP3    H147844   4.343   4.611   2.703 -0.6719  0.2229  1.5103
 7883TIP3    H247845   4.302   4.467   2.719  0.4479 -0.3479 -0.3768
 7884TIP3   OH247846   3.753   3.814   2.631 -0.5480  0.2893  0.7832
 7884TIP3    H147847   3.732   3.891   2.578 -2.1808 -0.1330  0.7820
 7884TIP3    H247848   3.705   3.828   2.713  0.9416  0.3287  1.6878
 7885TIP3   OH247849   6.843   2.662   3.113 -0.0763 -0.0810 -0.3561
 7885TIP3    H147850   6.871   2.698   3.028  2.9707 -0.6070  0.3004
 7885TIP3    H247851   6.898   2.707   3.177 -1.8904 -0.1356  1.3381
 7886TIP3   OH247852   1.254   4.009   0.937  0.4414 -0.4596 -0.3570
 7886TIP3    H147853   1.255   4.068   0.861  0.4649 -1.8210 -1.4597
 7886TIP3    H247854   1.163   4.010   0.966  0.3774 -0.1224 -0.5605
 7887TIP3   OH247855   3.435   1.868   2.520 -0.5391 -0.0962 -0.0121
 7887TIP3    H147856   3.406   1.889   2.431  2.1458  5.2611  0.0043
 7887TIP3    H247857   3.354   1.857   2.570 -2.1171 -2.1480 -2.7604
 7888TIP3   OH247858   3.339   0.910   1.932 -0.2054 -0.1335  0.6128
 7888TIP3    H147859   3.427   0.931   1.964 -0.2872  2.2869 -0.5375
 7888TIP3    H247860   3.284   0.979   1.966 -1.6730 -1.5046  1.1267
 7889TIP3   OH247861   2.750   0.777   3.366 -0.2763 -0.1185  0.4452
 7889TIP3    H147862   2.800   0.859   3.378 -1.8921  1.1849 -1.1985
 7889TIP3    H247863   2.678   0.784   3.429 -1.2257  0.4482 -0.6665
 7890TIP3   OH247864   3.474   3.899   1.557  0.0207 -0.8573  0.3316
 7890TIP3    H147865   3.467   3.839   1.631  0.7968  1.0723  2.0608
 7890TIP3    H247866   3.387   3.898   1.517 -0.6425 -1.4233  1.7196
 7891TIP3   OH247867   2.507   7.158   0.826 -0.4361 -0.0395 -0.3789
 7891TIP3    H147868   2.428   7.151   0.773 -0.3342  0.6845 -0.6530
 7891TIP3    H247869   2.535   7.068   0.840 -0.3092 -0.2576 -1.8127
 7892TIP3   OH247870   1.318   1.140   0.536 -0.6484 -0.3008  0.0422
 7892TIP3    H147871   1.412   1.125   0.549 -0.7628 -0.2713  0.9921
 7892TIP3    H247872   1.305   1.232   0.556 -0.7534 -0.0983 -0.9173
 7893TIP3   OH247873   3.251   5.711   2.055  0.1330  0.3204 -0.6236
 7893TIP3    H147874   3.236   5.617   2.041  0.1560  0.0988  0.7023
 7893TIP3    H247875   3.195   5.733   2.129 -0.2926  1.4954 -1.2801
 7894TIP3   OH247876   0.326   2.727   1.506 -0.4636  0.1071 -0.6880
 7894TIP3    H147877   0.411   2.683   1.500 -0.8054 -0.4085 -2.8695
 7894TIP3    H247878   0.297   2.713   1.596  1.5735 -0.0200  0.0011
 7895TIP3   OH247879   7.373   2.691   2.378  1.1731 -0.7312  0.3188
 7895TIP3    H147880   7.463   2.694   2.346  0.8756 -0.6458 -0.5210
 7895TIP3    H247881   7.363   2.770   2.431  0.8742  0.5290 -1.5462
 7896TIP3   OH247882   1.082   2.923   1.503  0.7814 -0.4790  0.1988
 7896TIP3    H147883   1.079   2.937   1.409  1.5488 -0.1179  0.2252
 7896TIP3    H247884   1.162   2.874   1.518  0.8802 -0.1706  0.7093
 7897TIP3   OH247885   0.516   6.384   0.366 -0.7220  0.2571 -0.2744
 7897TIP3    H147886   0.458   6.458   0.384  2.1435  2.1240  2.0815
 7897TIP3    H247887   0.547   6.398   0.277 -1.3033  1.0979 -0.3510
 7898TIP3   OH247888   2.169   5.166   1.693  0.1164 -0.1969 -0.2628
 7898TIP3    H147889   2.138   5.217   1.618  0.8502 -0.0555 -0.4775
 7898TIP3    H247890   2.216   5.092   1.653  0.6889 -0.0075  0.0557
 7899TIP3   OH247891   0.773   1.923   0.666 -0.6569 -0.3185  0.0338
 7899TIP3    H147892   0.684   1.956   0.680 -0.9942 -1.4086  0.5459
 7899TIP3    H247893   0.821   1.999   0.633 -1.6799  0.3873  0.1045
 7900TIP3   OH247894   1.054   2.963   1.237 -0.1966  0.1204  0.5142
 7900TIP3    H147895   1.095   3.011   1.165  0.3628 -0.3743  0.5035
 7900TIP3    H247896   0.960   2.970   1.219 -0.1363  1.2763  0.5532
 7901TIP3   OH247897   6.064   4.624   1.220  0.2979  0.2265 -0.3167
 7901TIP3    H147898   5.978   4.581   1.218  0.2719  0.2989 -1.8308
 7901TIP3    H247899   6.045   4.717   1.226  0.2836  0.2156 -0.1954
 7902TIP3   OH247900   1.407   7.658   2.072  0.1513  0.1467  0.2768
 7902TIP3    H147901   1.500   7.671   2.053  0.4850 -1.2303  0.8500
 7902TIP3    H247902   1.393   7.564   2.057 -0.4693 -0.2605  2.8790
 7903TIP3   OH247903   3.442   6.584   1.859 -0.4648  0.1288  0.8035
 7903TIP3    H147904   3.489   6.646   1.803 -0.3410 -1.5226 -0.9769
 7903TIP3    H247905   3.502   6.570   1.933  0.4391  0.4835  0.1633
 7904TIP3   OH247906   6.921   7.121   1.512 -0.2317  0.5157  0.0231
 7904TIP3    H147907   6.898   7.099   1.422  2.6244  2.1299 -1.2239
 7904TIP3    H247908   7.008   7.083   1.525 -1.9562 -3.1059  3.5771
 7905TIP3   OH247909   3.697   6.047   0.876 -0.2959 -0.0366 -0.6305
 7905TIP3    H147910   3.774   5.990   0.874  0.2268  0.6645 -0.6355
 7905TIP3    H247911   3.643   6.011   0.946 -0.2084 -0.8416 -0.9583
 7906TIP3   OH247912   1.894   5.794   2.403  0.1210  0.6888  1.0620
 7906TIP3    H147913   1.818   5.775   2.348 -0.0182  0.2691  1.3946
 7906TIP3    H247914   1.969   5.772   2.349 -0.0313 -0.4626  1.3059
 7907TIP3   OH247915   2.748   6.758   9.550 -0.5052 -0.1371 -0.3863
 7907TIP3    H147916   2.806   6.783   9.622 -1.3674  1.6922 -0.2948
 7907TIP3    H247917   2.699   6.683   9.584  0.5330 -0.5854  0.1711
 7908TIP3   OH247918   1.996   4.616   1.582 -0.0434  0.3169 -0.0409
 7908TIP3    H147919   2.066   4.551   1.573 -0.4210  0.0787 -1.5281
 7908TIP3    H247920   1.920   4.576   1.538 -1.3910  0.2192  2.2145
 7909TIP3   OH247921   7.667   0.616   2.622 -0.7081 -0.2350 -0.2140
 7909TIP3    H147922   7.631   0.628   2.534 -1.2609  0.4847  0.0980
 7909TIP3    H247923   7.751   0.661   2.620  0.1086 -1.7254 -0.8791
 7910TIP3   OH247924   3.453   4.158   1.384 -0.0891  0.5066 -0.0966
 7910TIP3    H147925   3.517   4.169   1.314 -0.6892  0.4910 -0.6628
 7910TIP3    H247926   3.405   4.241   1.385 -0.0234  0.5379  0.3537
 7911TIP3   OH247927   3.751   4.575   0.809  0.2597  0.1035  0.2409
 7911TIP3    H147928   3.693   4.650   0.801  0.8564  0.4169 -1.4709
 7911TIP3    H247929   3.783   4.559   0.720  0.2283 -2.1173  0.5695
 7912TIP3   OH247930   0.902   3.200   0.875  0.1777 -0.3374  0.2767
 7912TIP3    H147931   0.975   3.249   0.839 -0.6508 -0.1478 -1.2369
 7912TIP3    H247932   0.903   3.220   0.968  2.1675 -0.5203  0.3348
 7913TIP3   OH247933   7.183   4.787   3.087  0.1330  0.0679 -0.4695
 7913TIP3    H147934   7.167   4.879   3.065 -1.7248 -0.5287 -1.9047
 7913TIP3    H247935   7.156   4.779   3.178 -1.7544  0.5472 -0.9332
 7914TIP3   OH247936   3.045   6.275   0.570  0.4654 -0.5690 -1.0827
 7914TIP3    H147937   2.953   6.274   0.596  1.1463 -0.8745  1.6091
 7914TIP3    H247938   3.049   6.218   0.493 -0.9964 -4.0496  1.1850
 7915TIP3   OH247939   6.414   0.946   2.038  0.3364 -0.4745 -0.0691
 7915TIP3    H147940   6.428   1.031   2.078 -1.1010  0.1974 -0.9347
 7915TIP3    H247941   6.351   0.902   2.095  1.3938 -1.1448  0.6066
 7916TIP3   OH247942   5.934   5.158   2.370  0.2791 -0.4006  0.2200
 7916TIP3    H147943   5.965   5.205   2.447  1.9990 -0.4122 -0.4314
 7916TIP3    H247944   5.917   5.069   2.402  1.5174 -0.5536  0.4895
 7917TIP3   OH247945   7.283   6.968   1.263 -0.0106 -0.5184  0.5549
 7917TIP3    H147946   7.207   6.916   1.288  0.1507  0.4668  3.3613
 7917TIP3    H247947   7.354   6.936   1.317  0.9080  0.4235 -0.0372
 7918TIP3   OH247948   7.230   6.180   2.495  0.5061 -0.1335 -0.1000
 7918TIP3    H147949   7.233   6.087   2.517  0.8303 -0.5021 -1.6301
 7918TIP3    H247950   7.273   6.187   2.410 -0.3691  1.2742 -0.4664
 7919TIP3   OH247951   5.327   6.326   0.703 -0.1391 -0.0098  0.6185
 7919TIP3    H147952   5.399   6.323   0.766 -0.7475 -0.1958  1.3307
 7919TIP3    H247953   5.305   6.235   0.685 -0.3616  0.0424  0.6092
 7920TIP3   OH247954   5.485   2.074   0.813 -0.0770 -0.4602 -0.3721
 7920TIP3    H147955   5.578   2.094   0.819 -0.2346  0.5119 -1.0320
 7920TIP3    H247956   5.481   1.978   0.812  0.8279 -0.5305  0.8278
 7921TIP3   OH247957   0.184   5.814   2.802  0.7587 -0.1064  0.0405
 7921TIP3    H147958   0.150   5.898   2.772  2.6063  1.4337  1.8914
 7921TIP3    H247959   0.167   5.754   2.730  0.9864  2.2726 -2.1628
 7922TIP3   OH247960   6.670   4.265   3.192 -0.1397  0.0973 -0.0537
 7922TIP3    H147961   6.594   4.312   3.227  0.3195  0.4566  0.4856
 7922TIP3    H247962   6.737   4.333   3.181  0.2895 -0.3075  0.0284
 7923TIP3   OH247963   1.078   1.712   1.786 -0.4240 -0.2765  0.5509
 7923TIP3    H147964   1.050   1.640   1.730 -2.2320  1.5716 -1.0631
 7923TIP3    H247965   1.173   1.700   1.795 -0.1467 -0.9692 -2.4357
 7924TIP3   OH247966   7.117   0.936   2.299 -0.4108  0.8120 -0.2217
 7924TIP3    H147967   7.093   1.013   2.247 -2.0644 -0.7807 -1.9420
 7924TIP3    H247968   7.162   0.878   2.237 -1.1362 -0.5227  0.4699
 7925TIP3   OH247969   7.215   5.515   2.813  0.0141 -0.2665 -0.1534
 7925TIP3    H147970   7.227   5.427   2.849 -0.2248  0.0531  0.7562
 7925TIP3    H247971   7.129   5.542   2.846  0.9800  1.1093  1.3623
 7926TIP3   OH247972   7.649   3.771   1.690 -0.6906 -0.2982  0.6846
 7926TIP3    H147973   7.734   3.756   1.732 -0.5639  0.4515  0.7033
 7926TIP3    H247974   7.637   3.866   1.692 -0.5482 -0.2077 -1.2052
 7927TIP3   OH247975   2.418   3.673   1.320 -0.0210 -0.0847 -0.1071
 7927TIP3    H147976   2.426   3.768   1.330  0.5682  0.1847 -2.5318
 7927TIP3    H247977   2.358   3.647   1.391 -0.8673  2.1957  0.1189
 7928TIP3   OH247978   1.808   3.570   0.980 -0.0686 -0.1531 -0.0380
 7928TIP3    H147979   1.770   3.558   0.893  1.4031  0.2342 -0.7513
 7928TIP3    H247980   1.894   3.607   0.965  0.3135 -0.2809  1.5846
 7929TIP3   OH247981   4.948   3.954   2.407 -0.7044 -0.3229 -0.3055
 7929TIP3    H147982   4.898   3.992   2.480 -1.3039 -0.8530 -0.4288
 7929TIP3    H247983   4.958   3.862   2.431  0.9032 -0.0752  0.0850
 7930TIP3   OH247984   5.330   3.882   2.085 -0.0505 -0.2615 -0.1455
 7930TIP3    H147985   5.421   3.857   2.102 -0.0285 -0.2321 -0.2236
 7930TIP3    H247986   5.298   3.912   2.170 -0.0108 -0.3465 -0.0999
 7931TIP3   OH247987   1.028   5.664   3.641  0.0851  0.4904 -0.1553
 7931TIP3    H147988   0.937   5.636   3.653 -0.5361  2.1904 -0.6081
 7931TIP3    H247989   1.021   5.756   3.614  1.9917  1.2893  1.8157
 7932TIP3   OH247990   2.016   0.789   0.478 -0.3549 -0.0992 -0.1458
 7932TIP3    H147991   2.109   0.777   0.500  0.2914  1.3463 -1.7792
 7932TIP3    H247992   1.996   0.878   0.508 -0.7014  0.2146 -1.2380
 7933TIP3   OH247993   2.284   6.530   1.540  0.2494  1.2575  0.3645
 7933TIP3    H147994   2.249   6.619   1.540 -1.1730  0.7234  0.9101
 7933TIP3    H247995   2.369   6.537   1.584 -0.8508  2.0034  2.5236
 7934TIP3   OH247996   1.218   0.135   2.223 -0.5367  0.2117 -0.1409
 7934TIP3    H147997   1.236   0.041   2.225  0.6513  0.3992 -1.0517
 7934TIP3    H247998   1.299   0.175   2.192 -1.2425  1.4893 -0.4253
 7935TIP3   OH247999   0.620   0.870   2.153 -0.2081  0.4099 -0.5850
 7935TIP3    H148000   0.566   0.850   2.229  0.1525  0.4715 -0.3130
 7935TIP3    H248001   0.708   0.839   2.176 -0.1721  0.0917 -1.1201
 7936TIP3   OH248002   2.748   0.623   3.123 -0.3214  0.0400 -0.9390
 7936TIP3    H148003   2.749   0.694   3.058  0.3841  0.6959 -0.2366
 7936TIP3    H248004   2.760   0.668   3.206  0.5741 -0.9527 -0.5194
 7937TIP3   OH248005   6.674   1.886   2.197 -0.0824  0.4631  0.6275
 7937TIP3    H148006   6.595   1.837   2.175 -0.1469  0.7660  0.1830
 7937TIP3    H248007   6.712   1.910   2.113 -1.5449  3.6080  0.7208
 7938TIP3   OH248008   5.818   4.740   1.045  0.4180  0.0134 -0.1408
 7938TIP3    H148009   5.745   4.735   1.106  0.7677 -1.9565  0.2119
 7938TIP3    H248010   5.894   4.758   1.100  0.4420  0.3436 -0.2805
 7939TIP3   OH248011   7.448   6.836   2.477  0.3823 -0.3310 -0.0644
 7939TIP3    H148012   7.494   6.788   2.408  0.6817 -1.1514  0.6818
 7939TIP3    H248013   7.477   6.794   2.559 -0.4163  0.2296  0.5218
 7940TIP3   OH248014   1.305   0.425   1.249  0.4327 -0.3387  0.0106
 7940TIP3    H148015   1.376   0.486   1.231  0.8003 -1.3178 -2.1337
 7940TIP3    H248016   1.254   0.423   1.168 -0.0289 -2.2700  0.3046
 7941TIP3   OH248017   5.742   2.153   0.813  0.7099  0.0084 -0.1913
 7941TIP3    H148018   5.750   2.248   0.828  0.2203 -0.0006  0.1168
 7941TIP3    H248019   5.782   2.114   0.890 -0.8039 -0.0349  0.5963
 7942TIP3   OH248020   0.660   3.377   2.370  0.3741 -0.1533  0.0861
 7942TIP3    H148021   0.638   3.407   2.282  0.8832 -0.5872 -0.1965
 7942TIP3    H248022   0.686   3.285   2.359  0.6684 -0.1462  0.6457
 7943TIP3   OH248023   3.301   7.160   1.803 -0.2695  0.5998 -0.5920
 7943TIP3    H148024   3.291   7.236   1.744 -0.6406  1.4922  0.5803
 7943TIP3    H248025   3.317   7.199   1.889  0.3225 -0.6823 -0.0998
 7944TIP3   OH248026   2.735   3.337   1.304 -0.1835 -0.5610  0.1177
 7944TIP3    H148027   2.674   3.375   1.367  0.5846  0.5252  0.2182
 7944TIP3    H248028   2.682   3.274   1.255 -1.5613  0.7977 -0.2163
 7945TIP3   OH248029   3.976   4.621   3.048 -0.3494 -0.1842  0.1927
 7945TIP3    H148030   4.008   4.638   3.136 -0.8624 -2.7706  0.9632
 7945TIP3    H248031   3.902   4.680   3.038  0.1126  0.6021  1.2348
 7946TIP3   OH248032   0.328   4.434   2.560 -0.3004  0.6360  0.1082
 7946TIP3    H148033   0.374   4.419   2.478 -0.6229 -0.7729  0.1539
 7946TIP3    H248034   0.392   4.480   2.615  0.9998 -1.0366  0.0847
 7947TIP3   OH248035   2.272   7.510   2.066 -0.3683  0.1773  0.1448
 7947TIP3    H148036   2.178   7.521   2.051 -0.3873  2.0792  1.2547
 7947TIP3    H248037   2.314   7.562   1.998  0.0178 -2.2368 -1.5836
 7948TIP3   OH248038   5.316   6.043   2.295 -0.2714 -0.2367 -0.0290
 7948TIP3    H148039   5.263   6.057   2.216  0.3009 -0.9372 -0.5523
 7948TIP3    H248040   5.274   5.970   2.340 -1.7242  1.3647  1.3425
 7949TIP3   OH248041   2.829   4.538   3.138 -0.3110  0.2742 -0.0620
 7949TIP3    H148042   2.776   4.615   3.159 -0.6814  0.7232 -2.3745
 7949TIP3    H248043   2.895   4.569   3.076  0.2578 -1.0326 -0.1553
 7950TIP3   OH248044   2.923   6.038   2.112 -0.1878 -0.0267  0.2877
 7950TIP3    H148045   2.918   6.102   2.183  1.3830 -0.3728  0.7328
 7950TIP3    H248046   2.882   5.960   2.149  1.3522 -0.4661  1.1484
 7951TIP3   OH248047   0.292   4.099   0.857 -0.2172 -0.1602  0.2558
 7951TIP3    H148048   0.235   4.024   0.870 -0.4154  0.2042  1.6753
 7951TIP3    H248049   0.364   4.085   0.919  1.5040 -0.8154 -1.7514
 7952TIP3   OH248050   1.397   5.494   3.006 -0.0964  0.0778  0.0030
 7952TIP3    H148051   1.482   5.519   2.971  0.1490  0.6192  0.9418
 7952TIP3    H248052   1.348   5.462   2.931  0.9611 -0.3096 -0.5340
 7953TIP3   OH248053   3.437   6.737   0.810  0.2532 -0.5457 -0.1477
 7953TIP3    H148054   3.506   6.671   0.819  0.6176 -0.0381  0.9657
 7953TIP3    H248055   3.465   6.790   0.736  1.0083 -0.4226  0.2145
 7954TIP3   OH248056   2.618   0.906   2.805  0.3035 -0.3102 -0.0125
 7954TIP3    H148057   2.684   0.916   2.873 -0.4978 -0.6107  0.8215
 7954TIP3    H248058   2.638   0.975   2.742  0.2980  0.7879  1.1551
 7955TIP3   OH248059   7.515   3.671   1.908  0.1123 -0.0355  0.0990
 7955TIP3    H148060   7.503   3.646   1.816 -2.7514 -1.1520  0.6687
 7955TIP3    H248061   7.549   3.760   1.905 -2.4100  0.9910 -2.1336
 7956TIP3   OH248062   0.228   0.736   2.599  0.7395 -0.1586  0.0091
 7956TIP3    H148063   0.297   0.727   2.665  0.0685  2.2926  1.1939
 7956TIP3    H248064   0.204   0.829   2.603 -1.5204 -0.5961 -1.4965
 7957TIP3   OH248065   4.409   6.863   1.093  0.2981 -0.1883 -0.2961
 7957TIP3    H148066   4.321   6.824   1.100  0.1785  0.0114 -0.6990
 7957TIP3    H248067   4.408   6.912   1.011 -0.1986  2.2650  1.0791
 7958TIP3   OH248068   0.345   1.568   0.896  0.3621 -0.3472  0.1374
 7958TIP3    H148069   0.273   1.594   0.839  0.7082 -0.6150 -0.4317
 7958TIP3    H248070   0.418   1.625   0.871  1.3621 -2.2897 -1.6487
 7959TIP3   OH248071   3.295   4.484   0.931 -0.1912 -0.4325  0.1612
 7959TIP3    H148072   3.265   4.405   0.885  0.0677 -0.8398  0.6826
 7959TIP3    H248073   3.240   4.554   0.896 -0.3566 -0.8247 -0.3818
 7960TIP3   OH248074   4.607   2.122   2.846  0.1195  0.3224  0.1023
 7960TIP3    H148075   4.697   2.102   2.820  0.0779 -0.0035  0.1976
 7960TIP3    H248076   4.582   2.197   2.792 -0.9869 -2.0586 -2.9780
 7961TIP3   OH248077   7.150   2.828   1.236  0.1650 -0.0639 -0.2427
 7961TIP3    H148078   7.211   2.854   1.304 -1.0243  1.2453  0.3726
 7961TIP3    H248079   7.144   2.905   1.179 -0.4167 -0.4055 -0.6484
 7962TIP3   OH248080   5.479   1.620   1.154  0.6170  0.1144  0.1981
 7962TIP3    H148081   5.435   1.538   1.132  0.1188  0.1798  0.9430
 7962TIP3    H248082   5.408   1.682   1.171  0.9866  0.7430 -0.4579
 7963TIP3   OH248083   1.566   1.599   2.444  0.6553 -0.2042  0.0882
 7963TIP3    H148084   1.555   1.625   2.535 -1.1917 -0.3974 -0.0417
 7963TIP3    H248085   1.580   1.681   2.397  1.2322 -0.0697  0.4868
 7964TIP3   OH248086   2.150   1.639   1.215  0.0682 -0.6444 -0.4460
 7964TIP3    H148087   2.114   1.726   1.197  0.2555 -0.7846 -1.6372
 7964TIP3    H248088   2.208   1.652   1.289  0.6538  0.4121 -1.0528
 7965TIP3   OH248089   5.849   6.425   1.468  0.2732  0.0323 -0.3814
 7965TIP3    H148090   5.805   6.506   1.443  1.8415  1.0352 -0.0637
 7965TIP3    H248091   5.902   6.402   1.392  0.3949 -0.2790 -0.2051
 7966TIP3   OH248092   5.683   6.996   1.215 -0.5307  0.1799 -0.1111
 7966TIP3    H148093   5.759   7.048   1.240  0.1562 -1.3331  1.1663
 7966TIP3    H248094   5.615   7.022   1.277 -1.1659  1.6881 -1.3890
 7967TIP3   OH248095   5.443   3.648   1.760  0.2573  0.0693 -0.4031
 7967TIP3    H148096   5.473   3.737   1.779  0.1401  0.7297 -2.9697
 7967TIP3    H248097   5.377   3.659   1.691 -2.5065 -1.7498  1.7237
 7968TIP3   OH248098   4.428   3.516   1.857  0.1465  0.2869  0.3326
 7968TIP3    H148099   4.395   3.604   1.875  1.4249  0.3883  2.5236
 7968TIP3    H248100   4.520   3.528   1.833 -0.8472 -0.0665 -4.8621
 7969TIP3   OH248101   2.770   3.252   3.265  0.6434  0.6702 -0.0493
 7969TIP3    H148102   2.823   3.308   3.322  0.1964 -0.7754  1.8901
 7969TIP3    H248103   2.771   3.166   3.309 -1.1384 -0.0604 -1.3492
 7970TIP3   OH248104   2.342   7.430   3.233 -0.1510  0.4021  0.0969
 7970TIP3    H148105   2.252   7.419   3.202  0.1596  1.6652 -1.3839
 7970TIP3    H248106   2.335   7.429   3.328 -1.6624  0.0064  0.0057
 7971TIP3   OH248107   2.013   1.849   1.297 -0.0910  0.4502  0.3605
 7971TIP3    H148108   1.938   1.789   1.293 -0.1265  0.5193 -0.0854
 7971TIP3    H248109   1.989   1.920   1.238  0.1526  0.6726  0.5325
 7972TIP3   OH248110   6.701   6.436   1.034  0.5165  0.0515  0.0767
 7972TIP3    H148111   6.628   6.403   1.086  1.3681  0.1387  1.4024
 7972TIP3    H248112   6.692   6.532   1.038  0.4005  0.0534 -0.2184
 7973TIP3   OH248113   1.124   4.314   2.683 -0.5559  0.7669  0.2411
 7973TIP3    H148114   1.198   4.256   2.665 -1.6376 -0.7467  0.5153
 7973TIP3    H248115   1.160   4.382   2.740  0.3850 -0.5759  1.3084
 7974TIP3   OH248116   5.464   2.776   2.078 -0.2043  0.4707 -0.1049
 7974TIP3    H148117   5.382   2.780   2.127 -0.8724 -0.9620 -1.0409
 7974TIP3    H248118   5.448   2.711   2.009  1.2859  1.1148 -1.1170
 7975TIP3   OH248119   6.877   6.107   1.773 -0.3012  0.2535 -0.3013
 7975TIP3    H148120   6.831   6.121   1.856 -1.0060  0.7200 -0.7558
 7975TIP3    H248121   6.965   6.139   1.789 -0.2807 -0.1348  0.4190
 7976TIP3   OH248122   6.572   2.595   2.524  0.1407 -0.1361 -0.0470
 7976TIP3    H148123   6.565   2.532   2.453  1.3628  1.0692 -1.3137
 7976TIP3    H248124   6.663   2.625   2.521 -0.0775  0.7756  1.3019
 7977TIP3   OH248125   5.010   6.130   1.011  0.0694  0.2264 -0.5662
 7977TIP3    H148126   4.986   6.156   1.100  0.8947 -1.6892  0.2824
 7977TIP3    H248127   4.982   6.203   0.956  0.4903  1.9563  1.3734
 7978TIP3   OH248128   0.316   7.528   1.305 -0.1049 -0.2908 -0.1709
 7978TIP3    H148129   0.365   7.463   1.255 -1.3384  0.2442 -2.1634
 7978TIP3    H248130   0.378   7.557   1.373  1.0235 -2.2918 -0.2687
 7979TIP3   OH248131   6.849   2.472   0.526 -0.4894  0.1915 -0.2343
 7979TIP3    H148132   6.873   2.462   0.618 -1.0261  0.4158 -0.0667
 7979TIP3    H248133   6.913   2.534   0.491 -0.1366 -0.0763 -0.0746
 7980TIP3   OH248134   4.190   3.588   1.584 -0.1229  0.0454 -0.3588
 7980TIP3    H148135   4.261   3.529   1.609  0.5711  1.0677  0.1866
 7980TIP3    H248136   4.149   3.545   1.509  0.5358 -0.9795 -0.1591
 7981TIP3   OH248137   0.382   5.579   3.332 -0.2202 -0.2112  0.5969
 7981TIP3    H148138   0.306   5.558   3.386 -0.0299 -0.6117  0.7161
 7981TIP3    H248139   0.422   5.654   3.375 -0.6868  0.1619  0.3921
 7982TIP3   OH248140   2.387   1.285   2.217  0.0528  0.1629 -0.5093
 7982TIP3    H148141   2.446   1.213   2.240 -2.4334 -1.7000  0.4399
 7982TIP3    H248142   2.352   1.315   2.300 -2.0205 -0.3188 -1.1607
 7983TIP3   OH248143   4.323   3.517   2.623  0.2345  0.4292  0.4713
 7983TIP3    H148144   4.373   3.570   2.685  0.8639  1.5947 -0.9645
 7983TIP3    H248145   4.312   3.574   2.546 -0.0463 -1.1434 -0.7043
 7984TIP3   OH248146   5.761   5.522   2.239  0.6075 -0.4470 -0.5167
 7984TIP3    H148147   5.754   5.607   2.195 -1.3656 -0.7555 -0.8964
 7984TIP3    H248148   5.814   5.540   2.317 -0.9121  1.4661  0.1702
 7985TIP3   OH248149   4.704   1.467   2.697 -0.2040  0.5619  0.6934
 7985TIP3    H148150   4.630   1.514   2.658  0.6897  1.1175 -0.3637
 7985TIP3    H248151   4.696   1.486   2.791 -0.5106  1.9150  0.4177
 7986TIP3   OH248152   4.795   5.238   0.965 -0.3064  0.6497 -0.1830
 7986TIP3    H148153   4.743   5.211   1.040 -1.4750  1.6686 -0.5967
 7986TIP3    H248154   4.769   5.329   0.948 -0.2013  0.3956 -1.9253
 7987TIP3   OH248155   1.660   7.569   1.864  0.3743  0.8459 -0.4985
 7987TIP3    H148156   1.715   7.514   1.809  1.2920  1.7378 -0.4951
 7987TIP3    H248157   1.647   7.517   1.944 -0.4654 -0.1939 -1.2893
 7988TIP3   OH248158   6.964   7.602   2.128 -0.1093 -0.0158  0.5054
 7988TIP3    H148159   6.872   7.578   2.120  0.0051 -0.9490  1.6865
 7988TIP3    H248160   6.983   7.594   2.222  1.1312  0.3071  0.3005
 7989TIP3   OH248161   3.652   1.410   3.501 -0.0652  0.4923  0.3725
 7989TIP3    H148162   3.578   1.434   3.557 -1.5165 -0.5032 -1.0266
 7989TIP3    H248163   3.679   1.492   3.462 -2.1916  0.5810 -1.0999
 7990TIP3   OH248164   7.391   2.229   0.375 -0.6529 -0.2165 -0.3778
 7990TIP3    H148165   7.459   2.296   0.383 -0.7490 -0.2890  1.2945
 7990TIP3    H248166   7.431   2.162   0.319 -0.2242  0.8031 -1.3240
 7991TIP3   OH248167   4.656   5.491   1.018  0.0915 -0.5875 -0.6467
 7991TIP3    H148168   4.565   5.483   0.990 -0.4800  0.7042  0.6804
 7991TIP3    H248169   4.697   5.548   0.953  0.2792 -2.0810 -1.8755
 7992TIP3   OH248170   5.123   5.245   2.261 -0.3817  0.0236  0.2826
 7992TIP3    H148171   5.028   5.242   2.266 -0.4883  0.6882 -1.0528
 7992TIP3    H248172   5.150   5.284   2.344 -1.2856  0.1290  0.5314
 7993TIP3   OH248173   1.570   2.071   2.090  0.9178 -0.1400 -0.0080
 7993TIP3    H148174   1.528   2.154   2.112  2.1069  1.1107 -2.1005
 7993TIP3    H248175   1.498   2.008   2.084  0.0180  0.6258  1.8920
 7994TIP3   OH248176   3.632   5.943   1.133 -0.0348 -0.3879  0.2580
 7994TIP3    H148177   3.694   5.872   1.118 -2.1345 -2.6599  1.5843
 7994TIP3    H248178   3.667   5.989   1.209 -0.2175 -2.0276  1.3935
 7995TIP3   OH248179   6.798   5.705   1.055 -0.1337 -0.3156  0.0417
 7995TIP3    H148180   6.814   5.798   1.067 -0.6358 -0.1508 -0.5080
 7995TIP3    H248181   6.703   5.697   1.049 -0.1558 -1.0050  1.1394
 7996TIP3   OH248182   2.538   3.917   1.415 -0.0696  0.3156 -0.4740
 7996TIP3    H148183   2.624   3.896   1.380 -0.1886 -0.6475 -0.2149
 7996TIP3    H248184   2.545   3.898   1.509 -0.9235 -1.0299 -0.6566
 7997TIP3   OH248185   5.720   0.619   1.228 -0.0571  0.4242 -0.5951
 7997TIP3    H148186   5.772   0.670   1.290 -0.5199  0.9726 -0.6453
 7997TIP3    H248187   5.758   0.640   1.143 -0.9703  1.6255 -0.7398
 7998TIP3   OH248188   3.218   5.993   1.688  0.0081  0.3567  0.3897
 7998TIP3    H148189   3.265   5.999   1.605  0.9748  0.1721  0.9100
 7998TIP3    H248190   3.127   6.012   1.666 -0.1499 -1.7430 -1.0898
 7999TIP3   OH248191   4.589   6.411   1.204 -0.5928 -0.0358  0.2007
 7999TIP3    H148192   4.597   6.349   1.131 -0.5661 -0.3749  0.4946
 7999TIP3    H248193   4.649   6.378   1.271  0.8649  1.3314 -0.3611
 8000TIP3   OH248194   5.055   5.458   0.781 -0.4965  0.1401 -0.4698
 8000TIP3    H148195   5.141   5.422   0.761 -0.7731 -0.7239 -0.1558
 8000TIP3    H248196   5.065   5.502   0.865 -0.3426  0.1233 -0.4803
 8001TIP3   OH248197   7.398   3.481   2.510  0.2217  0.0763 -0.0062
 8001TIP3    H148198   7.321   3.436   2.544 -1.5067  2.5404 -0.3828
 8001TIP3    H248199   7.363   3.555   2.460  2.8306  0.6594 -1.1674
 8002TIP3   OH248200   2.932   6.763   1.639  0.1179  0.9395 -0.2501
 8002TIP3    H148201   2.953   6.732   1.728 -0.4981  2.0452  0.3014
 8002TIP3    H248202   2.882   6.693   1.600 -5.9334  2.9066  2.7714
 8003TIP3   OH248203   0.773   0.452   0.971 -0.3997 -0.2625 -0.4773
 8003TIP3    H148204   0.846   0.503   0.937 -0.1128 -0.3988 -0.0695
 8003TIP3    H248205   0.806   0.413   1.052 -0.1966 -2.0753 -1.3670
 8004TIP3   OH248206   0.886   2.762   3.166  0.4831 -0.3184 -0.2306
 8004TIP3    H148207   0.866   2.668   3.175 -0.4726 -0.1447 -0.4413
 8004TIP3    H248208   0.966   2.774   3.216  0.7771 -1.3095 -0.4379
 8005TIP3   OH248209   3.399   4.541   1.450  0.1185 -0.0334  0.1819
 8005TIP3    H148210   3.422   4.630   1.423  1.0905 -0.8580 -1.9531
 8005TIP3    H248211   3.308   4.546   1.477  0.3240  1.7023  0.6766
 8006TIP3   OH248212   4.563   3.027   3.180  0.4437  0.2739 -0.3750
 8006TIP3    H148213   4.579   3.055   3.270  0.5042  2.9191 -1.1343
 8006TIP3    H248214   4.470   3.043   3.166  0.4296 -0.1557 -0.7931
 8007TIP3   OH248215   6.556   7.302   2.842 -0.3600  0.0922  0.3070
 8007TIP3    H148216   6.587   7.273   2.928  2.4588  3.2139  0.5502
 8007TIP3    H248217   6.487   7.365   2.861 -0.4586 -0.0018  0.2571
 8008TIP3   OH248218   3.850   2.508   3.283  0.3100  0.3637  0.0681
 8008TIP3    H148219   3.939   2.524   3.251  0.8399 -0.2470  1.1398
 8008TIP3    H248220   3.806   2.592   3.277  0.2236  0.1954 -2.6123
 8009TIP3   OH248221   3.101   1.490   2.104  0.3361 -0.1298 -0.3410
 8009TIP3    H148222   3.177   1.490   2.047  0.9632  1.0376  0.4520
 8009TIP3    H248223   3.135   1.467   2.190 -0.3138 -0.2206 -0.0979
 8010TIP3   OH248224   2.442   4.098   2.206  0.2274 -0.1322  0.2923
 8010TIP3    H148225   2.351   4.085   2.234 -0.2980  1.6713 -0.4722
 8010TIP3    H248226   2.453   4.036   2.134 -0.8730  0.6459 -0.5692
 8011TIP3   OH248227   6.283   6.952   1.932 -0.0235  0.2322  0.1328
 8011TIP3    H148228   6.202   6.967   1.982 -0.4279  0.1910 -0.5051
 8011TIP3    H248229   6.257   6.894   1.861  0.4818  0.5761 -0.3406
 8012TIP3   OH248230   4.490   5.196   0.640  0.4635 -0.6116  0.0177
 8012TIP3    H148231   4.540   5.121   0.672 -2.3830 -1.6822  2.3965
 8012TIP3    H248232   4.405   5.160   0.614  0.0749  1.3845 -1.7886
 8013TIP3   OH248233   3.120   5.584   1.617  0.2893 -0.0491  0.6699
 8013TIP3    H148234   3.182   5.640   1.664  1.3538 -1.7243  1.3327
 8013TIP3    H248235   3.042   5.581   1.672 -0.0599  1.3050  0.2893
 8014TIP3   OH248236   0.019   5.189   0.801  0.5001 -0.7697 -0.4670
 8014TIP3    H148237  -0.049   5.257   0.803  1.0450 -0.2096 -0.3944
 8014TIP3    H248238   0.100   5.238   0.786  1.0435 -1.2880  0.6427
 8015TIP3   OH248239   2.117   7.522   0.636 -0.4015 -0.2023  0.4479
 8015TIP3    H148240   2.116   7.560   0.548 -0.2932  1.7899  1.2625
 8015TIP3    H248241   2.194   7.560   0.678 -0.3479 -1.2643  1.3681
 8016TIP3   OH248242   3.786   7.436   1.395  0.5785  0.1561  0.1103
 8016TIP3    H148243   3.793   7.408   1.304 -1.7294  0.4580 -0.2166
 8016TIP3    H248244   3.805   7.530   1.392  0.3401  0.2005 -0.0996
 8017TIP3   OH248245   4.512   1.027   1.570  0.7867 -0.0985 -0.8989
 8017TIP3    H148246   4.600   0.996   1.548  0.9783 -0.3328  0.1399
 8017TIP3    H248247   4.454   0.956   1.540  1.0147 -0.3082 -0.8493
 8018TIP3   OH248248   3.050   3.435   3.147  0.0893 -0.5577  0.9869
 8018TIP3    H148249   3.136   3.446   3.188  0.0690 -0.8434  1.1065
 8018TIP3    H248250   3.061   3.362   3.087  0.4484  0.6147 -0.4316
 8019TIP3   OH248251   4.782   7.611   0.949 -0.0274 -0.0336 -0.4114
 8019TIP3    H148252   4.822   7.570   1.026  1.1840  1.8836  0.0583
 8019TIP3    H248253   4.688   7.597   0.960  0.1476 -0.0888  1.2737
 8020TIP3   OH248254   1.722   7.444   2.547  0.2682 -1.2184  0.6040
 8020TIP3    H148255   1.746   7.410   2.633  2.6728 -0.6834  0.2194
 8020TIP3    H248256   1.775   7.523   2.537  0.7465 -1.7637 -1.7150
 8021TIP3   OH248257   2.997   3.797   2.653 -0.7684 -0.0047  0.2373
 8021TIP3    H148258   2.956   3.844   2.725  0.0253  0.6407  0.2825
 8021TIP3    H248259   3.077   3.759   2.692 -0.3489  0.3291 -0.2872
 8022TIP3   OH248260   4.771   5.158   2.138  0.0678 -0.1727 -0.3371
 8022TIP3    H148261   4.723   5.077   2.152 -0.9284  0.6659  1.3211
 8022TIP3    H248262   4.778   5.165   2.043 -0.8329 -1.6087 -0.5372
 8023TIP3   OH248263   3.503   7.198   1.489 -0.1160 -0.5367 -0.1471
 8023TIP3    H148264   3.486   7.286   1.522  2.4132 -0.1152  0.2520
 8023TIP3    H248265   3.472   7.200   1.398 -0.5711  0.5900  0.0157
 8024TIP3   OH248266   3.280   3.708   2.360  0.1307 -0.1345  0.5973
 8024TIP3    H148267   3.281   3.751   2.275  1.7484  0.3666  0.8277
 8024TIP3    H248268   3.189   3.713   2.389 -0.1952  0.8520 -0.5251
 8025TIP3   OH248269   2.967   4.679   1.948 -0.3437 -0.6558 -0.0716
 8025TIP3    H148270   2.885   4.728   1.938 -0.2610 -0.1335  1.5227
 8025TIP3    H248271   3.027   4.741   1.991  1.2957 -0.6254 -2.2161
 8026TIP3   OH248272   3.669   5.473   3.155 -0.1584 -0.5553 -0.1361
 8026TIP3    H148273   3.681   5.430   3.240 -0.2073  0.3859  0.3562
 8026TIP3    H248274   3.575   5.491   3.151  0.1594  1.6171  0.7349
 8027TIP3   OH248275   2.156   5.421   2.551  0.6572  0.4026  0.5655
 8027TIP3    H148276   2.219   5.424   2.479  0.5572 -0.5410  0.4154
 8027TIP3    H248277   2.109   5.339   2.537  0.2864  0.4638  1.4158
 8028TIP3   OH248278   1.991   2.809   0.642 -0.4809 -0.0401 -0.5664
 8028TIP3    H148279   2.016   2.716   0.640 -1.6373 -0.3827 -0.0966
 8028TIP3    H248280   2.073   2.856   0.657 -0.0545 -1.0741  0.4518
 8029TIP3   OH248281   0.462   0.892   2.395 -0.4608  0.0928  0.0362
 8029TIP3    H148282   0.531   0.916   2.458 -0.4439  0.9686 -0.2939
 8029TIP3    H248283   0.425   0.976   2.368 -1.1109 -0.3305 -0.4102
 8030TIP3   OH248284   5.436   7.282   1.278  0.5615 -0.1902 -0.0484
 8030TIP3    H148285   5.362   7.342   1.276  0.1856 -0.5752  1.3627
 8030TIP3    H248286   5.407   7.206   1.228  0.1880 -0.1363  0.0837
 8031TIP3   OH248287   3.431   3.523   1.862 -0.0562 -0.1263 -0.5456
 8031TIP3    H148288   3.457   3.439   1.899 -0.4951 -1.6187 -3.3416
 8031TIP3    H248289   3.513   3.568   1.843  0.1805  0.6718  2.0077
 8032TIP3   OH248290   3.821   6.773   2.171  0.0376  0.2233 -0.3298
 8032TIP3    H148291   3.893   6.733   2.218 -0.1049 -0.1994 -0.4652
 8032TIP3    H248292   3.818   6.728   2.087 -0.7954 -0.2364 -0.0745
 8033TIP3   OH248293   1.722   7.414   2.096 -0.0101 -0.3959  0.5543
 8033TIP3    H148294   1.649   7.354   2.082  0.1530 -0.2559 -1.1877
 8033TIP3    H248295   1.772   7.376   2.168 -0.9240 -1.3505  0.6973
 8034TIP3   OH248296   6.555   7.399   1.630  0.3553  0.1797  0.0451
 8034TIP3    H148297   6.567   7.377   1.722  1.2277  0.5218  0.0215
 8034TIP3    H248298   6.643   7.417   1.597  0.2222 -1.1966 -1.1959
 8035TIP3   OH248299   2.776   3.375   3.011  0.1791  0.5289 -0.4489
 8035TIP3    H148300   2.815   3.335   3.089  0.4906  1.0180 -0.3564
 8035TIP3    H248301   2.724   3.448   3.044 -1.6123 -0.6531 -0.4589
 8036TIP3   OH248302   1.967   6.565   2.302  0.0963  0.3502 -0.1923
 8036TIP3    H148303   1.901   6.497   2.316  0.0593  0.7250  1.7848
 8036TIP3    H248304   1.937   6.638   2.357  0.3600  1.8260 -1.9368
 8037TIP3   OH248305   0.736   3.035   3.299 -0.1526 -0.1417  0.2901
 8037TIP3    H148306   0.784   2.962   3.259 -0.2286 -0.7775  1.3303
 8037TIP3    H248307   0.730   3.101   3.230 -0.0010 -1.0852 -0.6379
 8038TIP3   OH248308   7.216   4.282   1.438 -0.6041  0.1413  0.4519
 8038TIP3    H148309   7.220   4.236   1.354 -0.8491  0.9930 -0.0416
 8038TIP3    H248310   7.301   4.324   1.446 -0.5323 -0.0502  0.7031
 8039TIP3   OH248311   5.590   6.214   2.722 -0.2218  0.0325 -0.3344
 8039TIP3    H148312   5.534   6.240   2.649 -0.1683  1.5627  0.1445
 8039TIP3    H248313   5.529   6.188   2.791 -0.3736  1.4728  0.1039
 8040TIP3   OH248314   5.506   4.927   1.566 -0.2963  0.2114 -0.5203
 8040TIP3    H148315   5.444   4.874   1.616 -0.7371  0.8052 -0.4243
 8040TIP3    H248316   5.584   4.933   1.622 -0.3663 -0.0618 -0.3940
 8041TIP3   OH248317   0.256   5.178   3.115 -0.2433 -0.1818 -0.5096
 8041TIP3    H148318   0.216   5.091   3.111 -0.0555 -0.2731 -0.4116
 8041TIP3    H248319   0.182   5.237   3.132 -0.5990 -0.1375 -2.0961
 8042TIP3   OH248320   1.348   3.925   1.751 -0.0752 -0.8088  0.0633
 8042TIP3    H148321   1.427   3.907   1.801 -0.3051 -1.2901  0.2584
 8042TIP3    H248322   1.364   4.010   1.710  1.8412 -2.2567 -2.4613
 8043TIP3   OH248323   5.988   4.403   1.712  0.3466  0.0275  0.1604
 8043TIP3    H148324   5.951   4.325   1.754  0.0736  0.6682  1.1300
 8043TIP3    H248325   6.015   4.459   1.784  1.9447  0.1977 -0.5281
 8044TIP3   OH248326   0.848   3.304   1.119 -0.5550 -0.6508 -0.0797
 8044TIP3    H148327   0.857   3.267   1.206 -0.6613  0.4685  0.4183
 8044TIP3    H248328   0.762   3.346   1.118  0.6759  2.1120  0.4025
 8045TIP3   OH248329   1.279   6.675   1.747  0.5701 -0.6782  1.0506
 8045TIP3    H148330   1.308   6.693   1.658 -0.2476  0.1090  0.9325
 8045TIP3    H248331   1.358   6.646   1.793  1.1107 -0.5369  0.2237
 8046TIP3   OH248332   7.244   5.148   2.091  0.0954 -0.1726  0.5976
 8046TIP3    H148333   7.324   5.185   2.053 -1.2735  2.9628  0.3940
 8046TIP3    H248334   7.201   5.105   2.018 -0.0048  1.2058 -0.2057
 8047TIP3   OH248335   3.209   3.380   1.834  0.3725 -0.0853  0.4466
 8047TIP3    H148336   3.285   3.438   1.838 -0.0143  0.3895  1.8081
 8047TIP3    H248337   3.236   3.308   1.777  1.1295  1.0484 -0.6851
 8048TIP3   OH248338   1.375   2.468   1.144  0.7507  0.0901  0.8663
 8048TIP3    H148339   1.320   2.531   1.191  1.1554  0.4235  0.8987
 8048TIP3    H248340   1.362   2.487   1.052  0.9514  0.2915  0.8787
 8049TIP3   OH248341   5.757   7.618   2.200 -0.1649  0.3145  0.0226
 8049TIP3    H148342   5.799   7.544   2.155  0.7901  1.7161 -1.5012
 8049TIP3    H248343   5.689   7.648   2.139  0.5037  1.6468 -0.1011
 8050TIP3   OH248344   4.085   4.268   3.408 -0.2622  0.3456 -0.1022
 8050TIP3    H148345   4.141   4.266   3.331 -0.3894  0.5419 -0.2022
 8050TIP3    H248346   4.048   4.180   3.413 -0.5956  0.4576 -0.5235
 8051TIP3   OH248347   1.880   7.085   1.052 -0.1737 -0.7297  0.0257
 8051TIP3    H148348   1.800   7.051   1.092 -0.4711  0.6228  0.6211
 8051TIP3    H248349   1.854   7.168   1.012  0.6997 -0.8033 -0.7483
 8052TIP3   OH248350   0.870   1.987   1.171  0.2736 -0.3345 -0.0897
 8052TIP3    H148351   0.884   1.944   1.255 -0.8405 -1.0093 -0.2361
 8052TIP3    H248352   0.825   1.921   1.117 -0.0828  0.4879 -0.8249
 8053TIP3   OH248353   1.957   6.685   3.583  0.4405  0.1194 -0.2933
 8053TIP3    H148354   1.931   6.599   3.614  0.3856  0.3414  0.2798
 8053TIP3    H248355   1.875   6.726   3.554  0.4706 -0.0301 -0.5926
 8054TIP3   OH248356   1.763   4.512   1.491  0.3608  0.7597  0.4772
 8054TIP3    H148357   1.778   4.423   1.459  0.5431  0.2971  1.7987
 8054TIP3    H248358   1.674   4.533   1.463  0.3287  0.1869  0.1215
 8055TIP3   OH248359   6.012   4.238   2.467  0.2638 -0.3800  0.2577
 8055TIP3    H148360   6.068   4.283   2.530 -0.3934 -0.9114  1.2523
 8055TIP3    H248361   5.944   4.301   2.445  0.7333 -0.0465 -0.2596
 8056TIP3   OH248362   1.684   1.827   0.475 -1.0672  0.4180  0.4955
 8056TIP3    H148363   1.745   1.883   0.427 -0.2889 -0.3765  0.5253
 8056TIP3    H248364   1.691   1.856   0.566 -0.1599 -0.1487  0.6193
 8057TIP3   OH248365   2.556   6.265   1.542  0.2823  0.8137 -0.0876
 8057TIP3    H148366   2.539   6.356   1.567 -1.3878  1.0354 -1.8328
 8057TIP3    H248367   2.528   6.260   1.451 -1.1131 -1.8187  0.3951
 8058TIP3   OH248368   4.408   6.360   1.431  0.0307 -0.3677  0.4090
 8058TIP3    H148369   4.362   6.295   1.484  2.4232 -2.3947  0.2342
 8058TIP3    H248370   4.407   6.324   1.343 -0.2439  0.8233 -0.0858
 8059TIP3   OH248371   6.680   0.278   1.471  0.7379 -0.1561 -0.1824
 8059TIP3    H148372   6.668   0.350   1.409 -2.1969  2.1274  2.7173
 8059TIP3    H248373   6.756   0.304   1.524  0.2643  0.3276  0.2586
 8060TIP3   OH248374   4.843   7.352   2.417 -0.0327 -0.3312 -0.3663
 8060TIP3    H148375   4.880   7.319   2.499 -2.1589 -0.5212  0.5697
 8060TIP3    H248376   4.835   7.446   2.431  1.4805 -0.0386 -1.1846
 8061TIP3   OH248377   5.406   2.575   1.874 -0.4899  0.3009  0.4488
 8061TIP3    H148378   5.482   2.519   1.856 -0.8569 -0.8483  2.1303
 8061TIP3    H248379   5.341   2.548   1.810 -0.2954 -0.4880  0.5653
 8062TIP3   OH248380   5.666   5.647   0.686 -0.2066  0.5430  0.3258
 8062TIP3    H148381   5.637   5.557   0.677 -1.8388  0.9359  1.1859
 8062TIP3    H248382   5.729   5.660   0.615  0.0381 -1.2458  0.1805
 8063TIP3   OH248383   6.045   7.627   2.548 -0.0103 -0.2795 -0.9432
 8063TIP3    H148384   6.068   7.598   2.636 -0.5318  0.1141 -0.6715
 8063TIP3    H248385   6.047   7.547   2.495  2.0983 -0.2413 -0.9737
 8064TIP3   OH248386   2.804   1.861   1.103 -0.3114 -0.0327 -0.1897
 8064TIP3    H148387   2.716   1.899   1.099 -0.1455  0.2582 -1.8941
 8064TIP3    H248388   2.848   1.895   1.026  0.0956 -3.1003 -1.4618
 8065TIP3   OH248389   3.198   0.986   0.992  0.6155 -0.3697 -0.7724
 8065TIP3    H148390   3.175   0.901   0.954  0.2350 -0.6460  0.0564
 8065TIP3    H248391   3.240   0.965   1.075  1.3362  0.2328 -0.9708
 8066TIP3   OH248392   3.853   1.044   2.842  0.2381  0.0750 -0.3226
 8066TIP3    H148393   3.843   1.017   2.933  0.5299  2.2273  0.4252
 8066TIP3    H248394   3.764   1.041   2.806 -0.1280  0.5857  0.4917
 8067TIP3   OH248395   3.929   1.116   1.102 -0.3591 -0.1634 -0.4011
 8067TIP3    H148396   3.967   1.091   1.187  2.0933  1.0043 -1.0507
 8067TIP3    H248397   3.885   1.199   1.119  2.6907  1.6911 -0.6951
 8068TIP3   OH248398   5.350   5.189   1.404 -0.4126 -0.1939 -0.0890
 8068TIP3    H148399   5.385   5.137   1.477  0.7251  1.4261  0.5990
 8068TIP3    H248400   5.276   5.236   1.442 -1.8639 -1.7521 -0.8858
 8069TIP3   OH248401   0.755   2.600   0.636 -0.0299 -0.5027 -0.2486
 8069TIP3    H148402   0.818   2.635   0.699  1.3420  1.3124 -2.4713
 8069TIP3    H248403   0.683   2.662   0.637  0.2873 -0.1153 -0.8947
 8070TIP3   OH248404   5.732   2.324   2.202  0.3924  0.4585 -0.0801
 8070TIP3    H148405   5.772   2.316   2.289 -0.2971 -1.0610  0.1291
 8070TIP3    H248406   5.806   2.338   2.143  0.9963  0.1241  0.5799
 8071TIP3   OH248407   2.398   0.061   2.831  0.2559  0.3174 -0.0483
 8071TIP3    H148408   2.424  -0.028   2.857 -1.3785 -0.2379 -0.2253
 8071TIP3    H248409   2.397   0.058   2.735  1.5878  0.9793 -0.1173
 8072TIP3   OH248410   5.254   7.662   1.952  0.1397  0.4858 -0.1063
 8072TIP3    H148411   5.222   7.584   1.907  0.7595  0.0966  0.1149
 8072TIP3    H248412   5.175   7.707   1.982 -0.2818  0.6930 -1.4666
 8073TIP3   OH248413   0.738   6.703   2.020 -0.3480  0.4037 -0.1544
 8073TIP3    H148414   0.802   6.769   2.047 -0.4827  0.0772  0.9808
 8073TIP3    H248415   0.780   6.620   2.041 -0.1990  0.0933 -1.5332
 8074TIP3   OH248416   1.711   6.867   1.540  0.5985  0.3762  0.1789
 8074TIP3    H148417   1.758   6.786   1.518 -0.7327 -0.2373 -0.5073
 8074TIP3    H248418   1.771   6.937   1.513  1.1446 -0.3836 -0.6409
 8075TIP3   OH248419   3.685   4.626   1.217 -1.0770 -0.2846  0.3779
 8075TIP3    H148420   3.708   4.559   1.281  1.5637  0.8484  0.7265
 8075TIP3    H248421   3.625   4.582   1.157 -0.7871 -2.4344  1.5609
 8076TIP3   OH248422   0.787   4.538   2.244 -0.5157  0.2627  0.3172
 8076TIP3    H148423   0.781   4.560   2.151  0.4856 -1.2794 -0.1483
 8076TIP3    H248424   0.798   4.443   2.246  0.4283  0.3612  1.9687
 8077TIP3   OH248425   0.540   6.275   0.616 -0.1290 -0.4587 -0.5621
 8077TIP3    H148426   0.602   6.205   0.635 -0.2685 -0.7247 -1.0787
 8077TIP3    H248427   0.566   6.309   0.530 -0.2703 -0.1030 -0.4690
 8078TIP3   OH248428   3.801   3.458   1.355 -0.5009 -0.3019 -0.2816
 8078TIP3    H148429   3.731   3.397   1.378 -1.0500  0.1458 -0.7208
 8078TIP3    H248430   3.755   3.534   1.317  0.2299 -0.0894 -0.7612
 8079TIP3   OH248431   4.653   3.696   1.086  0.5493  0.3904  0.1144
 8079TIP3    H148432   4.721   3.759   1.064 -0.1304  1.3440  0.6944
 8079TIP3    H248433   4.653   3.694   1.182  0.6008 -0.5407  0.1049
 8080TIP3   OH248434   5.742   3.328   1.101 -0.0359 -0.0983  0.0433
 8080TIP3    H148435   5.827   3.307   1.064  0.4415 -0.0783  1.0969
 8080TIP3    H248436   5.696   3.374   1.031  0.6950 -0.3941 -0.6415
 8081TIP3   OH248437   0.597   5.366   0.884  0.1692  0.3660  0.1385
 8081TIP3    H148438   0.586   5.271   0.879 -1.5672  0.4910  0.9238
 8081TIP3    H248439   0.618   5.382   0.977  0.1580  0.7732  0.0710
 8082TIP3   OH248440   1.736   4.992   0.977  0.1697  0.2077  0.4104
 8082TIP3    H148441   1.784   4.989   0.894 -0.7737 -0.3433 -0.1246
 8082TIP3    H248442   1.728   4.901   1.004 -0.5630  0.3007  0.5078
 8083TIP3   OH248443   0.808   6.367   2.990  0.2651  0.3332 -0.1642
 8083TIP3    H148444   0.873   6.409   2.935  0.5891 -0.3449 -0.3092
 8083TIP3    H248445   0.813   6.413   3.074 -0.5515  1.6812 -0.8146
 8084TIP3   OH248446   4.109   4.636   1.713 -0.3845 -0.8504  0.3552
 8084TIP3    H148447   4.015   4.628   1.694 -0.3059 -0.9345 -0.0233
 8084TIP3    H248448   4.128   4.729   1.705 -0.5337 -0.7719  0.9208
 8085TIP3   OH248449   1.790   3.862   2.549  0.1027 -0.3944 -0.0244
 8085TIP3    H148450   1.876   3.822   2.536  0.1325 -0.5586  0.6686
 8085TIP3    H248451   1.737   3.795   2.592  0.3363  0.4876  1.7099
 8086TIP3   OH248452   4.529   1.923   1.915 -0.0014 -0.0142  0.2807
 8086TIP3    H148453   4.450   1.868   1.910 -0.2608  0.4702 -1.9696
 8086TIP3    H248454   4.537   1.945   2.007 -0.7843 -2.5249  1.0343
 8087TIP3   OH248455   3.138   2.173   1.742 -0.6999  0.6762  0.1520
 8087TIP3    H148456   3.146   2.262   1.709 -1.1937  0.9699  0.8337
 8087TIP3    H248457   3.074   2.132   1.684 -0.9795  0.9620  0.2581
 8088TIP3   OH248458   5.991   0.979   1.575  0.1446 -0.2867 -0.3204
 8088TIP3    H148459   6.007   0.987   1.481 -0.0307  0.4908 -0.2880
 8088TIP3    H248460   5.929   1.048   1.595 -0.6917 -1.1579  0.1712
 8089TIP3   OH248461   2.358   4.686   1.527 -0.3114  0.6333 -0.0484
 8089TIP3    H148462   2.303   4.763   1.512 -1.0904  0.3133  1.0706
 8089TIP3    H248463   2.297   4.616   1.549  0.5382  0.6664  2.9081
 8090TIP3   OH248464   3.943   7.474   1.711 -0.1296  0.0283  0.1625
 8090TIP3    H148465   4.024   7.504   1.752  1.1202 -0.3370 -1.9349
 8090TIP3    H248466   3.965   7.462   1.619 -2.2839 -1.1641 -0.2653
 8091TIP3   OH248467   4.801   1.739   1.831  0.7571 -0.1805  0.1433
 8091TIP3    H148468   4.762   1.693   1.905 -0.1323  1.3658  0.6931
 8091TIP3    H248469   4.752   1.707   1.755  1.2685 -1.3324  0.2790
 8092TIP3   OH248470   0.028   4.431   1.109  0.0149  0.2821  0.1168
 8092TIP3    H148471   0.075   4.513   1.100  0.1363  0.1502 -0.5139
 8092TIP3    H248472   0.029   4.393   1.021 -4.3450  1.9482 -0.9649
 8093TIP3   OH248473   6.386   0.071   1.981  0.1830 -0.0790  0.1841
 8093TIP3    H148474   6.344   0.091   1.898 -1.1554 -0.3842  0.7571
 8093TIP3    H248475   6.436  -0.009   1.963  0.6712  0.3806 -0.5561
 8094TIP3   OH248476   2.108   0.121   2.423  0.2158  0.4790 -0.0162
 8094TIP3    H148477   2.089   0.034   2.388  2.1037  0.5312 -1.3482
 8094TIP3    H248478   2.086   0.181   2.353 -0.7521  1.0709  0.7747
 8095TIP3   OH248479   6.456   1.346   1.303  0.0080 -0.3528 -0.4162
 8095TIP3    H148480   6.396   1.411   1.341 -1.9975 -1.6347 -1.2457
 8095TIP3    H248481   6.478   1.289   1.377 -1.3762 -0.9993 -0.4700
 8096TIP3   OH248482   6.654   1.907   1.084 -0.2117 -0.6081 -0.1854
 8096TIP3    H148483   6.581   1.845   1.089  0.5912 -1.6454 -0.9484
 8096TIP3    H248484   6.730   1.858   1.114  0.1511  0.5625  0.9220
 8097TIP3   OH248485   0.304   5.396   0.524  0.3303 -0.3618 -1.0207
 8097TIP3    H148486   0.344   5.340   0.590  1.2937  0.0524 -1.2476
 8097TIP3    H248487   0.341   5.366   0.441 -0.6290 -0.6639 -1.3624
 8098TIP3   OH248488   3.415   4.904   2.021  0.1100  0.4946  0.0453
 8098TIP3    H148489   3.450   4.944   2.100  0.2944 -0.0090  0.2250
 8098TIP3    H248490   3.448   4.958   1.950 -1.9499  2.3495  0.4066
 8099TIP3   OH248491   6.130   4.021   2.383 -0.3815  0.1013 -0.6954
 8099TIP3    H148492   6.095   4.105   2.413  0.8841  0.6007 -0.5513
 8099TIP3    H248493   6.128   4.027   2.287  1.5366  1.1346 -0.7145
 8100TIP3   OH248494   1.891   4.116   2.512 -0.3108  0.5264 -0.0551
 8100TIP3    H148495   1.881   4.117   2.417 -0.2969  1.9001 -0.0651
 8100TIP3    H248496   1.872   4.026   2.537  0.3970 -0.0311 -1.4285
 8101TIP3   OH248497   7.351   6.902   3.258 -0.3197  0.9151 -0.4954
 8101TIP3    H148498   7.279   6.955   3.222 -0.9933  0.6771  0.4599
 8101TIP3    H248499   7.384   6.953   3.331  0.8798  1.2817 -1.2754
 8102TIP3   OH248500   3.566   2.479   1.310  0.3168  1.0321 -0.0327
 8102TIP3    H148501   3.502   2.519   1.252 -0.8614  0.0840  0.5712
 8102TIP3    H248502   3.550   2.520   1.395  0.2265  0.5077  0.2087
 8103TIP3   OH248503   2.421   1.262   1.677  0.4448  0.0361 -0.2062
 8103TIP3    H148504   2.480   1.333   1.703 -0.0688  0.4109 -0.0332
 8103TIP3    H248505   2.335   1.291   1.707  0.0172 -0.0676 -1.2795
 8104TIP3   OH248506   0.919   5.904   3.577 -0.3080  0.0638 -0.5668
 8104TIP3    H148507   0.853   5.836   3.564  0.7631 -0.9217 -1.0336
 8104TIP3    H248508   0.876   5.970   3.632 -2.1652  0.1923 -2.1028
 8105TIP3   OH248509   3.638   3.583   0.759  0.6978 -0.8008 -0.2640
 8105TIP3    H148510   3.702   3.652   0.772 -0.6892  0.2739  1.2967
 8105TIP3    H248511   3.677   3.506   0.802  0.5126  0.1434  1.7338
 8106TIP3   OH248512   3.303   0.334   1.488  0.3484  0.4557 -0.0247
 8106TIP3    H148513   3.259   0.357   1.406 -2.1483 -0.9828  0.8021
 8106TIP3    H248514   3.333   0.244   1.474  0.0225  0.2500  0.5761
 8107TIP3   OH248515   2.423   2.143   2.725 -0.0715  0.0382 -0.6204
 8107TIP3    H148516   2.470   2.077   2.675 -0.1352 -0.0587 -0.5535
 8107TIP3    H248517   2.474   2.153   2.805 -0.1922 -0.1052 -0.5247
 8108TIP3   OH248518   1.827   3.994   2.265  0.6916 -0.2808  0.1019
 8108TIP3    H148519   1.876   4.034   2.194  0.3112 -1.6816 -0.9861
 8108TIP3    H248520   1.823   3.901   2.243 -2.1420 -0.2902  0.3186
 8109TIP3   OH248521   4.589   1.700   1.613  0.1256  0.7155 -0.6492
 8109TIP3    H148522   4.584   1.714   1.518 -0.6593  0.3097 -0.6770
 8109TIP3    H248523   4.534   1.769   1.650 -1.3844 -0.4495 -0.6270
 8110TIP3   OH248524   7.305   6.699   1.648  0.0381  0.2064  0.4210
 8110TIP3    H148525   7.338   6.703   1.558  0.2015 -0.2034  0.4620
 8110TIP3    H248526   7.311   6.607   1.672 -0.4304  0.2411  0.6954
 8111TIP3   OH248527   5.347   1.954   2.160  0.0067  0.0030 -0.1575
 8111TIP3    H148528   5.294   2.030   2.182 -0.5907 -0.2269 -0.7668
 8111TIP3    H248529   5.428   1.966   2.209  0.1022  1.2472 -0.6035
 8112TIP3   OH248530   0.153   5.381   1.067 -0.0999  0.3638  0.3558
 8112TIP3    H148531   0.060   5.367   1.083  0.0126 -0.2465  0.5012
 8112TIP3    H248532   0.191   5.392   1.155  0.2842 -1.5021  0.4679
 8113TIP3   OH248533   1.334   5.270   1.065  0.0442  0.1972  0.3108
 8113TIP3    H148534   1.399   5.241   1.001 -2.0137 -0.9120 -1.3970
 8113TIP3    H248535   1.378   5.262   1.149  1.7419 -1.6289 -0.6784
 8114TIP3   OH248536   0.136   2.576   3.481  0.4772 -0.1255 -0.0701
 8114TIP3    H148537   0.061   2.634   3.488 -0.6714 -1.7243  2.0222
 8114TIP3    H248538   0.207   2.623   3.524  0.3711  0.8644 -0.9357
 8115TIP3   OH248539   4.098   5.611   0.492  0.0699 -0.1864  0.0728
 8115TIP3    H148540   4.036   5.539   0.481  1.9343 -1.8274 -0.4121
 8115TIP3    H248541   4.139   5.620   0.407  0.3134  1.0410  0.3116
 8116TIP3   OH248542   1.314   5.733   3.593  0.4608  0.0538  0.2771
 8116TIP3    H148543   1.266   5.780   3.525 -0.5539 -1.0181  0.2277
 8116TIP3    H248544   1.296   5.641   3.576  0.7987 -0.2686  1.5601
 8117TIP3   OH248545   3.575   6.895   0.616  0.0825  0.3927  0.3381
 8117TIP3    H148546   3.669   6.912   0.617  0.1953 -0.1917  0.2639
 8117TIP3    H248547   3.549   6.908   0.525  0.2635 -0.3210  0.1817
 8118TIP3   OH248548   5.160   6.788   2.342 -0.4624  0.4395  0.3081
 8118TIP3    H148549   5.229   6.829   2.290 -0.2486  1.3720  1.2969
 8118TIP3    H248550   5.190   6.797   2.432 -1.3566 -0.1522  0.6697
 8119TIP3   OH248551   7.656   6.340   1.687 -0.4339  0.8541  0.2988
 8119TIP3    H148552   7.702   6.409   1.736 -0.9433  1.3030  0.1592
 8119TIP3    H248553   7.726   6.293   1.641  0.1076  0.0799  1.8660
 8120TIP3   OH248554   4.427   6.549   1.624 -0.1073 -0.2815 -0.8140
 8120TIP3    H148555   4.506   6.532   1.676 -1.0550  0.2902  0.8889
 8120TIP3    H248556   4.424   6.476   1.562  0.8905 -1.1983  0.1578
 8121TIP3   OH248557   2.504   5.532   2.219 -0.2171  0.0555  0.1211
 8121TIP3    H148558   2.419   5.535   2.174  0.2196  2.6390 -0.7463
 8121TIP3    H248559   2.485   5.560   2.308 -0.5657 -1.5874  0.5890
 8122TIP3   OH248560   1.801   1.706   7.188 -0.2767 -0.9189  0.6077
 8122TIP3    H148561   1.863   1.670   7.125 -0.2659  1.4484 -0.8827
 8122TIP3    H248562   1.854   1.732   7.263  0.7703  1.5918 -0.8691
 8123TIP3   OH248563   0.572   1.641   1.855 -0.2547 -0.6089  0.1967
 8123TIP3    H148564   0.596   1.674   1.768 -1.3044 -0.4606 -0.0460
 8123TIP3    H248565   0.490   1.686   1.876  1.8933  2.4134  2.9949
 8124TIP3   OH248566   6.900   2.784   2.013  0.4477 -0.4201  0.3130
 8124TIP3    H148567   6.941   2.743   1.938  0.2715 -0.1933  0.0910
 8124TIP3    H248568   6.807   2.787   1.992  0.4600  0.1159  0.3109
 8125TIP3   OH248569   6.593   4.690   2.253 -0.0438  0.0136 -0.2008
 8125TIP3    H148570   6.517   4.648   2.214  0.2304 -0.8429  0.1545
 8125TIP3    H248571   6.559   4.766   2.300 -0.5088  0.4045 -1.1598
 8126TIP3   OH248572   7.584   5.180   1.503  0.3382  0.1284 -0.8509
 8126TIP3    H148573   7.664   5.180   1.450  0.3600  3.4761 -1.0161
 8126TIP3    H248574   7.616   5.172   1.593  0.7851  0.3567 -0.9838
 8127TIP3   OH248575   3.809   6.335   1.474  0.6675  0.0910 -0.5685
 8127TIP3    H148576   3.863   6.393   1.421 -0.6333  1.6342 -0.2845
 8127TIP3    H248577   3.747   6.394   1.518 -1.2868 -1.5701 -0.9477
 8128TIP3   OH248578   0.591   3.046   1.090 -0.3029 -0.0337  0.3123
 8128TIP3    H148579   0.571   3.131   1.130 -0.0506  0.4174 -0.5049
 8128TIP3    H248580   0.508   2.999   1.093 -0.3712  0.1183  1.0543
 8129TIP3   OH248581   7.414   1.269   1.821  0.2857  0.5703  0.2779
 8129TIP3    H148582   7.433   1.229   1.736  0.4975  0.1538  0.5129
 8129TIP3    H248583   7.319   1.282   1.821  0.3900  1.4133 -0.3773
 8130TIP3   OH248584   3.445   6.013   2.934 -0.2223 -0.5768  0.0023
 8130TIP3    H148585   3.437   6.030   3.028 -1.4105 -2.4038  0.2919
 8130TIP3    H248586   3.525   5.961   2.926  1.0419  1.3233 -0.3219
 8131TIP3   OH248587   4.051   4.020   2.340  0.2273  0.3969  0.2862
 8131TIP3    H148588   4.022   4.095   2.393 -1.0829  0.3805 -0.3496
 8131TIP3    H248589   4.143   4.038   2.322  0.7715  0.3233  2.6608
 8132TIP3   OH248590   0.066   4.526   2.546  0.2958 -0.4006  0.0141
 8132TIP3    H148591   0.153   4.516   2.585  0.3740 -0.0971 -0.0817
 8132TIP3    H248592   0.081   4.577   2.466 -0.1541  0.9358  0.7508
 8133TIP3   OH248593   3.915   3.841   1.428  0.0594  0.0100  0.3206
 8133TIP3    H148594   3.838   3.869   1.378  0.9342  0.6409 -0.7002
 8133TIP3    H248595   3.974   3.805   1.363  0.1066 -1.7367  1.2682
 8134TIP3   OH248596   1.005   5.014   8.108  0.3283 -0.6961 -0.4737
 8134TIP3    H148597   1.026   4.997   8.200 -1.5170 -0.0333  0.1023
 8134TIP3    H248598   1.004   4.928   8.067 -0.1884 -1.1282  0.4289
 8135TIP3   OH248599   6.362   0.530   0.994  0.4931 -0.1881  0.1287
 8135TIP3    H148600   6.352   0.572   1.079 -0.0949 -1.7797  0.9021
 8135TIP3    H248601   6.349   0.600   0.930  2.1211  1.2941  1.3188
 8136TIP3   OH248602   2.678   5.790   2.426 -0.6954 -0.1076 -0.0104
 8136TIP3    H148603   2.699   5.836   2.507 -1.5251 -1.5020  1.0351
 8136TIP3    H248604   2.670   5.698   2.451  0.3833 -0.8059 -1.9286
 8137TIP3   OH248605   7.016   2.046   1.098  0.3837 -0.1013 -0.1492
 8137TIP3    H148606   7.048   2.098   1.025  0.4137 -0.6811 -0.5521
 8137TIP3    H248607   6.986   2.111   1.162  1.9692  0.4501  0.0665
 8138TIP3   OH248608   4.646   4.216   1.876  0.1358 -0.1180  0.5126
 8138TIP3    H148609   4.571   4.223   1.816 -0.6621 -1.8905  1.2481
 8138TIP3    H248610   4.634   4.289   1.937  0.6712  1.4017 -1.0831
 8139TIP3   OH248611   5.599   2.386   1.788 -0.3430 -0.0189  0.3402
 8139TIP3    H148612   5.585   2.349   1.701  0.2027  0.7831 -0.0988
 8139TIP3    H248613   5.574   2.316   1.848  0.6051 -1.0867 -0.4622
 8140TIP3   OH248614   1.595   2.153   0.747 -0.5443 -0.1172  0.5698
 8140TIP3    H148615   1.624   2.235   0.708 -0.6430 -1.6414 -3.0542
 8140TIP3    H248616   1.509   2.173   0.783 -2.1593  0.7647 -3.2618
 8141TIP3   OH248617   1.497   7.522   2.422  0.5894  0.1087 -0.1630
 8141TIP3    H148618   1.543   7.509   2.340 -0.5499 -1.5978 -0.5737
 8141TIP3    H248619   1.555   7.485   2.489  0.3393 -0.9709 -0.5346
 8142TIP3   OH248620   0.674   5.446   2.479 -0.2038  0.2054  0.1299
 8142TIP3    H148621   0.660   5.459   2.385 -1.4064 -0.5530  0.1888
 8142TIP3    H248622   0.750   5.387   2.483  0.1175  0.5744 -0.3425
 8143TIP3   OH248623   3.866   3.248   3.401 -0.1762 -0.1141 -0.5853
 8143TIP3    H148624   3.800   3.244   3.331 -0.9840  1.6824  0.0160
 8143TIP3    H248625   3.864   3.160   3.439 -1.3959 -0.4517 -1.3321
 8144TIP3   OH248626   4.958   1.567   0.537  0.1679  0.1457 -0.0182
 8144TIP3    H148627   4.904   1.582   0.614 -2.0630 -4.0910 -0.4244
 8144TIP3    H248628   4.901   1.588   0.463  0.4712 -0.5757 -0.4717
 8145TIP3   OH248629   4.641   2.960   1.689 -0.2719  0.1517  0.1897
 8145TIP3    H148630   4.660   3.054   1.690  1.0499 -0.0629  2.3391
 8145TIP3    H248631   4.548   2.954   1.713 -0.4792  0.9072 -0.4022
 8146TIP3   OH248632   5.948   7.122   2.046 -0.1730 -0.0203  0.4018
 8146TIP3    H148633   5.919   7.135   1.956  0.9363  3.2649  0.3821
 8146TIP3    H248634   5.961   7.027   2.054 -1.0343 -0.4904 -2.6049
 8147TIP3   OH248635   5.956   2.735   1.677 -0.4205 -0.0978  0.1979
 8147TIP3    H148636   5.947   2.820   1.719  0.8623  0.0079  0.2913
 8147TIP3    H248637   5.876   2.688   1.702 -0.6859  0.7252  0.9565
 8148TIP3   OH248638   4.165   5.650   1.332  0.2321 -0.2643  0.1816
 8148TIP3    H148639   4.244   5.615   1.291  0.8120 -0.4835  1.4446
 8148TIP3    H248640   4.189   5.739   1.357  0.2943 -0.5380  1.1179
 8149TIP3   OH248641   3.195   1.429   0.504  0.6555  0.1266  0.2544
 8149TIP3    H148642   3.264   1.467   0.558  0.3134  0.6019  0.3557
 8149TIP3    H248643   3.118   1.484   0.520  0.6982  0.6211 -1.1625
 8150TIP3   OH248644   1.231   6.766   1.022  0.0873 -0.1671  0.2329
 8150TIP3    H148645   1.246   6.707   0.947  1.7713  1.0918 -0.4867
 8150TIP3    H248646   1.145   6.803   1.005  0.5240  0.2676 -1.2599
 8151TIP3   OH248647   0.010   0.399   1.845 -0.0942 -0.6280 -0.4178
 8151TIP3    H148648   0.027   0.416   1.752 -2.9191 -0.7541 -1.0402
 8151TIP3    H248649   0.063   0.464   1.891  0.8918 -0.1527 -2.1094
 8152TIP3   OH248650   7.396   2.948   3.508 -0.4470  0.5054  0.2709
 8152TIP3    H148651   7.408   3.007   3.433 -1.5782 -1.3429 -1.4594
 8152TIP3    H248652   7.347   3.000   3.572 -0.8078  1.6737 -0.9080
 8153TIP3   OH248653   6.049   2.627   2.089 -0.3401  0.0432  0.1009
 8153TIP3    H148654   6.020   2.580   2.011  1.0837 -0.4666 -0.1529
 8153TIP3    H248655   6.114   2.689   2.057  0.0834 -0.0079  0.8406
 8154TIP3   OH248656   2.541   2.867   0.773  0.6619  0.0506  0.1187
 8154TIP3    H148657   2.561   2.956   0.804  1.6257  0.0238 -0.4070
 8154TIP3    H248658   2.453   2.850   0.808  0.8902  0.7935  1.1378
 8155TIP3   OH248659   5.886   1.100   1.337 -0.4673 -0.2913 -0.3247
 8155TIP3    H148660   5.823   1.173   1.331  0.7750  0.7179 -2.1978
 8155TIP3    H248661   5.850   1.033   1.278 -0.6664 -0.4169 -0.0582
 8156TIP3   OH248662   7.004   7.446   1.354  0.4583 -0.6707 -0.2053
 8156TIP3    H148663   7.090   7.426   1.390  0.3824 -2.1553 -0.7744
 8156TIP3    H248664   7.022   7.506   1.281  0.7571  0.9805  1.1723
 8157TIP3   OH248665   0.517   4.368   2.363  0.9004 -0.3507 -0.0404
 8157TIP3    H148666   0.490   4.277   2.357 -0.5893 -0.0453  1.3209
 8157TIP3    H248667   0.596   4.368   2.417  1.8016 -0.9514 -1.3196
 8158TIP3   OH248668   2.892   2.892   0.794 -0.2839 -0.1556 -0.2121
 8158TIP3    H148669   2.864   2.805   0.768 -1.4852  0.4410 -1.0209
 8158TIP3    H248670   2.823   2.923   0.853 -0.3213  0.5533 -0.6036
 8159TIP3   OH248671   7.243   2.468   2.713  0.2065  0.1907  0.3102
 8159TIP3    H148672   7.171   2.418   2.674 -0.0803  0.8810 -0.0685
 8159TIP3    H248673   7.234   2.455   2.807 -0.3283  0.1433  0.2560
 8160TIP3   OH248674   5.324   0.468   0.858  0.6351  0.4982  0.1008
 8160TIP3    H148675   5.361   0.394   0.906  0.4028 -1.2129 -2.1337
 8160TIP3    H248676   5.362   0.460   0.770 -0.5180  2.2005 -0.6036
 8161TIP3   OH248677   7.511   2.624   0.763  0.5222 -0.0405  0.0512
 8161TIP3    H148678   7.595   2.627   0.718  1.3367  0.8738  1.5537
 8161TIP3    H248679   7.532   2.638   0.855 -1.1581 -1.0668  0.6553
 8162TIP3   OH248680   4.836   7.591   2.611  0.3215 -0.1781  0.1533
 8162TIP3    H148681   4.774   7.589   2.683 -1.5189 -0.8434 -1.3708
 8162TIP3    H248682   4.872   7.680   2.612 -0.1189  0.0020  1.4935
 8163TIP3   OH248683   5.524   5.710   2.547  0.0852 -0.5230 -0.0763
 8163TIP3    H148684   5.576   5.630   2.552 -0.8795 -1.1871 -0.2178
 8163TIP3    H248685   5.588   5.781   2.542  0.9642 -1.3229 -0.4749
 8164TIP3   OH248686   7.044   1.238   1.468 -0.9645 -0.2953 -0.0956
 8164TIP3    H148687   6.989   1.304   1.424 -1.8217 -1.5557 -0.9787
 8164TIP3    H248688   7.121   1.231   1.413 -0.8518 -0.0173  0.0221
 8165TIP3   OH248689   4.817   0.550   3.200 -0.0255  0.4023 -0.3387
 8165TIP3    H148690   4.749   0.589   3.254  1.3871  0.7283  1.2837
 8165TIP3    H248691   4.810   0.595   3.116 -0.1284  2.3316  0.6526
 8166TIP3   OH248692   6.274   3.767   2.146 -0.0203  0.3946 -0.3988
 8166TIP3    H148693   6.216   3.843   2.152  1.8929  1.9169 -0.1756
 8166TIP3    H248694   6.256   3.717   2.225 -1.2783  0.6040 -0.5236
 8167TIP3   OH248695   5.260   0.669   1.412  0.7398 -0.1524  0.4570
 8167TIP3    H148696   5.264   0.687   1.319  1.1947 -0.3810  0.4302
 8167TIP3    H248697   5.336   0.613   1.430 -1.1142 -2.9430  0.3360
 8168TIP3   OH248698   1.147   2.194   1.374  0.0292 -0.3529 -0.1897
 8168TIP3    H148699   1.151   2.136   1.298 -1.6076  0.7619 -1.1928
 8168TIP3    H248700   1.124   2.137   1.447 -0.0245 -1.2104 -0.8672
 8169TIP3   OH248701   1.721   1.898   0.732  0.2423 -0.3983  0.6599
 8169TIP3    H148702   1.663   1.840   0.781 -0.2731 -0.1025  0.4190
 8169TIP3    H248703   1.680   1.984   0.739  1.3638  0.0743  1.5823
 8170TIP3   OH248704   2.205   6.691   2.189  0.2311  0.6896  0.5484
 8170TIP3    H148705   2.234   6.741   2.264  1.2828 -0.7053  1.1260
 8170TIP3    H248706   2.113   6.671   2.207 -0.6138  3.3853 -0.3019
 8171TIP3   OH248707   0.834   5.556   1.557  0.0227  0.7722  0.1150
 8171TIP3    H148708   0.803   5.647   1.550 -0.1364  0.6000 -2.1666
 8171TIP3    H248709   0.865   5.548   1.647  0.0541  3.1039  0.3681
 8172TIP3   OH248710   6.984   1.229   0.799  0.0506 -0.6124  0.2815
 8172TIP3    H148711   7.010   1.309   0.753 -0.8563 -0.1623  0.5164
 8172TIP3    H248712   6.892   1.217   0.775 -0.1322 -0.9663  1.1185
 8173TIP3   OH248713   2.525   2.674   1.603  0.2311 -0.3597  0.0295
 8173TIP3    H148714   2.558   2.763   1.596 -0.2581 -0.1517  0.2928
 8173TIP3    H248715   2.585   2.630   1.662  0.4596 -0.1967 -0.0817
 8174TIP3   OH248716   6.599   5.960   1.918 -0.2224  0.0678 -0.0646
 8174TIP3    H148717   6.590   6.019   1.843 -0.3001 -0.3951 -0.4243
 8174TIP3    H248718   6.651   6.010   1.981  3.4712 -0.9328 -1.9817
 8175TIP3   OH248719   7.602   6.100   2.429 -0.1115 -0.8137 -0.0753
 8175TIP3    H148720   7.601   6.103   2.525 -1.4465  0.4873 -0.0883
 8175TIP3    H248721   7.553   6.020   2.407 -2.9115  0.6385  0.3753
 8176TIP3   OH248722   3.920   7.292   1.964  0.1044 -0.4180  0.7052
 8176TIP3    H148723   4.001   7.337   1.940 -1.0712  1.2881 -0.2863
 8176TIP3    H248724   3.909   7.225   1.896 -0.3970  0.7948 -0.4494
 8177TIP3   OH248725   5.488   5.875   0.766  0.6462 -0.0131 -0.3170
 8177TIP3    H148726   5.527   5.896   0.850  1.2982  2.3485 -1.1444
 8177TIP3    H248727   5.550   5.814   0.725  1.5737  0.7542 -0.0719
 8178TIP3   OH248728   4.388   3.946   3.121  0.0007 -0.4166 -0.0556
 8178TIP3    H148729   4.456   3.879   3.132  0.0608 -0.6092 -1.3813
 8178TIP3    H248730   4.306   3.897   3.130  0.0450 -0.6120 -0.6660
 8179TIP3   OH248731   5.599   1.408   2.717 -0.2662 -0.4933  0.1667
 8179TIP3    H148732   5.688   1.394   2.685 -0.5107 -0.5628 -0.5110
 8179TIP3    H248733   5.578   1.329   2.766  0.5876  0.1558  1.6518
 8180TIP3   OH248734   4.445   6.898   2.679 -0.9211  0.2927  0.0979
 8180TIP3    H148735   4.350   6.904   2.681 -0.9175  0.7386 -0.7909
 8180TIP3    H248736   4.466   6.870   2.590 -0.1812  0.9513  0.0575
 8181TIP3   OH248737   1.899   4.109   2.011 -0.2125  0.2333  0.0975
 8181TIP3    H148738   1.895   4.197   2.049 -0.1263  1.4532 -2.4742
 8181TIP3    H248739   1.993   4.091   2.000 -0.2308  0.9681 -1.6535
 8182TIP3   OH248740   5.503   4.070   1.356  0.2920 -0.8328 -0.5169
 8182TIP3    H148741   5.581   4.117   1.327 -0.2693  0.7550  0.4500
 8182TIP3    H248742   5.537   3.995   1.405  1.2058 -1.1089 -1.5375
 8183TIP3   OH248743   5.802   7.093   0.966  0.1856  0.5183 -0.0948
 8183TIP3    H148744   5.760   7.089   1.052 -0.7368  0.6995 -0.5218
 8183TIP3    H248745   5.746   7.151   0.914 -0.0358 -0.6397 -1.2170
 8184TIP3   OH248746   6.575   1.344   1.054  0.3797 -0.3060 -0.2243
 8184TIP3    H148747   6.514   1.351   0.980  1.5686 -0.3929 -1.2486
 8184TIP3    H248748   6.521   1.359   1.131 -0.7698  0.5185 -1.1516
 8185TIP3   OH248749   6.217   7.249   1.234 -0.0496  1.0122 -0.1906
 8185TIP3    H148750   6.188   7.335   1.204 -1.4170 -0.0854 -2.1923
 8185TIP3    H248751   6.193   7.189   1.164 -0.5445 -1.2674  1.7906
 8186TIP3   OH248752   7.334   4.029   2.799  0.6431 -0.5151 -0.4456
 8186TIP3    H148753   7.318   4.123   2.806 -0.7753 -0.6914 -1.1469
 8186TIP3    H248754   7.258   3.989   2.840  1.1933 -1.3684 -0.2458
 8187TIP3   OH248755   4.176   5.590   3.419 -0.7905 -0.0043 -0.2695
 8187TIP3    H148756   4.263   5.551   3.414 -0.0791  1.6355 -1.6579
 8187TIP3    H248757   4.119   5.523   3.380 -0.2551 -1.2614  1.0193
 8188TIP3   OH248758   0.159   2.324   2.355 -0.5681 -0.0190  0.2603
 8188TIP3    H148759   0.128   2.386   2.421  1.2482  2.6941 -1.2666
 8188TIP3    H248760   0.235   2.283   2.396  0.6285  1.7387 -0.1075
 8189TIP3   OH248761   4.317   3.353   1.670 -0.1293  0.2553 -0.0986
 8189TIP3    H148762   4.316   3.403   1.752 -1.0640  0.2644 -0.1078
 8189TIP3    H248763   4.410   3.333   1.656  0.5055  3.1897 -0.8480
 8190TIP3   OH248764   1.375   4.134   3.196  0.6840  0.2366  0.0331
 8190TIP3    H148765   1.330   4.212   3.166 -1.7519 -1.1994 -0.3057
 8190TIP3    H248766   1.353   4.067   3.131 -0.2349 -1.5888  2.0965
 8191TIP3   OH248767   0.452   3.697   0.658  0.3023  0.1782 -0.7709
 8191TIP3    H148768   0.517   3.736   0.715 -0.6119  1.6013 -0.6577
 8191TIP3    H248769   0.463   3.602   0.670  0.2605  0.4151  1.6507
 8192TIP3   OH248770   7.557   6.464   1.989 -0.6650 -0.4690 -0.0935
 8192TIP3    H148771   7.553   6.556   1.962  0.2865 -0.2007  0.6042
 8192TIP3    H248772   7.502   6.459   2.067  0.1069 -0.2353  0.4852
 8193TIP3   OH248773   2.362   0.866   2.884  0.1221 -0.1298 -0.4203
 8193TIP3    H148774   2.344   0.775   2.909 -0.4139 -0.0144 -0.3752
 8193TIP3    H248775   2.448   0.862   2.841 -0.6343 -0.9509 -1.9497
 8194TIP3   OH248776   6.083   5.610   2.062  0.4949 -0.6367  0.5100
 8194TIP3    H148777   6.098   5.647   1.975  0.7130  1.7895  1.4993
 8194TIP3    H248778   6.030   5.532   2.046 -0.1016  0.1507 -1.7317
 8195TIP3   OH248779   4.833   7.185   2.130  0.0943  0.6039  0.4145
 8195TIP3    H148780   4.848   7.198   2.224 -0.8004  1.5862  0.4431
 8195TIP3    H248781   4.875   7.101   2.110 -1.2615 -0.5629  2.1088
 8196TIP3   OH248782   6.878   5.959   2.856 -0.7706 -0.2976  0.3113
 8196TIP3    H148783   6.900   5.918   2.939 -0.6991 -0.9527 -0.0254
 8196TIP3    H248784   6.897   5.892   2.790  0.8657  0.8099 -0.3918
 8197TIP3   OH248785   3.155   6.758   0.800  0.2863 -0.6142  0.3000
 8197TIP3    H148786   3.131   6.670   0.772 -0.7835 -0.5667  1.0178
 8197TIP3    H248787   3.251   6.759   0.797  0.2735 -1.3774 -0.9622
 8198TIP3   OH248788   6.141   4.243   2.019  0.3970  0.2153 -0.2454
 8198TIP3    H148789   6.177   4.273   2.103 -0.0609 -1.9102  0.8029
 8198TIP3    H248790   6.212   4.255   1.957  0.8436  1.5931  0.4803
 8199TIP3   OH248791   2.393   0.579   2.055 -0.0225  0.3099 -0.0875
 8199TIP3    H148792   2.434   0.534   2.129 -0.0613 -0.1087 -0.3157
 8199TIP3    H248793   2.383   0.669   2.085  1.2716  0.4792 -0.1076
 8200TIP3   OH248794   4.475   4.903   1.267  0.2285  0.1732  0.0374
 8200TIP3    H148795   4.535   4.847   1.217 -0.5176  0.1865 -0.9000
 8200TIP3    H248796   4.511   4.903   1.356  0.5765 -1.3329 -0.0713
 8201TIP3   OH248797   3.627   0.737   1.563  0.6363 -0.0132  0.7540
 8201TIP3    H148798   3.562   0.667   1.559 -0.6338  1.0907 -3.8435
 8201TIP3    H248799   3.583   0.807   1.612 -0.3048 -0.5327  0.6763
 8202TIP3   OH248800   1.744   3.912   1.094 -0.0524 -0.0111 -0.6911
 8202TIP3    H148801   1.778   3.834   1.139  1.7805  1.5064  0.7121
 8202TIP3    H248802   1.674   3.878   1.037  0.6752 -2.6599 -0.1530
 8203TIP3   OH248803   7.379   3.667   1.661  0.0180 -0.1114 -0.2580
 8203TIP3    H148804   7.467   3.702   1.657  0.0627 -0.0206  1.0480
 8203TIP3    H248805   7.328   3.721   1.602  0.4573  1.0285  0.3803
 8204TIP3   OH248806   1.782   1.418   0.752 -0.1919  0.1996  0.2707
 8204TIP3    H148807   1.797   1.477   0.825 -0.3350  1.4343 -0.6698
 8204TIP3    H248808   1.794   1.331   0.789  0.3114  0.8169  1.6197
 8205TIP3   OH248809   7.391   3.956   1.757  0.1237  0.4608  0.2144
 8205TIP3    H148810   7.315   3.995   1.800 -0.3723  0.2934 -0.4917
 8205TIP3    H248811   7.359   3.931   1.670  0.8910  0.0549  0.0422
 8206TIP3   OH248812   6.766   3.566   0.921 -0.1147  0.0081 -0.0016
 8206TIP3    H148813   6.685   3.588   0.876 -0.7753 -0.3839  0.9679
 8206TIP3    H248814   6.741   3.555   1.013  1.2401  1.0651  0.5343
 8207TIP3   OH248815   5.379   5.748   1.829 -1.0112 -0.0906  0.2650
 8207TIP3    H148816   5.322   5.740   1.753 -1.2615  0.8225  0.3477
 8207TIP3    H248817   5.426   5.664   1.833 -0.0399  0.2958 -1.6713
 8208TIP3   OH248818   6.377   6.999   1.556  0.3484 -0.3191 -0.4365
 8208TIP3    H148819   6.457   7.042   1.528  0.0601  0.3394 -0.2623
 8208TIP3    H248820   6.399   6.957   1.639  0.6187 -0.4792 -0.5883
 8209TIP3   OH248821   5.208   0.961   2.946  0.2487 -0.1548  0.0357
 8209TIP3    H148822   5.189   0.892   2.883 -0.3593  0.0708 -0.0398
 8209TIP3    H248823   5.303   0.971   2.944  0.4121 -1.4447  0.5300
 8210TIP3   OH248824   1.174   2.045   2.837  0.3450 -0.6569 -0.6229
 8210TIP3    H148825   1.147   1.956   2.861  1.5855 -0.7386  0.6872
 8210TIP3    H248826   1.153   2.097   2.914  1.1135 -0.1568 -0.7409
 8211TIP3   OH248827   3.576   5.660   1.797  0.3743  0.2866 -0.2413
 8211TIP3    H148828   3.623   5.670   1.880  1.5191  0.0354 -0.8390
 8211TIP3    H248829   3.484   5.675   1.820  0.4946 -0.9892  1.3175
 8212TIP3   OH248830   6.865   0.767   0.758 -0.3664  0.3157 -0.0710
 8212TIP3    H148831   6.822   0.847   0.729 -0.5630  0.3024  0.1879
 8212TIP3    H248832   6.794   0.709   0.783 -0.1827  0.4914  0.8704
 8213TIP3   OH248833   4.711   2.342   1.402 -0.2043 -0.9259  0.2071
 8213TIP3    H148834   4.761   2.423   1.411 -1.5252 -0.2320  1.7874
 8213TIP3    H248835   4.620   2.368   1.415 -0.8820 -2.3711 -1.2326
 8214TIP3   OH248836   7.490   4.263   1.787  0.2567 -0.5651 -0.5734
 8214TIP3    H148837   7.491   4.167   1.782  0.9429 -0.7134  1.4960
 8214TIP3    H248838   7.398   4.287   1.781  0.0588 -1.3726 -0.8296
 8215TIP3   OH248839   5.223   2.151   0.722 -0.3577 -0.4708 -0.2580
 8215TIP3    H148840   5.181   2.103   0.650 -0.8210  0.4973 -0.6451
 8215TIP3    H248841   5.314   2.120   0.722 -0.4655 -0.7952 -0.9769
 8216TIP3   OH248842   7.587   7.612   3.418  0.1451 -0.2161 -0.2884
 8216TIP3    H148843   7.563   7.574   3.333  0.1149 -0.9109  0.0210
 8216TIP3    H248844   7.628   7.695   3.396 -0.8164  0.1086 -0.9270
 8217TIP3   OH248845   2.255   2.639   1.451  0.0971  0.0986  0.1566
 8217TIP3    H148846   2.202   2.705   1.407 -1.1876  0.5850  2.2495
 8217TIP3    H248847   2.333   2.686   1.481  0.4639  0.0149 -0.6587
 8218TIP3   OH248848   3.398   1.533   1.625  0.1707  0.2589 -0.2690
 8218TIP3    H148849   3.341   1.603   1.596  0.6365  1.2285  1.0596
 8218TIP3    H248850   3.459   1.575   1.686 -0.4746 -1.5415  1.7560
 8219TIP3   OH248851   1.114   2.218   3.425 -0.6137 -0.1334  0.2394
 8219TIP3    H148852   1.205   2.233   3.449  0.6637 -3.8618 -1.3483
 8219TIP3    H248853   1.096   2.282   3.356  1.1977  0.0812 -0.0870
 8220TIP3   OH248854   6.452   6.174   0.862 -0.1930  0.1960 -0.3333
 8220TIP3    H148855   6.450   6.163   0.767  0.4970  0.8956 -0.4457
 8220TIP3    H248856   6.375   6.227   0.882  0.8594  2.0045 -0.8193
 8221TIP3   OH248857   3.440   5.572   2.370 -0.4036  0.2898  0.0216
 8221TIP3    H148858   3.462   5.479   2.380  1.1505  0.6079 -0.1303
 8221TIP3    H248859   3.493   5.601   2.296 -0.9689  1.2662 -0.0073
 8222TIP3   OH248860   6.473   3.020   0.959 -0.2741 -0.0855 -0.2816
 8222TIP3    H148861   6.426   2.999   1.040  2.2523 -2.7655  0.6573
 8222TIP3    H248862   6.544   3.077   0.986 -2.6332  3.8816 -1.6845
 8223TIP3   OH248863   3.813   1.049   2.242 -0.1776 -0.1576  0.4042
 8223TIP3    H148864   3.775   1.125   2.200  0.0022 -0.0670  0.4027
 8223TIP3    H248865   3.822   0.984   2.171  1.1906  0.3938  0.0319
 8224TIP3   OH248866   5.289   4.399   2.296 -0.1733 -0.2671  0.2680
 8224TIP3    H148867   5.314   4.367   2.383  0.8623 -0.9230 -0.2381
 8224TIP3    H248868   5.241   4.326   2.257  0.3084 -0.3935 -0.0989
 8225TIP3   OH248869   6.549   5.618   0.989  0.2867 -0.1193  0.3059
 8225TIP3    H148870   6.462   5.657   1.004  0.1053  0.4440 -1.8003
 8225TIP3    H248871   6.530   5.536   0.943  0.8631 -0.0352 -0.0863
 8226TIP3   OH248872   0.395   4.847   1.252  0.2996 -0.1057 -0.4178
 8226TIP3    H148873   0.389   4.819   1.344  1.8891 -1.2060 -0.6075
 8226TIP3    H248874   0.321   4.805   1.209 -0.6342  0.6632  0.4071
 8227TIP3   OH248875   6.831   3.333   2.931  0.0676 -0.2309 -0.6203
 8227TIP3    H148876   6.894   3.398   2.963 -0.2844 -0.3707  0.3764
 8227TIP3    H248877   6.841   3.336   2.836 -0.2860  1.6242 -0.6391
 8228TIP3   OH248878   6.728   7.606   2.600  0.1087 -0.3103 -0.1105
 8228TIP3    H148879   6.661   7.615   2.668 -1.1440 -0.4043 -1.2694
 8228TIP3    H248880   6.754   7.696   2.580 -0.2838 -0.2145 -0.2138
 8229TIP3   OH248881   1.091   3.865   2.455 -0.5537  0.0383 -0.3166
 8229TIP3    H148882   1.034   3.922   2.507  0.2563 -1.1286  2.0037
 8229TIP3    H248883   1.161   3.923   2.424  0.0191  0.4616  1.6181
 8230TIP3   OH248884   5.720   4.759   2.400  0.1195  0.7466 -0.2695
 8230TIP3    H148885   5.762   4.768   2.485  0.4913 -1.3144 -0.1756
 8230TIP3    H248886   5.626   4.765   2.419  0.1218 -1.0762  0.5642
 8231TIP3   OH248887   3.718   6.928   2.373  0.0184 -0.0462 -0.2715
 8231TIP3    H148888   3.783   6.993   2.348  0.5082 -0.1617  0.6410
 8231TIP3    H248889   3.730   6.856   2.311  0.1674  0.2997 -0.6464
 8232TIP3   OH248890   1.943   0.221   1.109  0.2657 -0.0660  0.0237
 8232TIP3    H148891   1.991   0.301   1.089 -1.5310  1.2040  0.4470
 8232TIP3    H248892   1.859   0.252   1.143 -0.1565 -2.1470  1.0615
 8233TIP3   OH248893   0.411   3.877   1.262  0.4632  0.7126  0.4600
 8233TIP3    H148894   0.485   3.929   1.293 -1.1350  2.2855  1.9098
 8233TIP3    H248895   0.384   3.826   1.338  0.1251  0.0815 -0.0752
 8234TIP3   OH248896   2.564   0.670   0.931 -0.3412 -0.1362 -0.1798
 8234TIP3    H148897   2.558   0.599   0.868 -1.3041  0.5830 -0.9259
 8234TIP3    H248898   2.616   0.737   0.886 -1.6524  0.6776 -0.5335
 8235TIP3   OH248899   6.591   3.118   2.118  0.5674 -0.0344 -0.1345
 8235TIP3    H148900   6.533   3.194   2.112  1.0193  0.2113 -2.0617
 8235TIP3    H248901   6.591   3.095   2.211 -0.2566  1.7778  0.3547
 8236TIP3   OH248902   6.597   0.040   3.128  0.5004 -0.5365  0.4219
 8236TIP3    H148903   6.562   0.127   3.108 -0.3137 -0.5115  1.7917
 8236TIP3    H248904   6.656   0.056   3.203  4.1648 -0.4486 -2.2013
 8237TIP3   OH248905   1.267   5.058   2.660  0.1076  0.6547  0.2216
 8237TIP3    H148906   1.226   5.016   2.736 -0.0419  1.8128  0.8159
 8237TIP3    H248907   1.333   5.116   2.699 -1.7212  3.2525 -0.3015
 8238TIP3   OH248908   6.642   5.418   1.523 -0.4656 -0.0936 -0.1077
 8238TIP3    H148909   6.627   5.406   1.429 -0.6811 -0.3971 -0.0335
 8238TIP3    H248910   6.737   5.424   1.532 -0.4255 -0.4521 -0.2965
 8239TIP3   OH248911   2.239   0.024   1.247  0.1145 -0.2717 -0.3699
 8239TIP3    H148912   2.310   0.089   1.246  1.0787 -1.2461 -2.6605
 8239TIP3    H248913   2.239  -0.010   1.336  1.0445  1.3179  0.2808
 8240TIP3   OH248914   6.450   1.654   1.381 -0.5246  0.1044 -0.2481
 8240TIP3    H148915   6.454   1.694   1.294 -0.4612  1.4192  0.3305
 8240TIP3    H248916   6.535   1.674   1.420 -1.1440  1.0057  0.7120
 8241TIP3   OH248917   6.291   7.586   2.198 -0.1526  0.1655  0.1781
 8241TIP3    H148918   6.213   7.552   2.155 -0.0494  0.5936 -0.3545
 8241TIP3    H248919   6.306   7.671   2.157  1.4959 -0.5758 -0.8228
 8242TIP3   OH248920   4.935   6.384   0.914 -0.8819  0.4074  0.2455
 8242TIP3    H148921   4.891   6.423   0.838 -0.9664  0.4790  0.3316
 8242TIP3    H248922   5.025   6.417   0.909 -0.8259  0.2279  0.0455
 8243TIP3   OH248923   0.476   6.628   1.992 -0.5643  0.3931 -0.7773
 8243TIP3    H148924   0.564   6.665   1.992 -0.4504  0.1602  0.5762
 8243TIP3    H248925   0.435   6.662   1.912  1.4146 -1.1661 -2.5752
 8244TIP3   OH248926   2.896   0.554   0.846 -0.7349 -0.1353  0.3050
 8244TIP3    H148927   2.847   0.509   0.915  1.2590 -2.0977  0.5585
 8244TIP3    H248928   2.832   0.571   0.777 -2.6647  1.3634  2.3432
 8245TIP3   OH248929   1.047   1.470   1.330 -0.0623 -0.1133 -0.3314
 8245TIP3    H148930   0.992   1.393   1.319  0.9916 -0.8829 -0.3799
 8245TIP3    H248931   1.113   1.463   1.261  0.7852  0.1701  0.4341
 8246TIP3   OH248932   1.902   1.616   2.573  0.0780  0.0934 -0.2500
 8246TIP3    H148933   1.847   1.682   2.616 -0.7314  0.3522 -1.6422
 8246TIP3    H248934   1.938   1.660   2.496  0.3484 -0.7885 -0.6491
 8247TIP3   OH248935   4.168   1.590   2.513 -0.6724 -0.1558  0.0089
 8247TIP3    H148936   4.203   1.596   2.423 -1.8738 -3.2504 -0.7696
 8247TIP3    H248937   4.074   1.604   2.503 -0.6924  0.5408  0.9991
 8248TIP3   OH248938   7.564   6.359   1.415  0.3832  0.5186  0.5970
 8248TIP3    H148939   7.489   6.306   1.444  1.5202 -2.2552 -1.0490
 8248TIP3    H248940   7.623   6.360   1.490  0.5503 -1.1204  0.5352
 8249TIP3   OH248941   6.511   4.944   2.007  0.1048 -0.8971 -0.0422
 8249TIP3    H148942   6.430   4.925   2.055  0.9291 -0.6507  1.5136
 8249TIP3    H248943   6.516   5.039   2.006 -0.5814 -0.8472 -1.8592
 8250TIP3   OH248944   5.966   1.883   1.598 -0.0791  0.0545  0.5617
 8250TIP3    H148945   5.932   1.918   1.680 -0.1188 -1.0838  1.0402
 8250TIP3    H248946   5.922   1.799   1.586 -0.1392  0.2322 -0.6754
 8251TIP3   OH248947   2.054   6.337   2.652 -0.3095  0.2335  0.0545
 8251TIP3    H148948   2.118   6.409   2.655 -1.6935  1.5434 -0.2186
 8251TIP3    H248949   2.002   6.349   2.732 -0.0008 -1.0575  0.4773
 8252TIP3   OH248950   5.579   3.427   0.884 -0.3577  0.3522 -0.1557
 8252TIP3    H148951   5.631   3.357   0.844 -0.5346 -0.1093  0.4123
 8252TIP3    H248952   5.489   3.406   0.861 -0.4483  0.1541  0.3779
 8253TIP3   OH248953   5.237   6.796   1.257 -0.0624 -0.0700 -0.1408
 8253TIP3    H148954   5.313   6.831   1.305 -0.3048  2.2197 -1.2688
 8253TIP3    H248955   5.163   6.814   1.315 -0.2738  2.0944 -0.9895
 8254TIP3   OH248956   0.158   1.993   2.562 -0.1409 -0.6104  0.1629
 8254TIP3    H148957   0.150   1.914   2.509 -1.1460 -0.2048 -0.3322
 8254TIP3    H248958   0.220   2.048   2.514  0.0456 -0.8289  0.1542
 8255TIP3   OH248959   0.632   5.770   2.233 -0.5895  0.1300  0.4279
 8255TIP3    H148960   0.623   5.780   2.328  1.5225 -1.0622  0.8163
 8255TIP3    H248961   0.583   5.691   2.212 -0.2308 -0.1621  0.6902
 8256TIP3   OH248962   4.395   3.923   1.070 -0.0174  0.3044  0.2567
 8256TIP3    H148963   4.489   3.906   1.067  0.0190  0.3892  0.7831
 8256TIP3    H248964   4.365   3.880   1.150 -0.1543  1.5930  0.9246
 8257TIP3   OH248965   2.807   7.280   3.415  0.0328  0.0390  0.8374
 8257TIP3    H148966   2.805   7.189   3.385  0.0859  0.8265 -1.8475
 8257TIP3    H248967   2.717   7.299   3.441  0.0072 -0.7331  1.3615
 8258TIP3   OH248968   2.303   3.173   0.642 -0.2517  0.4216 -0.4178
 8258TIP3    H148969   2.216   3.197   0.674 -0.8195 -0.6768 -1.0463
 8258TIP3    H248970   2.361   3.242   0.673 -1.3545  1.1746  0.0131
 8259TIP3   OH248971   6.566   6.775   0.694  0.4215 -0.0282  0.0283
 8259TIP3    H148972   6.609   6.699   0.735  0.3185 -0.1443 -0.0782
 8259TIP3    H248973   6.637   6.823   0.652  0.3937 -0.4502 -0.5123
 8260TIP3   OH248974   3.521   0.290   2.795  0.4587  0.2522 -0.3755
 8260TIP3    H148975   3.586   0.344   2.750  1.8931 -0.4407  0.8097
 8260TIP3    H248976   3.483   0.348   2.861 -0.0960  0.6198 -0.9914
 8261TIP3   OH248977   4.346   5.416   1.237  0.6697  0.0874 -0.3928
 8261TIP3    H148978   4.337   5.492   1.179  0.3879  1.9708  1.9329
 8261TIP3    H248979   4.440   5.401   1.242  0.8920  1.5046  0.4757
 8262TIP3   OH248980   3.041   5.842   2.701 -0.1708 -0.5103  0.8088
 8262TIP3    H148981   2.993   5.913   2.659 -0.0349  0.3343  2.0500
 8262TIP3    H248982   2.974   5.777   2.722 -0.6276  0.1651  1.5125
 8263TIP3   OH248983   6.087   5.675   2.694  0.1296 -0.1638 -0.4770
 8263TIP3    H148984   6.085   5.613   2.767 -1.2313 -0.6548 -0.9099
 8263TIP3    H248985   6.029   5.746   2.721 -0.2614 -0.2745 -1.0093
 8264TIP3   OH248986   2.802   7.459   3.619 -0.4000 -0.7410 -0.0234
 8264TIP3    H148987   2.750   7.527   3.575  0.2268  0.6270  1.2621
 8264TIP3    H248988   2.813   7.391   3.552 -0.4125  0.7451 -1.6291
 8265TIP3   OH248989   1.480   3.868   0.519 -0.3333 -0.0286 -0.4075
 8265TIP3    H148990   1.458   3.778   0.544 -0.0099  0.3064  1.1618
 8265TIP3    H248991   1.402   3.919   0.542 -1.3981 -0.1794 -3.3180
 8266TIP3   OH248992   5.083   5.862   2.208  0.3181 -0.6102  0.2197
 8266TIP3    H148993   4.992   5.835   2.194  0.0332  0.1440  0.5771
 8266TIP3    H248994   5.079   5.957   2.220  1.1885 -0.5279 -0.0395
 8267TIP3   OH248995   7.362   2.936   2.975  0.6130 -0.1318  0.1680
 8267TIP3    H148996   7.313   2.858   3.002  0.2372  0.1467  0.2915
 8267TIP3    H248997   7.299   3.008   2.983  0.9136  0.1614 -0.0939
 8268TIP3   OH248998   2.239   7.046   2.821 -0.0684 -0.1173  0.0446
 8268TIP3    H148999   2.255   6.977   2.885  1.5004 -0.7276 -0.9819
 8268TIP3    H249000   2.318   7.100   2.824 -0.3317  0.3220 -0.7998
 8269TIP3   OH249001   0.754   3.812   1.435  0.2806 -0.3120 -0.1231
 8269TIP3    H149002   0.792   3.832   1.349  1.8929 -0.5483  0.5015
 8269TIP3    H249003   0.820   3.843   1.498 -0.7169 -0.4704  1.0279
 8270TIP3   OH249004   1.192   1.185   1.413  0.0989 -0.3267 -0.6759
 8270TIP3    H149005   1.163   1.121   1.478 -0.8077 -1.4695 -2.1618
 8270TIP3    H249006   1.174   1.270   1.454  1.5929 -0.9376  1.4585
 8271TIP3   OH249007   3.042   1.725   3.126  0.1598 -0.2072  0.1627
 8271TIP3    H149008   3.136   1.732   3.140  0.1912  0.2841 -0.2976
 8271TIP3    H249009   3.023   1.784   3.054 -0.2947 -1.3548 -0.6945
 8272TIP3   OH249010   1.844   6.636   3.059 -0.4849  0.5398  0.4563
 8272TIP3    H149011   1.849   6.560   3.117 -1.9453  0.8128  0.9788
 8272TIP3    H249012   1.818   6.708   3.115  0.0361  1.2535 -0.1963
 8273TIP3   OH249013   0.551   4.086   1.444 -0.5299 -0.0913 -0.0803
 8273TIP3    H149014   0.561   4.179   1.424 -0.4154  0.0712  0.7050
 8273TIP3    H249015   0.481   4.083   1.510  0.6957 -0.3656  1.2695
 8274TIP3   OH249016   6.155   2.257   1.519  0.0384  0.5741  0.0718
 8274TIP3    H149017   6.167   2.237   1.612  1.5384  0.3780 -0.1391
 8274TIP3    H249018   6.097   2.333   1.519  0.4994  0.9611  1.2089
 8275TIP3   OH249019   3.494   4.261   2.520 -0.7849 -0.3640 -0.2099
 8275TIP3    H149020   3.423   4.226   2.465 -1.1283  0.9730 -0.6642
 8275TIP3    H249021   3.502   4.352   2.492 -0.3025  0.0838  1.3027
 8276TIP3   OH249022   1.199   5.069   1.905  0.3131  0.5189  0.0875
 8276TIP3    H149023   1.238   5.131   1.843 -0.5867  0.5441 -0.4776
 8276TIP3    H249024   1.194   5.118   1.988  0.6146  0.8238 -0.0720
 8277TIP3   OH249025   0.079   1.799   0.897  0.1410 -0.0727 -0.2742
 8277TIP3    H149026   0.052   1.720   0.943 -0.9454  0.3400 -0.1714
 8277TIP3    H249027   0.090   1.770   0.806 -1.5011 -0.1182 -0.5012
 8278TIP3   OH249028   4.799   4.731   2.179 -0.0486  0.3650  1.2606
 8278TIP3    H149029   4.894   4.743   2.170  0.2035 -2.2456 -1.0221
 8278TIP3    H249030   4.790   4.656   2.239 -0.6698  0.5004  1.3437
 8279TIP3   OH249031   6.787   0.901   2.240 -0.1177 -0.4305 -0.6153
 8279TIP3    H149032   6.864   0.922   2.292 -0.4206 -0.0002 -0.3276
 8279TIP3    H249033   6.806   0.816   2.201  1.1884  0.3876 -1.8540
 8280TIP3   OH249034   0.872   2.664   1.228  0.5433  0.5835  0.3321
 8280TIP3    H149035   0.809   2.646   1.298  0.2557  1.4696  0.3206
 8280TIP3    H249036   0.913   2.580   1.209 -2.0670 -0.4578 -1.0620
 8281TIP3   OH249037   2.718   6.710   2.461 -0.6925  0.1979 -0.5783
 8281TIP3    H149038   2.624   6.700   2.451 -1.2090 -0.8947  3.5663
 8281TIP3    H249039   2.729   6.793   2.508  0.3555  0.0655 -0.5523
 8282TIP3   OH249040   3.354   3.025   2.784 -0.1492 -0.3153  0.1400
 8282TIP3    H149041   3.405   2.954   2.744 -1.5474 -0.3473 -1.7061
 8282TIP3    H249042   3.378   3.022   2.877  1.3479 -1.8828 -0.2446
 8283TIP3   OH249043   0.916   1.675   1.512 -0.0236  0.1073 -0.1286
 8283TIP3    H149044   0.945   1.597   1.464  0.6523  0.6684 -0.6659
 8283TIP3    H249045   0.972   1.745   1.478 -1.9613  1.2404 -1.1433
 8284TIP3   OH249046   0.710   7.002   0.656  0.1048 -0.2059 -0.0620
 8284TIP3    H149047   0.764   6.994   0.734  1.4699  0.7089 -0.8744
 8284TIP3    H249048   0.773   7.004   0.583 -0.9738  1.3382 -1.0076
 8285TIP3   OH249049   1.564   5.077   1.780  0.1672  0.4342 -0.5486
 8285TIP3    H149050   1.504   5.113   1.715 -0.9696 -0.5052 -0.0504
 8285TIP3    H249051   1.572   5.144   1.847  0.3163  0.8804 -1.0099
 8286TIP3   OH249052   2.889   4.388   0.631 -0.2475 -0.4135  0.0013
 8286TIP3    H149053   2.827   4.447   0.589  1.2306  0.4334 -1.0795
 8286TIP3    H249054   2.935   4.442   0.695  0.4766 -0.6185 -0.3353
 8287TIP3   OH249055   4.066   1.081   1.352  0.4742  0.4849  0.5528
 8287TIP3    H149056   3.993   1.128   1.391 -0.9611  0.1002 -1.5487
 8287TIP3    H249057   4.057   0.992   1.385  0.1727  0.4997  0.5118
 8288TIP3   OH249058   0.288   0.287   2.701 -0.3699 -0.1054 -0.1671
 8288TIP3    H149059   0.302   0.202   2.660 -0.0417  0.5829 -1.5381
 8288TIP3    H249060   0.307   0.351   2.632 -1.1570  1.0745  0.6666
 8289TIP3   OH249061   3.874   2.984   3.488 -0.4292  0.7786 -0.4683
 8289TIP3    H149062   3.789   2.954   3.521  0.0011  0.0476 -0.0047
 8289TIP3    H249063   3.929   2.906   3.489  0.5017  1.4214  0.0219
 8290TIP3   OH249064   0.371   5.583   1.149  0.1487  0.0241  0.0200
 8290TIP3    H149065   0.305   5.651   1.148 -0.2042 -0.3148 -0.2823
 8290TIP3    H249066   0.340   5.519   1.213  1.4484  1.0650  1.7828
 8291TIP3   OH249067   0.189   5.613   2.572 -0.4008  0.3326  0.1476
 8291TIP3    H149068   0.217   5.607   2.481 -1.3456 -0.8704 -0.0885
 8291TIP3    H249069   0.096   5.635   2.568 -0.5888 -0.2865  0.8015
 8292TIP3   OH249070   1.919   6.026   1.183 -0.5371  0.4808 -0.1076
 8292TIP3    H149071   1.970   6.085   1.127 -0.8268  0.8241 -0.0072
 8292TIP3    H249072   1.897   6.078   1.260  0.1130 -0.0732  0.4779
 8293TIP3   OH249073   1.013   1.071   0.964 -0.7647 -0.4536  0.5056
 8293TIP3    H149074   1.027   1.081   1.058 -0.0884 -1.7677  0.5682
 8293TIP3    H249075   0.957   0.995   0.956 -0.5903 -0.5194 -0.1701
 8294TIP3   OH249076   3.005   6.405   0.933  0.5337 -0.0872 -0.1968
 8294TIP3    H149077   2.936   6.470   0.922 -0.8489 -1.6000 -0.8745
 8294TIP3    H249078   3.069   6.426   0.865  0.5015  1.0110  0.0934
 8295TIP3   OH249079   5.713   3.202   0.800 -0.7362 -0.4998  0.8316
 8295TIP3    H149080   5.786   3.155   0.841  0.2987 -0.4448 -0.8526
 8295TIP3    H249081   5.650   3.133   0.779  0.0695 -0.9600 -0.1796
 8296TIP3   OH249082   6.878   2.810   0.963 -0.7883 -0.0291 -0.3683
 8296TIP3    H149083   6.834   2.833   1.045  1.9661  0.8283  1.0023
 8296TIP3    H249084   6.870   2.889   0.909 -0.3464  0.3746  0.1455
 8297TIP3   OH249085   5.432   2.561   2.712 -0.0271  0.5064  0.1790
 8297TIP3    H149086   5.453   2.481   2.664 -2.8481 -0.8000  0.9395
 8297TIP3    H249087   5.497   2.563   2.783  0.0023 -1.2014  0.2446
 8298TIP3   OH249088   0.965   1.565   0.781 -0.1293  0.3782  0.1283
 8298TIP3    H149089   0.902   1.530   0.845 -1.1537  0.0889 -0.9946
 8298TIP3    H249090   1.015   1.489   0.753 -0.2569  0.3492 -0.0258
 8299TIP3   OH249091   7.330   1.303   3.082 -0.1931 -0.1782 -0.3543
 8299TIP3    H149092   7.406   1.359   3.097  0.6379 -1.3343 -0.1678
 8299TIP3    H249093   7.277   1.352   3.019  0.4957  0.8236 -0.1788
 8300TIP3   OH249094   5.049   1.654   2.491 -0.6401 -0.2238  0.0164
 8300TIP3    H149095   5.013   1.686   2.408 -1.5163 -0.7648  0.1783
 8300TIP3    H249096   5.140   1.685   2.490 -0.2350 -1.2888 -1.7393
 8301TIP3   OH249097   6.164   3.311   0.835 -0.1337 -0.2665 -0.1346
 8301TIP3    H149098   6.254   3.302   0.803  0.3583  0.4723  0.9590
 8301TIP3    H249099   6.174   3.324   0.929 -1.4914 -1.9204  0.2786
 8302TIP3   OH249100   3.042   3.038   1.269 -0.0343 -0.2700  0.6799
 8302TIP3    H149101   3.027   3.128   1.238 -0.8547  0.0009  1.7834
 8302TIP3    H249102   3.133   3.020   1.248 -0.7016 -0.4922 -2.7457
 8303TIP3   OH249103   7.532   3.029   1.781  0.5227 -0.1246 -0.3489
 8303TIP3    H149104   7.562   3.095   1.719  2.0139  0.8173  1.2719
 8303TIP3    H249105   7.455   2.990   1.740  0.7487  1.2713 -2.2191
 8304TIP3   OH249106   3.894   2.133   3.526  0.2867 -0.1112 -0.2034
 8304TIP3    H149107   3.943   2.055   3.551  0.5336 -0.1100 -0.6688
 8304TIP3    H249108   3.955   2.182   3.470 -0.5214 -0.5014 -1.4592
 8305TIP3   OH249109   2.628   2.563   2.751  0.3270 -0.0597  0.2859
 8305TIP3    H149110   2.716   2.538   2.777 -0.2414 -0.4976  1.9103
 8305TIP3    H249111   2.626   2.552   2.656  2.1698  0.4945  0.1606
 8306TIP3   OH249112   5.964   2.101   1.381  0.5848  0.1511 -0.2830
 8306TIP3    H149113   5.931   2.020   1.420 -0.6593  1.1135  0.7618
 8306TIP3    H249114   6.034   2.129   1.441 -0.1526  0.7243  0.3307
 8307TIP3   OH249115   1.114   0.706   2.168 -0.2505 -0.3600 -0.3903
 8307TIP3    H149116   1.106   0.677   2.077 -0.0171  1.0160 -0.8708
 8307TIP3    H249117   1.192   0.760   2.169 -0.6603  0.2377  0.4616
 8308TIP3   OH249118   5.589   0.223   2.443 -0.0170 -0.3482  0.0461
 8308TIP3    H149119   5.495   0.206   2.440  0.2484 -2.3771  1.0091
 8308TIP3    H249120   5.627   0.139   2.470  2.0945  0.3546 -0.5509
 8309TIP3   OH249121   1.902   1.290   0.477  0.0954 -0.6599  0.0394
 8309TIP3    H149122   1.845   1.342   0.533  1.1121 -1.2442  1.6997
 8309TIP3    H249123   1.882   1.319   0.388 -0.4530  1.4465  0.7956
 8310TIP3   OH249124   0.999   6.510   2.849  0.3383 -0.3977  0.1481
 8310TIP3    H149125   0.973   6.598   2.876  1.5631 -0.0144  0.1495
 8310TIP3    H249126   1.003   6.514   2.754 -1.3397 -0.9784  0.0281
 8311TIP3   OH249127   0.785   4.198   2.757 -0.4561  0.1384 -0.3557
 8311TIP3    H149128   0.691   4.192   2.740 -0.5997  0.1049  0.3924
 8311TIP3    H249129   0.791   4.223   2.849  0.2704  0.2581 -0.4251
 8312TIP3   OH249130   5.936   5.429   1.624  0.6254 -0.2667 -0.6463
 8312TIP3    H149131   5.870   5.400   1.561  0.8767 -1.7532 -0.2741
 8312TIP3    H249132   6.001   5.475   1.571  0.1621 -0.3252 -1.2794
 8313TIP3   OH249133   1.775   1.654   1.612 -0.2496 -0.2940  0.2409
 8313TIP3    H149134   1.726   1.699   1.544 -0.3089  2.1181  1.7606
 8313TIP3    H249135   1.866   1.656   1.581 -0.2858  0.7118  0.1468
 8314TIP3   OH249136   4.548   4.378   2.898  0.0245 -0.8239 -0.6041
 8314TIP3    H149137   4.619   4.353   2.838  0.3845  0.2461 -0.6598
 8314TIP3    H249138   4.483   4.419   2.842  0.3371  0.1339 -0.2843
 8315TIP3   OH249139   4.733   5.387   2.615 -0.3066 -0.3237 -0.3119
 8315TIP3    H149140   4.741   5.376   2.709 -1.2969  0.1686 -0.1496
 8315TIP3    H249141   4.639   5.375   2.597 -0.0099 -1.2714 -1.3533
 8316TIP3   OH249142   0.921   2.131   3.872 -0.5453  0.3312  0.5010
 8316TIP3    H149143   0.828   2.155   3.871 -0.7776 -0.5111 -0.7488
 8316TIP3    H249144   0.961   2.185   3.805 -0.3263 -0.0288  0.3395
 8317TIP3   OH249145   3.571   4.874   1.736 -0.3863  0.0225 -0.3496
 8317TIP3    H149146   3.588   4.962   1.771 -0.7574 -0.3792  0.8995
 8317TIP3    H249147   3.493   4.884   1.682 -1.6084  0.1207  1.3588
 8318TIP3   OH249148   2.692   2.539   2.047  0.2199 -0.5591  0.0863
 8318TIP3    H149149   2.757   2.587   2.099 -1.7945  1.3149  1.0644
 8318TIP3    H249150   2.610   2.549   2.097 -1.1100 -1.6533 -1.7565
 8319TIP3   OH249151   3.910   6.810   1.527  0.7765  0.1653  0.3578
 8319TIP3    H149152   3.886   6.809   1.620  1.5118  1.0312  0.5734
 8319TIP3    H249153   3.828   6.830   1.482  0.4433 -0.1105  0.8265
 8320TIP3   OH249154   3.702   2.116   1.637 -0.4475  0.5303 -0.4701
 8320TIP3    H149155   3.679   2.082   1.724 -0.8918  0.7805 -0.4845
 8320TIP3    H249156   3.621   2.158   1.606 -0.0667  1.1217 -0.6794
 8321TIP3   OH249157   3.915   5.835   0.990  0.7426 -0.4116  0.2891
 8321TIP3    H149158   3.933   5.783   1.068  0.6795 -0.3570  0.3405
 8321TIP3    H249159   3.993   5.891   0.981 -0.7589  2.2979  2.5046
 8322TIP3   OH249160   3.527   5.550   2.117  0.4045 -0.3721  0.4416
 8322TIP3    H149161   3.593   5.482   2.106  0.0230 -0.7528  0.4646
 8322TIP3    H249162   3.449   5.514   2.075 -0.0588 -0.3315  1.2595
 8323TIP3   OH249163   2.397   3.266   1.207  0.0605  0.2404 -0.3789
 8323TIP3    H149164   2.428   3.179   1.180  1.1186  0.0135  1.3974
 8323TIP3    H249165   2.415   3.270   1.301 -1.7409  1.6723 -0.0366
 8324TIP3   OH249166   4.465   7.018   2.415 -0.2122 -0.0229  0.0750
 8324TIP3    H149167   4.370   7.026   2.421 -0.1826 -0.5188  1.4998
 8324TIP3    H249168   4.485   7.042   2.324 -1.6002  0.8998 -0.0160
 8325TIP3   OH249169   7.369   5.947   0.911 -0.1228 -0.0782  0.1441
 8325TIP3    H149170   7.323   5.968   0.992  0.7971 -0.3234  0.7393
 8325TIP3    H249171   7.310   5.977   0.842 -0.8217  0.3279  0.8995
 8326TIP3   OH249172   2.291   5.251   1.956 -0.0153  0.0181  0.0104
 8326TIP3    H149173   2.240   5.229   1.878  1.1095  2.1615 -1.4006
 8326TIP3    H249174   2.382   5.251   1.926  0.6338 -1.0370  1.8267
 8327TIP3   OH249175   3.041   3.496   2.428 -0.3287  0.4433  0.0689
 8327TIP3    H149176   3.017   3.516   2.338  1.3920  1.1726 -0.2864
 8327TIP3    H249177   2.965   3.521   2.480 -1.3456 -0.0007 -1.1733
 8328TIP3   OH249178   0.448   4.477   1.915 -0.4270  0.3982 -0.5244
 8328TIP3    H149179   0.411   4.514   1.995  0.0414 -0.1210 -0.0567
 8328TIP3    H249180   0.513   4.414   1.946 -0.7772 -0.3589 -1.3126
 8329TIP3   OH249181   0.905   3.788   1.190  0.1674 -0.1443  0.0691
 8329TIP3    H149182   0.985   3.752   1.151  0.8654 -0.8883  2.0515
 8329TIP3    H249183   0.835   3.730   1.160  0.4223  0.1444 -1.1754
 8330TIP3   OH249184   7.490   2.336   1.796 -0.0519 -0.5498 -0.3398
 8330TIP3    H149185   7.484   2.431   1.803 -0.8640 -0.6631  0.8631
 8330TIP3    H249186   7.425   2.312   1.730 -1.1162 -0.3922  0.6244
 8331TIP3   OH249187   5.079   5.103   1.792  0.5311 -0.4640  0.1626
 8331TIP3    H149188   5.051   5.024   1.747 -1.4528  0.0964  0.3364
 8331TIP3    H249189   5.125   5.070   1.870  2.6871 -1.4136 -1.4055
 8332TIP3   OH249190   4.641   4.232   1.278 -0.1758  0.0137  0.2228
 8332TIP3    H149191   4.666   4.199   1.192 -1.4640 -0.2521 -0.0619
 8332TIP3    H249192   4.713   4.290   1.303  0.5436 -0.4476 -0.7126
 8333TIP3   OH249193   4.963   4.740   3.099 -0.1549  0.7273  0.3773
 8333TIP3    H149194   4.992   4.667   3.154 -2.0570 -1.5204 -1.3977
 8333TIP3    H249195   5.044   4.787   3.078  1.4996 -2.0232  0.0694
 8334TIP3   OH249196   1.355   0.818   0.823 -0.4261  0.6476  0.9185
 8334TIP3    H149197   1.435   0.866   0.845  2.0387 -2.3233 -0.7542
 8334TIP3    H249198   1.323   0.785   0.907 -0.9636  3.1956  1.8214
 8335TIP3   OH249199   4.309   5.458   1.697  0.1915 -0.2219 -0.5926
 8335TIP3    H149200   4.262   5.479   1.616 -0.3351 -0.8278 -0.4558
 8335TIP3    H249201   4.304   5.362   1.703  1.3245 -0.2910 -0.4938
 8336TIP3   OH249202   4.790   0.723   7.511  0.4817 -0.3079 -0.0385
 8336TIP3    H149203   4.771   0.631   7.493 -0.7388 -0.1737  0.4593
 8336TIP3    H249204   4.808   0.761   7.425  0.1096 -0.8226 -0.3506
 8337TIP3   OH249205   1.473   0.189   3.349 -0.0981 -0.4143  0.1005
 8337TIP3    H149206   1.469   0.178   3.444  0.8931  0.9933  0.3426
 8337TIP3    H249207   1.452   0.281   3.334 -0.0550 -0.5646 -1.0401
 8338TIP3   OH249208   7.000   7.290   2.337  0.3622 -0.3032  0.0841
 8338TIP3    H149209   6.987   7.378   2.374 -0.4724 -0.1774 -0.4967
 8338TIP3    H249210   6.981   7.231   2.410 -0.7322 -0.0426  0.0145
 8339TIP3   OH249211   0.500   1.150   0.697  0.3710  0.8978  0.3785
 8339TIP3    H149212   0.508   1.174   0.605  2.2593 -0.3037  0.1713
 8339TIP3    H249213   0.428   1.086   0.698  0.4082  0.8346 -0.2668
 8340TIP3   OH249214   0.956   7.343   3.745 -0.5704  0.0415  0.3748
 8340TIP3    H149215   0.947   7.285   3.821  0.6826 -1.9402 -0.9013
 8340TIP3    H249216   0.866   7.373   3.727 -1.1037 -0.7135  1.6755
 8341TIP3   OH249217   3.761   0.292   0.791  0.5453 -0.0011 -0.2399
 8341TIP3    H149218   3.704   0.263   0.862 -0.5712  0.0233 -1.0956
 8341TIP3    H249219   3.801   0.372   0.824  1.4300 -0.9365  1.0349
 8342TIP3   OH249220   0.163   1.048   2.645  0.0240 -0.0153 -0.6467
 8342TIP3    H149221   0.220   1.059   2.722  0.2963 -0.0022 -0.8473
 8342TIP3    H249222   0.189   1.119   2.586 -0.8053  0.5187 -0.3825
 8343TIP3   OH249223   5.542   2.323   1.472  1.3968 -0.3815  0.1508
 8343TIP3    H149224   5.524   2.296   1.382 -0.0012 -0.1571  0.3530
 8343TIP3    H249225   5.552   2.241   1.520 -0.6745 -0.5668  0.3304
 8344TIP3   OH249226   3.125   7.655   1.341  0.8418  0.8705 -0.0795
 8344TIP3    H149227   3.220   7.662   1.330  0.9754  3.8310  1.8031
 8344TIP3    H249228   3.090   7.660   1.252  2.3951  0.3972 -0.7511
 8345TIP3   OH249229   0.481   1.703   2.936  0.1738 -0.6789  0.3519
 8345TIP3    H149230   0.455   1.624   2.890  0.9310 -1.4675  1.2330
 8345TIP3    H249231   0.409   1.720   2.997 -1.1605  0.7634 -1.5035
 8346TIP3   OH249232   5.130   0.162   2.791  0.4868 -0.2283  0.3210
 8346TIP3    H149233   5.174   0.141   2.874  0.4375 -2.4020 -0.1338
 8346TIP3    H249234   5.143   0.083   2.737 -2.2889 -0.1967 -0.5361
 8347TIP3   OH249235   0.650   3.268   1.583  0.7041 -0.0976 -0.2444
 8347TIP3    H149236   0.729   3.218   1.602  1.6864  1.4198 -0.2051
 8347TIP3    H249237   0.679   3.338   1.525 -0.8713 -0.2727 -1.3314
 8348TIP3   OH249238   0.802   0.511   6.851 -1.0741 -0.3726  0.4898
 8348TIP3    H149239   0.710   0.537   6.844 -1.4387 -1.3173  1.5370
 8348TIP3    H249240   0.804   0.419   6.826 -0.2201 -0.0928 -0.5781
 8349TIP3   OH249241   1.940   0.636   1.727  0.8189 -0.2969  0.0218
 8349TIP3    H149242   1.989   0.718   1.735 -0.4789  0.5102  0.0286
 8349TIP3    H249243   1.889   0.646   1.647  0.3546 -0.9476  0.2270
 8350TIP3   OH249244   7.430   4.597   0.810 -0.5646 -0.2183 -0.2173
 8350TIP3    H149245   7.379   4.566   0.735 -1.3124 -0.2909  0.3116
 8350TIP3    H249246   7.381   4.672   0.843 -0.4405 -0.4135  0.4199
 8351TIP3   OH249247   6.300   5.055   1.803  0.3697  0.1950 -0.0335
 8351TIP3    H149248   6.380   5.042   1.752 -0.3844 -1.4579 -0.8658
 8351TIP3    H249249   6.246   5.113   1.749  1.7143  3.0650  1.4326
 8352TIP3   OH249250   4.477   1.451   1.647  0.2332 -0.1846  0.5017
 8352TIP3    H149251   4.534   1.525   1.625 -0.6435  0.3545 -0.0017
 8352TIP3    H249252   4.427   1.435   1.567  0.0313 -0.9799  0.7800
 8353TIP3   OH249253   4.753   1.999   1.757  0.0955 -0.1136 -0.0659
 8353TIP3    H149254   4.791   1.912   1.767  1.7526  0.6769  0.8421
 8353TIP3    H249255   4.669   1.993   1.802 -0.2204 -1.4671 -0.7669
 8354TIP3   OH249256   0.280   2.923   2.273  0.3641 -0.1644  0.2112
 8354TIP3    H149257   0.277   2.980   2.350  0.6740 -1.0092  0.8612
 8354TIP3    H249258   0.195   2.936   2.230  0.0621  0.0845  0.8684
 8355TIP3   OH249259   2.453   3.921   2.008 -0.4635  0.3836 -0.4219
 8355TIP3    H149260   2.489   3.931   1.920 -2.2992  0.6906 -1.1680
 8355TIP3    H249261   2.469   3.829   2.031  0.8647  0.5278 -0.6461
 8356TIP3   OH249262   5.421   4.163   1.726 -0.6496 -0.0675  0.4810
 8356TIP3    H149263   5.407   4.256   1.746 -1.4410 -0.1189  0.2171
 8356TIP3    H249264   5.505   4.161   1.680  0.6165  0.1979  2.6389
 8357TIP3   OH249265   7.432   7.172   1.918 -0.1368 -0.1907 -0.1211
 8357TIP3    H149266   7.491   7.234   1.877 -0.4569  0.0475 -0.2302
 8357TIP3    H249267   7.349   7.182   1.870  0.4054 -2.2843 -1.6663
 8358TIP3   OH249268   2.017   4.681   0.875  0.0243 -0.0052  0.2889
 8358TIP3    H149269   1.960   4.695   0.951  1.5852  0.8947  1.3692
 8358TIP3    H249270   1.959   4.687   0.800 -1.5145 -0.4933  1.3810
 8359TIP3   OH249271   1.567   4.221   1.941  0.1439  0.3041  0.3801
 8359TIP3    H149272   1.577   4.207   2.035  0.4288  0.9345  0.4517
 8359TIP3    H249273   1.650   4.261   1.914 -0.2398  0.8578  0.0080
 8360TIP3   OH249274   2.336   1.960   2.467  0.2805  0.3619 -0.2644
 8360TIP3    H149275   2.322   2.052   2.443 -0.8912  0.1911 -0.3044
 8360TIP3    H249276   2.311   1.911   2.388  0.7057 -0.0081 -0.1739
 8361TIP3   OH249277   2.457   3.863   0.746 -0.2616 -0.2419 -0.2744
 8361TIP3    H149278   2.539   3.906   0.723  0.5650 -1.8101 -0.3556
 8361TIP3    H249279   2.392   3.933   0.744  0.9513  0.9026 -0.8476
 8362TIP3   OH249280   4.161   1.575   0.845 -0.2562  0.4097 -0.2293
 8362TIP3    H149281   4.087   1.609   0.895  1.0069  0.7775  1.4504
 8362TIP3    H249282   4.137   1.484   0.827 -0.9127  0.3895  0.6863
 8363TIP3   OH249283   5.259   4.923   1.284 -0.2006 -0.5651  0.1378
 8363TIP3    H149284   5.349   4.932   1.315  0.4977 -1.4328 -1.5142
 8363TIP3    H249285   5.228   5.013   1.274 -0.0009 -0.2597  1.9661
 8364TIP3   OH249286   3.695   5.324   2.073  0.4455 -0.1064 -0.3234
 8364TIP3    H149287   3.695   5.276   2.156 -0.7052  3.2675  1.8356
 8364TIP3    H249288   3.785   5.321   2.043  1.0832 -0.7300  1.5176
 8365TIP3   OH249289   2.490   5.081   2.286  0.1515  0.6154 -0.3702
 8365TIP3    H149290   2.418   5.045   2.234  0.2861 -1.3826  0.7651
 8365TIP3    H249291   2.529   5.006   2.329  0.2216  2.1438  2.4524
 8366TIP3   OH249292   0.742   5.903   0.406 -0.7740 -0.1630 -0.4388
 8366TIP3    H149293   0.681   5.930   0.337 -1.9094  3.6522  1.7188
 8366TIP3    H249294   0.687   5.856   0.469 -0.6429 -0.1967 -0.3496
 8367TIP3   OH249295   4.324   3.013   0.831  0.9640  0.1464 -0.4559
 8367TIP3    H149296   4.340   2.919   0.842  2.0162  0.5559  2.2384
 8367TIP3    H249297   4.229   3.022   0.840  1.0579 -0.4627  1.5735
 8368TIP3   OH249298   7.361   4.421   0.626  0.1984  0.1269  0.7971
 8368TIP3    H149299   7.328   4.421   0.537 -0.0637  0.6359  0.8942
 8368TIP3    H249300   7.318   4.345   0.667 -1.1908  1.0136  1.0400
 8369TIP3   OH249301   6.238   3.724   1.545 -0.2734  0.4572 -0.1506
 8369TIP3    H149302   6.164   3.718   1.484 -0.1305 -0.4727 -0.2530
 8369TIP3    H249303   6.215   3.664   1.616  0.5771 -0.2031 -0.4111
 8370TIP3   OH249304   7.561   0.850   1.504 -0.3039  0.1047 -0.4317
 8370TIP3    H149305   7.638   0.878   1.454 -0.5743  0.0678 -0.8731
 8370TIP3    H249306   7.511   0.931   1.517 -0.1274  0.1522 -0.0264
 8371TIP3   OH249307   0.690   7.490   2.069  0.0744 -0.1558 -0.8079
 8371TIP3    H149308   0.713   7.580   2.046 -0.1033  0.1142  0.0108
 8371TIP3    H249309   0.772   7.452   2.101 -0.3688  0.5653  1.3703
 8372TIP3   OH249310   5.094   5.561   1.050 -0.0087  0.3329  0.2288
 8372TIP3    H149311   5.145   5.641   1.042  0.1371  0.5300  2.5113
 8372TIP3    H249312   5.020   5.585   1.106 -0.7286 -0.7952 -0.1958
 8373TIP3   OH249313   6.169   7.297   1.520 -0.3402  0.1623  0.4072
 8373TIP3    H149314   6.104   7.356   1.482 -0.4635 -0.6585 -0.6908
 8373TIP3    H249315   6.217   7.262   1.445  0.0301 -0.7953  1.0670
 8374TIP3   OH249316   2.366   0.633   1.113 -0.0718 -0.1363 -0.0471
 8374TIP3    H149317   2.429   0.663   1.048 -0.1950 -0.3594 -0.2744
 8374TIP3    H249318   2.288   0.687   1.098  0.7133  1.5285  1.5422
 8375TIP3   OH249319   7.510   5.998   1.282 -0.6491 -0.2378 -0.3493
 8375TIP3    H149320   7.568   5.999   1.206 -1.2804 -1.5306 -0.8671
 8375TIP3    H249321   7.556   5.944   1.347 -0.3308  0.4702  0.0292
 8376TIP3   OH249322   3.431   3.289   2.468  0.1233  0.0157 -0.6379
 8376TIP3    H149323   3.349   3.319   2.508  0.7783  2.7926 -1.1343
 8376TIP3    H249324   3.421   3.310   2.376  1.2383 -0.0081 -0.7706
 8377TIP3   OH249325   7.099   0.522   0.656 -0.2446  0.2591 -0.3821
 8377TIP3    H149326   7.128   0.605   0.619 -0.1659 -0.5055 -2.1209
 8377TIP3    H249327   7.090   0.540   0.750  3.5139  1.2095 -0.0306
 8378TIP3   OH249328   1.292   2.044   2.247  0.4032 -0.2148  0.0537
 8378TIP3    H149329   1.265   2.126   2.288  0.1053 -0.2932  0.0129
 8378TIP3    H249330   1.258   2.049   2.157 -2.0370 -1.5461  0.7963
 8379TIP3   OH249331   3.626   7.139   1.910  0.6874  0.1086 -0.3040
 8379TIP3    H149332   3.534   7.165   1.914  0.2444 -1.4126 -0.1230
 8379TIP3    H249333   3.655   7.167   1.823 -0.1958 -0.1933 -0.7042
 8380TIP3   OH249334   2.994   3.322   0.684  0.6678 -0.2611 -0.2906
 8380TIP3    H149335   2.940   3.360   0.753  1.3931  0.7485 -0.2517
 8380TIP3    H249336   3.077   3.369   0.690  0.6772  0.0034 -1.9990
 8381TIP3   OH249337   4.385   3.663   1.236 -0.1590 -0.1367  0.3733
 8381TIP3    H149338   4.352   3.583   1.276 -1.0222  0.3621  0.6651
 8381TIP3    H249339   4.477   3.668   1.264 -0.7276  0.1707  2.2643
 8382TIP3   OH249340   1.111   5.556   2.612 -0.2753  0.5918 -0.4278
 8382TIP3    H149341   1.118   5.467   2.646  0.0233  1.1273  1.0027
 8382TIP3    H249342   1.041   5.596   2.665 -0.9165  0.9964 -1.5499
 8383TIP3   OH249343   2.897   2.399   2.460 -0.1594 -0.4289 -0.6179
 8383TIP3    H149344   2.811   2.441   2.457  0.1124  0.0839 -1.9593
 8383TIP3    H249345   2.898   2.341   2.383  0.7442 -0.3019 -0.7129
 8384TIP3   OH249346   6.082   7.545   1.995 -0.4169  0.2059 -0.0418
 8384TIP3    H149347   5.998   7.512   2.025 -1.2208  0.0177 -2.3002
 8384TIP3    H249348   6.064   7.585   1.910  1.8643 -0.3461 -0.8682
 8385TIP3   OH249349   4.912   4.563   0.925 -0.0074  0.4381  0.0996
 8385TIP3    H149350   4.905   4.635   0.863 -1.8864  1.4731  1.4120
 8385TIP3    H249351   4.829   4.516   0.918  1.3465 -2.0192 -1.0847
 8386TIP3   OH249352   5.153   0.800   2.010 -0.2223 -0.0907 -0.1502
 8386TIP3    H149353   5.141   0.894   1.997 -0.5354 -0.1176 -0.0632
 8386TIP3    H249354   5.200   0.793   2.093  1.4342  0.0637 -1.0329
 8387TIP3   OH249355   3.780   3.160   1.839 -0.2196  0.3992 -0.1088
 8387TIP3    H149356   3.817   3.076   1.869  1.3845  1.2218  0.3640
 8387TIP3    H249357   3.844   3.225   1.868  0.1150  1.5206 -3.0599
 8388TIP3   OH249358   2.260   2.418   2.816 -0.2496 -0.4283 -0.2121
 8388TIP3    H149359   2.209   2.352   2.769  1.9111 -2.3717 -0.0013
 8388TIP3    H249360   2.311   2.462   2.749  0.7211 -1.2711 -0.0688
 8389TIP3   OH249361   0.611   7.307   1.283  0.7625  0.7388 -0.8185
 8389TIP3    H149362   0.535   7.249   1.276  1.1785  0.0617  0.1178
 8389TIP3    H249363   0.596   7.374   1.216 -0.6212  0.5865 -0.6805
 8390TIP3   OH249364   2.874   1.831   0.495 -0.4030  0.6837 -0.0542
 8390TIP3    H149365   2.835   1.872   0.418 -1.2014 -0.6719 -0.3998
 8390TIP3    H249366   2.859   1.893   0.566 -0.3876  1.5731 -0.8159
 8391TIP3   OH249367   1.021   2.396   1.151  0.3067  0.1632  0.1637
 8391TIP3    H149368   0.930   2.371   1.167  0.5707 -1.1614 -0.2379
 8391TIP3    H249369   1.071   2.347   1.217  0.8194  0.0017 -0.3412
 8392TIP3   OH249370   1.368   2.231   0.873 -0.1372 -0.1832 -0.0746
 8392TIP3    H149371   1.385   2.323   0.853 -0.8088 -0.3023 -1.2991
 8392TIP3    H249372   1.275   2.219   0.853 -1.0975 -0.2460  3.6204
 8393TIP3   OH249373   4.787   6.019   2.203 -0.4232  0.2879 -0.2552
 8393TIP3    H149374   4.708   6.018   2.257 -0.0624 -0.1164  0.2814
 8393TIP3    H249375   4.819   5.928   2.205  1.1590  0.8194  1.2294
 8394TIP3   OH249376   1.824   5.108   2.693  0.5790 -0.0352 -0.5341
 8394TIP3    H149377   1.766   5.082   2.764  1.2624  0.9373  0.4190
 8394TIP3    H249378   1.805   5.047   2.622 -1.1359 -0.1311 -0.0320
 8395TIP3   OH249379   1.400   1.954   1.092  0.3652  0.2494  0.2583
 8395TIP3    H149380   1.431   1.912   1.012 -0.2870  0.9491 -0.3672
 8395TIP3    H249381   1.310   1.979   1.074 -0.4230 -1.2215  1.8545
 8396TIP3   OH249382   0.820   0.403   2.123 -0.2848 -0.1744 -0.0034
 8396TIP3    H149383   0.743   0.352   2.149 -0.4216  0.7559  1.5516
 8396TIP3    H249384   0.890   0.338   2.114 -1.1822 -1.0072 -1.2593
 8397TIP3   OH249385   4.707   2.634   2.298  0.0785  0.1333 -0.1423
 8397TIP3    H149386   4.783   2.639   2.357 -0.2802  1.1222  0.2594
 8397TIP3    H249387   4.744   2.646   2.210  0.8514 -3.0043 -0.3802
 8398TIP3   OH249388   6.714   3.035   1.637  0.1308  0.4459  0.0526
 8398TIP3    H149389   6.737   3.124   1.665  0.7788  0.3275 -0.0847
 8398TIP3    H249390   6.798   2.992   1.623 -0.1625 -0.3984  0.7553
 8399TIP3   OH249391   3.988   6.425   1.851 -0.6908  0.0152 -0.4220
 8399TIP3    H149392   4.006   6.343   1.804 -0.9121  0.1252 -0.6999
 8399TIP3    H249393   4.038   6.492   1.804  1.6489 -0.3487  1.3523
 8400TIP3   OH249394   6.805   2.339   3.238 -0.2579 -0.0378 -0.2535
 8400TIP3    H149395   6.857   2.368   3.164  0.1295 -1.7896 -0.7238
 8400TIP3    H249396   6.723   2.388   3.232 -0.1869 -0.0758 -1.7858
 8401TIP3   OH249397   5.610   5.926   0.998  0.6608  0.0114  0.1671
 8401TIP3    H149398   5.568   5.862   1.055  1.6177 -1.0322 -0.2358
 8401TIP3    H249399   5.616   6.006   1.050  0.6372 -0.6296  1.1816
 8402TIP3   OH249400   7.567   6.114   2.729  0.3993 -0.2684  0.6604
 8402TIP3    H149401   7.563   6.125   2.824 -0.3412 -0.9062  0.7137
 8402TIP3    H249402   7.646   6.062   2.713 -0.0817 -1.1201  1.0271
 8403TIP3   OH249403   3.199   3.109   2.065 -0.5703 -0.1069 -0.7687
 8403TIP3    H149404   3.238   3.197   2.058 -2.7210  0.9873  0.0642
 8403TIP3    H249405   3.141   3.102   1.989 -1.3131 -0.2963 -0.1968
 8404TIP3   OH249406   6.687   0.221   1.147 -0.3601 -0.0160 -0.1112
 8404TIP3    H149407   6.659   0.191   1.061 -0.9519  1.7029 -0.5577
 8404TIP3    H249408   6.626   0.181   1.208 -0.6944 -0.2696 -0.6093
 8405TIP3   OH249409   0.063   6.740   2.037 -0.2893 -0.0398 -0.1421
 8405TIP3    H149410  -0.028   6.740   2.068  0.1557 -0.5958  1.2443
 8405TIP3    H249411   0.102   6.818   2.076  0.1330 -0.4420  0.2490
 8406TIP3   OH249412   6.795   4.660   0.843 -0.5880 -0.1559 -0.2055
 8406TIP3    H149413   6.862   4.606   0.885 -0.3134 -0.5611 -1.1319
 8406TIP3    H249414   6.826   4.750   0.853 -1.2879 -0.0992  1.7717
 8407TIP3   OH249415   4.921   5.452   1.850 -0.0804  0.1006  0.1261
 8407TIP3    H149416   4.887   5.466   1.938  0.9622  0.2747  0.5096
 8407TIP3    H249417   4.884   5.367   1.823  2.2452 -1.6542  2.0625
 8408TIP3   OH249418   0.000   1.118   0.873 -0.1565  0.1876 -0.6984
 8408TIP3    H149419  -0.037   1.079   0.952 -0.3770  1.7236  0.0013
 8408TIP3    H249420  -0.014   1.053   0.804 -0.6173 -0.8739  0.3703
 8409TIP3   OH249421   6.775   3.793   1.371  0.3260 -0.1732  0.2327
 8409TIP3    H149422   6.869   3.785   1.388 -0.1621 -1.1897  2.9817
 8409TIP3    H249423   6.755   3.884   1.393  0.4357 -0.3545  1.1130
 8410TIP3   OH249424   4.146   0.476   1.187 -0.2214  0.0273  0.2450
 8410TIP3    H149425   4.131   0.388   1.221  3.4242 -0.3260  1.3914
 8410TIP3    H249426   4.195   0.462   1.106  2.4221  0.8666  1.5822
 8411TIP3   OH249427   0.973   4.086   2.593  0.2701 -0.2663  0.6909
 8411TIP3    H149428   0.915   4.095   2.669  1.3005 -0.3765  1.5239
 8411TIP3    H249429   1.002   4.175   2.574 -0.8590 -0.0915 -0.3061
 8412TIP3   OH249430   6.685   3.764   1.825  0.2023  0.5502 -0.3630
 8412TIP3    H149431   6.677   3.783   1.919 -3.0622 -1.5509 -0.0448
 8412TIP3    H249432   6.634   3.834   1.783  0.3301  0.6096 -0.4171
 8413TIP3   OH249433   0.334   2.446   3.318 -0.0006  0.0453  0.4634
 8413TIP3    H149434   0.255   2.480   3.360 -1.5566 -1.3312 -1.1693
 8413TIP3    H249435   0.327   2.475   3.227  0.9790 -0.7763  0.1067
 8414TIP3   OH249436   3.771   4.799   1.925 -0.3111 -0.6836 -0.5936
 8414TIP3    H149437   3.725   4.824   1.844 -0.8343  0.2004 -0.0411
 8414TIP3    H249438   3.836   4.868   1.937 -1.2089  0.0100  0.5070
 8415TIP3   OH249439   5.025   3.542   0.977  0.6024  0.6061 -0.7297
 8415TIP3    H149440   5.043   3.626   0.935 -0.0285 -0.2071 -2.7656
 8415TIP3    H249441   4.946   3.510   0.933  0.2938 -0.6455  0.6484
 8416TIP3   OH249442   2.065   2.454   2.078 -0.2989  0.4690  0.5650
 8416TIP3    H149443   2.048   2.490   1.990  0.1361  0.1384  0.3451
 8416TIP3    H249444   1.983   2.409   2.101 -0.3259  0.3330  0.2178
 8417TIP3   OH249445   2.409   5.724   0.567 -0.1567  0.4464 -0.0829
 8417TIP3    H149446   2.472   5.754   0.502  1.3417 -2.4680 -0.1644
 8417TIP3    H249447   2.462   5.691   0.639 -1.6519 -0.0271  0.8570
 8418TIP3   OH249448   6.227   4.275   2.273 -0.1017  0.2656  0.5209
 8418TIP3    H149449   6.292   4.230   2.326 -0.9578 -0.8605  0.6489
 8418TIP3    H249450   6.151   4.285   2.331 -1.3930 -1.7886 -0.6696
 8419TIP3   OH249451   1.763   3.948   1.779 -0.4744 -0.6256  0.8329
 8419TIP3    H149452   1.833   3.888   1.803 -0.5581 -0.8598  0.4996
 8419TIP3    H249453   1.776   4.025   1.836 -0.0176 -0.7107  0.8450
 8420TIP3   OH249454   7.464   4.155   3.104  0.3361  0.6486 -0.0869
 8420TIP3    H149455   7.417   4.092   3.158  1.5901  0.4369  0.8027
 8420TIP3    H249456   7.396   4.197   3.052 -0.8360  0.3347  1.1230
 8421TIP3   OH249457   6.474   2.091   2.185  0.6628  0.2751  0.5419
 8421TIP3    H149458   6.491   2.100   2.279  0.7032 -2.8823  0.9482
 8421TIP3    H249459   6.541   2.031   2.154 -0.3874 -0.0936 -1.1406
 8422TIP3   OH249460   7.127   5.286   2.299 -0.2939 -0.1146 -0.5896
 8422TIP3    H149461   7.035   5.260   2.293 -0.7682  1.6506 -1.7980
 8422TIP3    H249462   7.172   5.228   2.238 -0.9013  0.1916 -1.3384
 8423TIP3   OH249463   7.413   5.015   2.433  0.4805 -0.4352 -0.2746
 8423TIP3    H149464   7.507   5.001   2.451  0.6819 -0.8045 -1.5330
 8423TIP3    H249465   7.408   5.022   2.338 -0.9126 -1.5523 -0.3055
 8424TIP3   OH249466   6.905   0.116   3.149  0.0832 -0.1513 -0.1751
 8424TIP3    H149467   6.931   0.024   3.145  0.1019 -0.1755  0.4796
 8424TIP3    H249468   6.894   0.134   3.242  0.6770  0.6761 -0.2550
 8425TIP3   OH249469   0.415   1.236   2.048 -0.9343 -0.3168  0.1257
 8425TIP3    H149470   0.387   1.327   2.041 -1.4469 -0.4548  0.3560
 8425TIP3    H249471   0.482   1.226   1.980 -0.9003  0.2234  0.0823
 8426TIP3   OH249472   7.307   7.531   2.015 -0.7402  0.5702  0.0260
 8426TIP3    H149473   7.268   7.594   2.075 -0.1171  0.8896  0.1091
 8426TIP3    H249474   7.248   7.528   1.941 -0.8984  1.0750  0.1291
 8427TIP3   OH249475   2.858   2.774   2.429  0.9434 -0.5446 -0.4872
 8427TIP3    H149476   2.827   2.828   2.356  0.0404  0.6987  0.7521
 8427TIP3    H249477   2.917   2.710   2.389  0.2227 -0.1097 -2.3318
 8428TIP3   OH249478   0.804   3.900   2.886 -0.7205  0.0202 -0.1088
 8428TIP3    H149479   0.759   3.961   2.944  0.0662  1.2614 -0.7585
 8428TIP3    H249480   0.896   3.909   2.909 -0.3416  0.8765 -1.8191
 8429TIP3   OH249481   0.314   5.509   2.774 -0.2394 -0.2059  0.0482
 8429TIP3    H149482   0.258   5.551   2.709 -0.9289 -0.6137  0.3670
 8429TIP3    H249483   0.270   5.526   2.858  0.3609 -0.1344  0.3524
 8430TIP3   OH249484   5.403   4.288   2.523  0.0134 -0.0646  0.5690
 8430TIP3    H149485   5.495   4.265   2.527  0.3114  0.9806  0.2189
 8430TIP3    H249486   5.372   4.282   2.613 -0.0453 -2.1077  0.4623
 8431TIP3   OH249487   2.283   0.507   0.693  0.0052  0.4720  0.1909
 8431TIP3    H149488   2.268   0.598   0.666  0.2811  0.2676 -0.6575
 8431TIP3    H249489   2.378   0.502   0.707  0.1059  0.0999 -0.5785
 8432TIP3   OH249490   4.953   3.867   2.048  0.4292  0.2946  0.4027
 8432TIP3    H149491   5.015   3.816   2.101  0.7234 -0.2713 -0.4740
 8432TIP3    H249492   4.978   3.849   1.958 -0.5870  0.6045  0.0478
 8433TIP3   OH249493   4.594   1.794   2.756 -0.1567  0.0689 -0.4755
 8433TIP3    H149494   4.563   1.714   2.798  1.0026 -0.4727 -0.5869
 8433TIP3    H249495   4.669   1.766   2.703  0.5348  1.2961 -0.1960
 8434TIP3   OH249496   2.042   3.235   0.907  0.3964  0.0398 -0.6410
 8434TIP3    H149497   2.098   3.293   0.958 -2.7168  0.5956  2.4827
 8434TIP3    H249498   2.007   3.290   0.837 -0.7887  1.3837  0.9484
 8435TIP3   OH249499   7.114   3.247   0.904  0.1485 -0.1060  0.0238
 8435TIP3    H149500   7.085   3.335   0.881  1.4079  0.8363  1.7564
 8435TIP3    H249501   7.104   3.196   0.824  0.0234  1.7851 -1.2188
 8436TIP3   OH249502   0.914   2.990   2.483  0.0150  0.5676 -0.3173
 8436TIP3    H149503   0.980   2.981   2.552 -0.2935 -2.6050 -0.3157
 8436TIP3    H249504   0.962   3.019   2.406  1.0287  0.3516  0.2258
 8437TIP3   OH249505   4.078   0.693   2.097 -0.0480  0.4344  0.3948
 8437TIP3    H149506   4.158   0.678   2.147  0.2902  0.3615 -0.1606
 8437TIP3    H249507   4.107   0.693   2.006 -0.4684  1.7857  0.2462
 8438TIP3   OH249508   1.055   1.396   0.500  0.1983  0.1928 -0.2843
 8438TIP3    H149509   1.142   1.435   0.511  0.8790 -1.6047  1.0835
 8438TIP3    H249510   1.039   1.402   0.406  2.0194  0.1545 -0.6456
 8439TIP3   OH249511   7.118   3.314   2.520  0.1505  0.1511  0.2444
 8439TIP3    H149512   7.151   3.300   2.609  0.6039  2.0734  0.4219
 8439TIP3    H249513   7.088   3.228   2.492  2.4099 -1.0748  1.2814
 8440TIP3   OH249514   2.299   5.655   0.887  0.2477  0.1299  0.4064
 8440TIP3    H149515   2.316   5.597   0.961  0.5504  0.7507  0.8355
 8440TIP3    H249516   2.371   5.718   0.889  0.0930  0.3353 -0.2368
 8441TIP3   OH249517   4.077   2.629   0.676  0.7193  0.0222 -0.2926
 8441TIP3    H149518   4.030   2.656   0.598  0.2194  0.7039  0.2292
 8441TIP3    H249519   4.022   2.658   0.749  2.0290  1.0345  0.3423
 8442TIP3   OH249520   1.120   7.609   3.080  0.2185 -0.5958 -0.1358
 8442TIP3    H149521   1.063   7.669   3.031  1.4041  0.9247  0.2513
 8442TIP3    H249522   1.124   7.646   3.168  0.0626 -1.9225  0.4462
 8443TIP3   OH249523   5.234   2.634   1.129 -0.1270  0.2809 -0.2468
 8443TIP3    H149524   5.271   2.691   1.196 -0.3398  1.4464 -1.1050
 8443TIP3    H249525   5.291   2.557   1.129  2.8537  2.3294 -2.0598
 8444TIP3   OH249526   1.912   6.233   1.622 -0.1760  0.0734  0.3401
 8444TIP3    H149527   1.953   6.319   1.633  1.1798 -0.4837 -0.2641
 8444TIP3    H249528   1.974   6.171   1.660 -0.1842 -0.8339 -1.0543
 8445TIP3   OH249529   5.336   1.848   1.540  0.3502  0.4364 -0.0841
 8445TIP3    H149530   5.389   1.803   1.605  0.4030 -0.5606 -0.7939
 8445TIP3    H249531   5.246   1.842   1.574  0.4166  0.2020  0.0523
 8446TIP3   OH249532   6.905   2.969   3.322 -0.1400 -0.2200  0.7930
 8446TIP3    H149533   6.961   3.046   3.338  0.6327 -0.2497 -1.4191
 8446TIP3    H249534   6.962   2.894   3.341 -0.1955 -0.2548  0.8221
 8447TIP3   OH249535   6.205   1.382   1.607 -0.2032 -0.0816  0.0983
 8447TIP3    H149536   6.217   1.288   1.619  0.6851 -0.2599 -1.8326
 8447TIP3    H249537   6.180   1.392   1.516 -1.0438  1.5188  0.4575
 8448TIP3   OH249538   5.281   6.058   0.682 -0.3560  0.2712 -0.1694
 8448TIP3    H149539   5.245   6.064   0.771 -3.0489 -3.0182 -0.8370
 8448TIP3    H249540   5.364   6.011   0.693 -1.4750 -1.6771  0.6004
 8449TIP3   OH249541   0.795   3.042   1.872 -0.2409 -0.2261 -0.1752
 8449TIP3    H149542   0.729   3.110   1.878 -0.0445 -0.1070  0.8860
 8449TIP3    H249543   0.778   2.985   1.948  1.4334  0.3433  0.6838
 8450TIP3   OH249544   4.287   5.866   2.132  0.0065 -0.5088  0.1761
 8450TIP3    H149545   4.319   5.938   2.186 -0.6013 -1.7274  2.3184
 8450TIP3    H249546   4.306   5.892   2.042 -1.2844  2.8704  0.7208
 8451TIP3   OH249547   6.325   4.507   2.784  0.1754  0.3985  0.1708
 8451TIP3    H149548   6.379   4.519   2.861  1.5359 -1.6546 -0.4007
 8451TIP3    H249549   6.364   4.565   2.718  0.0659  0.8650  0.5146
 8452TIP3   OH249550   5.837   3.855   1.522 -0.4288  0.3086 -0.1602
 8452TIP3    H149551   5.746   3.836   1.500 -0.5363  0.1282  0.4177
 8452TIP3    H249552   5.860   3.791   1.589  0.1144  0.3729 -0.2756
 8453TIP3   OH249553   3.529   2.908   2.545  0.0218  0.1703 -0.2300
 8453TIP3    H149554   3.554   2.983   2.490 -0.1979 -0.3464 -1.0509
 8453TIP3    H249555   3.452   2.872   2.502 -0.4916  0.0854  0.7479
 8454TIP3   OH249556   4.131   2.229   2.511  0.4656 -0.2312  0.1328
 8454TIP3    H149557   4.065   2.298   2.497  2.4923  1.7963 -0.1230
 8454TIP3    H249558   4.142   2.189   2.425 -0.3291 -0.5168  0.1534
 8455TIP3   OH249559   7.193   1.261   1.201  0.0188  0.6906 -0.5980
 8455TIP3    H149560   7.272   1.208   1.205 -0.2390  0.3283  2.3917
 8455TIP3    H249561   7.136   1.215   1.140  0.9709 -0.7817 -0.4161
 8456TIP3   OH249562   2.964   4.970   1.843  0.6567 -0.5779 -0.0067
 8456TIP3    H149563   2.910   4.968   1.922  0.0861  0.1072 -0.3697
 8456TIP3    H249564   3.050   4.938   1.872  0.6474  0.2880  1.0446
 8457TIP3   OH249565   1.058   2.604   2.158 -0.1647 -0.3449  0.1459
 8457TIP3    H149566   1.142   2.642   2.184 -0.5106  0.4431  0.1380
 8457TIP3    H249567   1.080   2.516   2.128  0.7755  0.1320 -0.6111
 8458TIP3   OH249568   3.049   4.175   0.567 -0.1112  0.2512 -0.5921
 8458TIP3    H149569   3.001   4.257   0.560  1.3021  1.0627 -1.1784
 8458TIP3    H249570   3.115   4.180   0.498 -0.6149 -1.8309 -1.3166
 8459TIP3   OH249571   5.882   0.467   1.845  0.3656 -0.0643 -0.6339
 8459TIP3    H149572   5.969   0.430   1.858 -0.5850 -2.6257 -0.9346
 8459TIP3    H249573   5.867   0.461   1.751 -0.3290 -0.1631 -0.5255
 8460TIP3   OH249574   6.593   2.764   2.220 -0.2675  0.0662  0.0822
 8460TIP3    H149575   6.571   2.691   2.163 -0.1102 -0.7910  1.1026
 8460TIP3    H249576   6.509   2.807   2.239 -0.4397 -0.2384  0.0070
 8461TIP3   OH249577   1.862   3.431   2.337 -0.2644  0.1792  0.0202
 8461TIP3    H149578   1.771   3.418   2.310 -0.5290 -1.6459  1.5815
 8461TIP3    H249579   1.897   3.343   2.346  0.9919  0.8028  1.6261
 8462TIP3   OH249580   1.595   3.281   0.889  0.0225 -0.1512  0.8025
 8462TIP3    H149581   1.586   3.199   0.938 -3.5643 -0.0846  0.5115
 8462TIP3    H249582   1.622   3.254   0.802 -0.2638 -0.9422  0.9516
 8463TIP3   OH249583   5.112   5.808   1.210 -0.5121 -0.1624 -0.1174
 8463TIP3    H149584   5.019   5.800   1.232 -0.7983 -0.0985 -1.2612
 8463TIP3    H249585   5.113   5.825   1.116  0.7867 -3.6450 -0.8629
 8464TIP3   OH249586   7.638   3.197   0.914  0.2579 -0.0825 -0.3733
 8464TIP3    H149587   7.570   3.231   0.856 -0.4516 -0.9989 -0.1064
 8464TIP3    H249588   7.591   3.173   0.994  1.0348  0.0464  0.1391
 8465TIP3   OH249589   3.606   2.556   1.569 -0.7745  0.2274  0.3939
 8465TIP3    H149590   3.674   2.623   1.564 -0.1773 -0.4359 -1.0703
 8465TIP3    H249591   3.654   2.476   1.594 -1.0758 -0.1446 -0.1976
 8466TIP3   OH249592   6.624   3.134   1.372 -0.3622  0.0982 -0.2332
 8466TIP3    H149593   6.656   3.085   1.448  0.2931  0.6546 -0.1362
 8466TIP3    H249594   6.574   3.206   1.410  0.4662  0.7225 -0.2937
 8467TIP3   OH249595   2.041   5.713   2.173  0.0425 -0.5815 -0.3561
 8467TIP3    H149596   2.118   5.696   2.119  0.3363  0.6152 -0.3490
 8467TIP3    H249597   2.017   5.803   2.153 -0.3009 -0.3596  0.9497
 8468TIP3   OH249598   2.898   5.916   0.770 -0.1393  0.3808  0.2763
 8468TIP3    H149599   2.888   5.936   0.676 -1.2804  0.3836  0.3788
 8468TIP3    H249600   2.870   5.997   0.814 -1.9246 -0.4046  0.6495
 8469TIP3   OH249601   2.128   7.021   1.130 -0.1805  0.3431  0.3497
 8469TIP3    H149602   2.045   7.054   1.095 -0.0485  0.9232  0.5775
 8469TIP3    H249603   2.189   7.094   1.120  0.0757  0.2257  1.0127
 8470TIP3   OH249604   4.578   7.137   2.190 -0.0990 -0.3516 -0.2738
 8470TIP3    H149605   4.663   7.168   2.158 -0.9604  1.4910 -0.8790
 8470TIP3    H249606   4.527   7.120   2.110 -0.3413 -1.4132  0.0852
 8471TIP3   OH249607   0.152   6.644   2.901 -0.0380 -0.4355 -0.1496
 8471TIP3    H149608   0.158   6.603   2.987  1.2035 -0.6705 -0.3280
 8471TIP3    H249609   0.174   6.573   2.840  2.0394  0.4309 -0.4697
 8472TIP3   OH249610   6.136   4.480   0.987  0.2068 -0.0824 -0.3689
 8472TIP3    H149611   6.142   4.528   1.069  2.5449  0.1879 -0.6382
 8472TIP3    H249612   6.054   4.430   0.994  0.0793  0.3545  1.8663
 8473TIP3   OH249613   6.786   0.878   2.843  0.5656  0.1601  0.3793
 8473TIP3    H149614   6.715   0.929   2.883  0.8963  1.4814 -0.6938
 8473TIP3    H249615   6.864   0.904   2.891  0.4917 -0.6078  0.9392
 8474TIP3   OH249616   0.929   5.692   2.396  0.1216 -0.0409  0.3931
 8474TIP3    H149617   0.895   5.773   2.359 -0.5136 -0.6022 -0.2851
 8474TIP3    H249618   0.943   5.712   2.489  0.0211  0.8541  0.2210
 8475TIP3   OH249619   3.274   5.579   0.886  0.6597  0.0782  0.1672
 8475TIP3    H149620   3.229   5.664   0.885  0.4190 -0.0251 -1.7542
 8475TIP3    H249621   3.357   5.595   0.843  0.6812 -0.6305 -0.0682
 8476TIP3   OH249622   4.844   3.145   1.105 -0.1587 -0.2032  0.4500
 8476TIP3    H149623   4.837   3.150   1.010 -0.7788  0.1470  0.5090
 8476TIP3    H249624   4.887   3.227   1.131 -0.6891  0.0523  0.5323
 8477TIP3   OH249625   2.614   6.283   2.322 -0.3432 -0.1946 -0.0911
 8477TIP3    H149626   2.555   6.302   2.250  0.3235 -0.1169 -0.6234
 8477TIP3    H249627   2.556   6.270   2.398 -1.0243  0.0284 -0.5664
 8478TIP3   OH249628   6.199   6.417   3.279  0.2791 -0.0901 -0.4098
 8478TIP3    H149629   6.174   6.331   3.313 -0.1119 -0.1325 -0.7961
 8478TIP3    H249630   6.266   6.398   3.214  0.8151 -0.0321  0.1188
 8479TIP3   OH249631   0.694   4.735   1.154  0.1120 -0.3664  0.9124
 8479TIP3    H149632   0.602   4.747   1.134  0.4034 -0.2394 -0.4077
 8479TIP3    H249633   0.695   4.710   1.247 -1.3161 -1.4023  0.6789
 8480TIP3   OH249634   7.340   6.833   0.869 -0.0087 -0.1857 -0.3336
 8480TIP3    H149635   7.402   6.891   0.824  1.5551 -1.5547 -0.0211
 8480TIP3    H249636   7.357   6.848   0.962 -0.3554 -0.3752 -0.2392
 8481TIP3   OH249637   5.409   1.170   2.380 -0.7176  0.3937 -0.1862
 8481TIP3    H149638   5.476   1.156   2.446  0.7899  1.4969 -1.4252
 8481TIP3    H249639   5.332   1.197   2.430 -0.0148 -0.0537  1.1943
 8482TIP3   OH249640   0.638   2.269   0.623 -0.5583  0.1817 -0.1595
 8482TIP3    H149641   0.719   2.246   0.577 -0.5391  1.4611 -0.8344
 8482TIP3    H249642   0.664   2.341   0.681 -1.1254  0.3333 -0.0886
 8483TIP3   OH249643   6.106   4.898   2.257 -0.9902  0.6899 -0.0033
 8483TIP3    H149644   6.155   4.973   2.291 -0.3569  0.2839 -0.0140
 8483TIP3    H249645   6.162   4.860   2.190 -1.1237 -0.0428  0.2932
 8484TIP3   OH249646   0.966   1.573   2.894 -0.3406  0.3154  0.0364
 8484TIP3    H149647   0.888   1.585   2.948 -0.7508  1.6670 -0.8045
 8484TIP3    H249648   0.935   1.578   2.804  0.5990 -0.0173 -0.3245
 8485TIP3   OH249649   6.795   5.415   2.395  0.1929  0.5258  0.4057
 8485TIP3    H149650   6.723   5.443   2.339 -0.7734 -2.3144  0.0693
 8485TIP3    H249651   6.825   5.332   2.357  1.4613 -0.0230  2.4060
 8486TIP3   OH249652   2.354   3.513   1.565 -0.1199  0.0670 -0.1346
 8486TIP3    H149653   2.374   3.420   1.554 -0.9238 -0.1469  0.0932
 8486TIP3    H249654   2.269   3.513   1.610  0.2805  0.9109  0.6573
 8487TIP3   OH249655   6.887   3.076   0.747 -0.3676 -0.7244  0.2712
 8487TIP3    H149656   6.814   3.017   0.731 -0.6118 -0.6389  1.0458
 8487TIP3    H249657   6.846   3.158   0.776  0.0114 -0.4798  0.1317
 8488TIP3   OH249658   5.648   7.266   2.777  0.3978  0.2066 -0.3771
 8488TIP3    H149659   5.580   7.274   2.710 -0.1017 -0.0475  0.0982
 8488TIP3    H249660   5.685   7.354   2.784 -0.7844  0.6719  0.3032
 8489TIP3   OH249661   5.974   4.693   2.128  0.1879  0.4125  0.3558
 8489TIP3    H149662   6.016   4.759   2.182  0.2093 -0.2280  1.1415
 8489TIP3    H249663   5.889   4.731   2.105  0.1158  0.6385  0.9690
 8490TIP3   OH249664   4.203   1.566   1.468 -0.1096 -0.2266 -0.0170
 8490TIP3    H149665   4.237   1.654   1.484  1.2567 -0.8457  0.5653
 8490TIP3    H249666   4.158   1.543   1.549 -0.1291 -0.2279 -0.0280
 8491TIP3   OH249667   7.269   3.944   1.217 -0.4936 -0.6627 -0.6311
 8491TIP3    H149668   7.317   3.884   1.159  2.1299  0.6424  0.0217
 8491TIP3    H249669   7.227   4.006   1.157 -0.2428 -1.0553 -1.2260
 8492TIP3   OH249670   6.024   5.315   2.586 -0.1882 -0.4234  0.2277
 8492TIP3    H149671   5.975   5.311   2.668 -1.2852  3.3229 -0.0334
 8492TIP3    H249672   5.978   5.381   2.534  2.2607 -0.3916 -2.1166
 8493TIP3   OH249673   4.203   7.655   2.579 -0.3269  0.1228  0.7754
 8493TIP3    H149674   4.292   7.627   2.561 -0.4099 -0.5521  1.3474
 8493TIP3    H249675   4.194   7.740   2.535  0.6262  0.2456  0.8022
 8494TIP3   OH249676   6.638   1.876   1.538 -0.1472 -0.2876 -0.0079
 8494TIP3    H149677   6.573   1.914   1.480 -0.6791 -2.1487 -0.7283
 8494TIP3    H249678   6.590   1.856   1.618  0.2816  1.1047  0.6122
 8495TIP3   OH249679   1.475   6.234   2.169 -0.2359  0.1544  0.5018
 8495TIP3    H149680   1.387   6.232   2.207  0.1645 -0.9004  1.4500
 8495TIP3    H249681   1.519   6.307   2.212 -1.1249  1.7576 -1.1871
 8496TIP3   OH249682   1.718   6.966   3.590  0.5310  0.1240  0.7419
 8496TIP3    H149683   1.811   6.961   3.567  0.1745 -0.3552 -0.6895
 8496TIP3    H249684   1.694   7.057   3.571  0.1427 -0.3574 -1.3612
 8497TIP3   OH249685   1.791   0.358   0.779  0.1928  0.1059  0.1447
 8497TIP3    H149686   1.835   0.435   0.743 -1.8737  1.6129  0.6535
 8497TIP3    H249687   1.790   0.295   0.708  0.6569  1.0838 -0.7591
 8498TIP3   OH249688   0.393   5.978   2.564  0.0933  0.2205  0.1401
 8498TIP3    H149689   0.462   6.045   2.564  0.8358 -0.5225 -0.1508
 8498TIP3    H249690   0.378   5.960   2.471  1.2419 -1.3255  0.2053
 8499TIP3   OH249691   0.795   1.230   0.502 -0.4886  0.0842 -0.1195
 8499TIP3    H149692   0.846   1.310   0.514  0.8091 -0.5101 -1.3297
 8499TIP3    H249693   0.833   1.168   0.564  0.4117 -0.3987 -1.1119
 8500TIP3   OH249694   4.038   5.560   1.553  0.1101  0.3701 -0.4851
 8500TIP3    H149695   3.957   5.555   1.504 -0.0464  0.7159 -0.2693
 8500TIP3    H249696   4.106   5.565   1.486 -0.0404 -0.0112 -0.6647
 8501TIP3   OH249697   5.332   7.121   1.969  0.3265 -0.6315 -0.2190
 8501TIP3    H149698   5.344   7.195   2.029 -0.3063 -2.3733  2.1967
 8501TIP3    H249699   5.354   7.157   1.883  1.3585  1.9899  1.0134
 8502TIP3   OH249700   6.890   4.902   1.401 -0.2866 -0.3002  0.2143
 8502TIP3    H149701   6.981   4.911   1.373 -0.4135 -1.0582 -0.4807
 8502TIP3    H249702   6.838   4.931   1.326 -0.6274 -2.0038 -0.2574
 8503TIP3   OH249703   0.605   0.459   1.709 -0.8549 -0.0049  0.4752
 8503TIP3    H149704   0.589   0.404   1.785 -1.4441  0.1949  0.5031
 8503TIP3    H249705   0.650   0.536   1.743  0.6136 -0.7657  0.3358
 8504TIP3   OH249706   1.025   4.466   1.573 -0.2368  0.0852  0.2780
 8504TIP3    H149707   0.935   4.462   1.603 -0.5934 -0.8556 -0.8255
 8504TIP3    H249708   1.067   4.531   1.630 -1.7675  1.0381  0.3770
 8505TIP3   OH249709   3.548   2.041   2.707 -0.3568 -0.4019  0.2259
 8505TIP3    H149710   3.513   1.970   2.654 -0.5167  0.1129 -0.3664
 8505TIP3    H249711   3.596   2.096   2.645  0.5916 -0.5013  0.8384
 8506TIP3   OH249712   4.152   5.963   0.959  0.0985  0.2612  0.4139
 8506TIP3    H149713   4.243   5.951   0.986  0.7488  1.1226 -1.2627
 8506TIP3    H249714   4.138   5.896   0.892 -0.4006  0.3470  0.4317
 8507TIP3   OH249715   7.345   3.503   2.066 -0.8376 -0.0867  0.5453
 8507TIP3    H149716   7.371   3.538   1.980 -3.1472 -0.1404 -0.2530
 8507TIP3    H249717   7.252   3.523   2.072 -0.8038 -0.4037  2.9347
 8508TIP3   OH249718   5.561   3.832   1.436  0.1654  0.3068 -0.3638
 8508TIP3    H149719   5.527   3.762   1.492  0.2292  0.3166 -0.3127
 8508TIP3    H249720   5.565   3.793   1.349  1.0566 -0.0386 -0.1746
 8509TIP3   OH249721   1.114   4.116   2.162 -0.6776 -0.7691 -0.3108
 8509TIP3    H149722   1.198   4.099   2.204 -0.6985  0.8038  0.4579
 8509TIP3    H249723   1.137   4.154   2.077 -0.5562  0.7914  0.3833
 8510TIP3   OH249724   4.298   5.900   1.245 -0.4569  0.0765  0.2081
 8510TIP3    H149725   4.250   5.924   1.324 -2.8709 -0.4869 -0.9996
 8510TIP3    H249726   4.363   5.969   1.235 -1.2598  1.1131  1.7262
 8511TIP3   OH249727   3.240   6.735   1.972  0.2970 -0.2126  0.0347
 8511TIP3    H149728   3.242   6.732   2.068 -2.0189 -0.0727  0.1340
 8511TIP3    H249729   3.322   6.692   1.945  0.3863 -1.4414  2.0558
 8512TIP3   OH249730   0.178   5.293   2.095 -0.6817  0.1351 -0.4562
 8512TIP3    H149731   0.168   5.201   2.069 -0.2021  0.5176 -2.0885
 8512TIP3    H249732   0.093   5.316   2.133 -0.5617 -1.1793  0.6974
 8513TIP3   OH249733   5.283   1.087   2.656  0.0196  0.0855  0.4782
 8513TIP3    H149734   5.188   1.076   2.653  0.2377 -1.9544 -1.6678
 8513TIP3    H249735   5.315   1.012   2.707  0.4829  0.9222  1.4519
 8514TIP3   OH249736   5.426   0.262   1.025  0.2313  0.9050 -0.3240
 8514TIP3    H149737   5.435   0.297   1.114 -0.4650  2.2479 -0.7546
 8514TIP3    H249738   5.374   0.183   1.036 -0.0337  1.1722  0.4354
 8515TIP3   OH249739   7.432   0.301   1.219  0.1379 -0.1009 -0.1538
 8515TIP3    H149740   7.488   0.366   1.177 -0.5676  0.7622  0.2004
 8515TIP3    H249741   7.406   0.242   1.149  0.4021  0.2774 -0.5738
 8516TIP3   OH249742   2.251   1.327   2.893  0.1614  0.4708  0.0878
 8516TIP3    H149743   2.314   1.324   2.821  1.2388  0.9348  0.9854
 8516TIP3    H249744   2.288   1.391   2.954 -2.3415  2.5983 -0.4488
 8517TIP3   OH249745   3.044   2.346   1.195 -0.0711 -0.0607  0.4313
 8517TIP3    H149746   2.970   2.316   1.143  2.1696 -2.4517 -1.6765
 8517TIP3    H249747   3.038   2.295   1.277  1.0683 -3.1426 -1.2080
 8518TIP3   OH249748   3.300   1.075   0.711  0.2590 -0.0310  0.5421
 8518TIP3    H149749   3.366   1.144   0.712 -1.4469  1.6744  1.3134
 8518TIP3    H249750   3.294   1.046   0.802 -1.7482  1.5869  0.9776
 8519TIP3   OH249751   0.922   2.105   1.525 -0.4739 -0.0706  0.0366
 8519TIP3    H149752   0.960   2.049   1.593  2.8489 -0.5411 -1.9541
 8519TIP3    H249753   0.859   2.049   1.480  1.3049 -1.6528 -0.6319
 8520TIP3   OH249754   1.809   1.294   2.509 -0.0073  0.3672  0.1435
 8520TIP3    H149755   1.858   1.242   2.573  1.3429 -0.1804 -1.2575
 8520TIP3    H249756   1.857   1.377   2.504  1.6454 -0.6137 -2.1212
 8521TIP3   OH249757   1.960   5.496   1.302 -0.7789  0.3948 -0.2941
 8521TIP3    H149758   2.002   5.580   1.283 -0.0595  0.0385 -0.3298
 8521TIP3    H249759   1.917   5.471   1.221  0.4714 -0.0890 -0.8383
 8522TIP3   OH249760   1.786   5.834   1.021  0.0374 -0.3222 -0.3946
 8522TIP3    H149761   1.842   5.894   1.070 -1.5893  1.1849 -0.2778
 8522TIP3    H249762   1.842   5.759   1.001  1.8082  0.7181  0.4670
 8523TIP3   OH249763   5.131   7.455   2.890 -0.3901  0.4838  0.0255
 8523TIP3    H149764   5.046   7.436   2.929  0.0063  0.5895  0.9737
 8523TIP3    H249765   5.194   7.437   2.959  0.5210 -1.3604 -1.2079
 8524TIP3   OH249766   3.021   1.939   1.999 -0.5862 -0.0948  0.0111
 8524TIP3    H149767   3.100   1.972   1.957 -0.8448 -0.1517 -0.5300
 8524TIP3    H249768   3.053   1.891   2.076  0.0733 -1.8260 -1.2641
 8525TIP3   OH249769   1.522   6.241   1.486 -0.2428  0.2760 -0.1551
 8525TIP3    H149770   1.460   6.313   1.495 -2.2025 -1.4074  0.4867
 8525TIP3    H249771   1.484   6.185   1.419  0.9152 -0.5165 -0.1863
 8526TIP3   OH249772   0.130   0.698   2.013 -0.3827  0.2610  0.2306
 8526TIP3    H149773   0.194   0.651   1.960 -0.2156  0.0014  0.6573
 8526TIP3    H249774   0.177   0.720   2.093 -0.4619  1.1525  0.0423
 8527TIP3   OH249775   4.367   6.109   2.235 -0.4226 -0.4418  0.1855
 8527TIP3    H149776   4.395   6.159   2.159  1.2300  0.9334  1.6096
 8527TIP3    H249777   4.306   6.167   2.281 -1.5612 -1.3349 -0.1367
 8528TIP3   OH249778   4.315   1.037   3.268 -0.2940  0.0835  0.2335
 8528TIP3    H149779   4.239   1.079   3.308 -0.8817  0.3904 -1.1430
 8528TIP3    H249780   4.364   1.109   3.228  1.9209  0.1953  2.8661
 8529TIP3   OH249781   4.077   7.601   1.484 -0.7992  0.7989  0.4784
 8529TIP3    H149782   3.998   7.650   1.508 -1.0294  0.1221  1.1595
 8529TIP3    H249783   4.061   7.573   1.394 -1.9936 -0.5437  1.0711
 8530TIP3   OH249784   0.520   4.111   2.269  0.3601  0.0274 -0.9627
 8530TIP3    H149785   0.589   4.084   2.330  0.5484 -0.0862 -1.2216
 8530TIP3    H249786   0.439   4.078   2.308  0.2039  1.7865  0.3145
 8531TIP3   OH249787   4.275   5.357   2.967  0.0698 -0.5074 -0.9122
 8531TIP3    H149788   4.358   5.359   2.920  0.0378 -0.6399 -0.9765
 8531TIP3    H249789   4.292   5.305   3.045  0.5372  0.9899  0.0371
 8532TIP3   OH249790   7.043   2.049   1.427  0.0845 -0.3307  0.2342
 8532TIP3    H149791   7.102   2.011   1.493  0.9414  0.7216  0.1081
 8532TIP3    H249792   7.077   2.138   1.414 -2.1559  0.6862  0.9135
 8533TIP3   OH249793   0.870   2.155   0.536  0.0069  0.3213 -0.5860
 8533TIP3    H149794   0.886   2.249   0.524  1.1687  0.5056  1.7750
 8533TIP3    H249795   0.955   2.114   0.516  0.9951  0.3430  2.9372
 8534TIP3   OH249796   4.974   3.735   1.780 -0.4181 -0.3248 -0.2329
 8534TIP3    H149797   4.964   3.678   1.704 -0.4537 -1.5777  0.6768
 8534TIP3    H249798   5.010   3.816   1.745 -1.3076 -0.5350 -1.7011
 8535TIP3   OH249799   7.370   7.226   2.954  0.1243  0.5660  0.2058
 8535TIP3    H149800   7.305   7.170   2.911 -0.3396  2.9472 -2.4799
 8535TIP3    H249801   7.322   7.267   3.026 -0.7179  0.5482 -0.3254
 8536TIP3   OH249802   2.619   7.636   0.769  0.0876 -0.0427  0.0328
 8536TIP3    H149803   2.712   7.653   0.787 -0.2995  0.2876  2.0127
 8536TIP3    H249804   2.597   7.561   0.824 -1.4213  1.5618  1.8000
 8537TIP3   OH249805   1.289   2.298   0.440  0.2970  0.1339  0.2027
 8537TIP3    H149806   1.261   2.329   0.527 -0.4607 -0.4186  0.1690
 8537TIP3    H249807   1.271   2.372   0.382 -0.3607  0.0713  0.3196
 8538TIP3   OH249808   3.534   2.616   1.824 -0.6162  0.3574 -0.6692
 8538TIP3    H149809   3.465   2.570   1.871  0.7410 -1.7604 -0.6132
 8538TIP3    H249810   3.544   2.568   1.742 -0.1513  1.4760 -1.2947
 8539TIP3   OH249811   0.824   2.676   2.433  0.3429 -0.0829  0.0042
 8539TIP3    H149812   0.868   2.752   2.394  0.4865 -0.8892 -1.5016
 8539TIP3    H249813   0.889   2.607   2.430  0.5081 -0.0879  2.1854
 8540TIP3   OH249814   0.298   3.672   2.134  0.3568 -0.6119 -0.1651
 8540TIP3    H149815   0.322   3.601   2.074 -0.4162 -1.0134 -0.0067
 8540TIP3    H249816   0.231   3.722   2.086  0.8717  0.0056 -0.2633
 8541TIP3   OH249817   3.036   0.268   0.937  0.7007  0.8042  0.0887
 8541TIP3    H149818   3.092   0.345   0.944 -0.7117  1.8188  0.6793
 8541TIP3    H249819   2.969   0.292   0.872  0.5839 -0.1418 -0.1604
 8542TIP3   OH249820   0.349   5.005   1.751  0.1990  0.3812  0.0918
 8542TIP3    H149821   0.327   4.969   1.665 -0.1629  2.0292 -0.5257
 8542TIP3    H249822   0.355   4.928   1.808 -0.8978 -0.6213 -1.1038
 8543TIP3   OH249823   2.123   0.594   2.406  0.0334 -0.3663  0.2950
 8543TIP3    H149824   2.125   0.521   2.467  0.3261  0.0524  0.8005
 8543TIP3    H249825   2.098   0.556   2.323 -0.0721 -0.9974  0.6131
 8544TIP3   OH249826   1.016   6.098   1.202  0.5666 -0.4213  0.3311
 8544TIP3    H149827   1.078   6.101   1.129  0.6022  2.7433  0.3403
 8544TIP3    H249828   0.986   6.189   1.211  0.2179 -0.7677  3.9722
 8545TIP3   OH249829   5.764   0.605   0.809 -0.4638  0.3809 -0.4924
 8545TIP3    H149830   5.738   0.566   0.725 -0.2155  0.2225 -0.4956
 8545TIP3    H249831   5.778   0.531   0.867 -0.3215  0.4764 -0.4032
 8546TIP3   OH249832   5.676   3.556   3.167 -0.0959  0.5268 -0.1237
 8546TIP3    H149833   5.692   3.540   3.074 -0.7619  0.2127 -0.1902
 8546TIP3    H249834   5.581   3.561   3.175 -0.0147  1.3806  0.4154
 8547TIP3   OH249835   4.184   6.965   2.658 -0.1179  0.3724  0.1871
 8547TIP3    H149836   4.110   7.009   2.699 -2.4859 -2.3061 -0.8702
 8547TIP3    H249837   4.178   6.988   2.565  0.6639  0.4900  0.1580
 8548TIP3   OH249838   4.034   4.154   2.058 -0.1347 -0.2213 -0.7201
 8548TIP3    H149839   3.954   4.167   2.110  0.0713  0.2430 -0.5080
 8548TIP3    H249840   4.102   4.201   2.108  0.1499 -0.1223 -1.1962
 8549TIP3   OH249841   7.656   0.002   2.406 -0.7809 -0.4232 -0.7015
 8549TIP3    H149842   7.706   0.083   2.397  1.2393 -1.8035 -3.0984
 8549TIP3    H249843   7.567   0.031   2.426  0.1940  2.2755  0.1688
 8550TIP3   OH249844   4.151   7.464   6.878  0.0867  0.0758 -0.3074
 8550TIP3    H149845   4.058   7.486   6.876 -0.4478 -1.4470  2.6433
 8550TIP3    H249846   4.190   7.527   6.938  0.6697 -0.1927 -0.3980
 8551TIP3   OH249847   4.457   1.552   2.884  0.4449  0.2504  0.1829
 8551TIP3    H149848   4.550   1.546   2.904  0.6861  2.5372  0.0642
 8551TIP3    H249849   4.418   1.473   2.922  2.5187 -1.2006 -0.5218
 8552TIP3   OH249850   6.960   3.858   1.646  0.0356 -0.3517  0.0406
 8552TIP3    H149851   6.892   3.915   1.681 -1.8408 -2.3387 -0.1141
 8552TIP3    H249852   6.976   3.890   1.558 -1.7913 -0.6674 -0.4416
 8553TIP3   OH249853   2.837   0.452   2.634 -0.2008  0.2004  0.5387
 8553TIP3    H149854   2.801   0.385   2.575  4.5029 -0.5023 -2.0084
 8553TIP3    H249855   2.806   0.425   2.721 -1.2021 -3.3850 -0.7213
 8554TIP3   OH249856   3.788   1.164   3.407  0.4905  0.9076  0.0202
 8554TIP3    H149857   3.716   1.136   3.350  0.2370  3.2538 -0.9225
 8554TIP3    H249858   3.753   1.239   3.454  1.2697  0.0469  2.1001
 8555TIP3   OH249859   0.983   1.727   1.034 -0.0760  0.2334 -0.3635
 8555TIP3    H149860   0.888   1.712   1.032 -0.2886  1.4734 -0.5373
 8555TIP3    H249861   1.001   1.776   0.954  0.4434  1.3933  0.4359
 8556TIP3   OH249862   1.467   5.174   2.261 -0.4736  0.1138 -0.3251
 8556TIP3    H149863   1.437   5.263   2.246 -0.8606 -0.0564 -0.5927
 8556TIP3    H249864   1.526   5.155   2.188  2.2988  1.2941  1.4603
 8557TIP3   OH249865   1.413   3.131   1.852 -0.0820 -0.1449  0.5876
 8557TIP3    H149866   1.480   3.133   1.783  0.7016 -0.7853  1.3046
 8557TIP3    H249867   1.332   3.111   1.806  0.5304 -1.1469 -0.0982
 8558TIP3   OH249868   1.125   6.706   3.049  0.8671  0.4793  0.4637
 8558TIP3    H149869   1.194   6.654   3.089  1.8326  1.9496  0.8040
 8558TIP3    H249870   1.044   6.679   3.093  0.9397 -2.2486 -0.8708
 8559TIP3   OH249871   0.734   6.483   1.734 -0.1063 -0.2823 -0.2147
 8559TIP3    H149872   0.809   6.527   1.774 -0.4769  0.8109 -0.6750
 8559TIP3    H249873   0.710   6.415   1.796  0.7528 -0.1128  0.3191
 8560TIP3   OH249874   7.679   7.367   3.529 -0.1446 -0.2987 -0.0459
 8560TIP3    H149875   7.745   7.336   3.466  1.3034 -0.3408  1.4177
 8560TIP3    H249876   7.653   7.453   3.496 -1.4629 -1.4174 -2.1408
 8561TIP3   OH249877   4.722   5.513   2.188  0.3407 -0.4753  0.0691
 8561TIP3    H149878   4.676   5.545   2.265  1.7907 -0.3691  0.9287
 8561TIP3    H249879   4.781   5.445   2.221 -0.0429 -1.4658 -1.1799
 8562TIP3   OH249880   2.913   5.842   7.789  0.1404  0.1273 -0.6059
 8562TIP3    H149881   2.899   5.927   7.748 -0.0176  0.0972 -0.6174
 8562TIP3    H249882   2.997   5.812   7.754  0.3257  0.3945 -0.3965
 8563TIP3   OH249883   0.106   4.873   1.474  0.7739 -0.2233  0.2591
 8563TIP3    H149884   0.193   4.835   1.462  0.4542 -0.9682  0.2734
 8563TIP3    H249885   0.060   4.811   1.530 -0.5723 -1.0709 -1.7119
 8564TIP3   OH249886   2.358   6.403   1.150  0.3409 -0.1920  0.1418
 8564TIP3    H149887   2.316   6.318   1.164 -1.2118  0.6726  1.0125
 8564TIP3    H249888   2.297   6.467   1.188  1.4022  1.3329 -0.5959
 8565TIP3   OH249889   5.193   0.803   2.736  0.2973  0.2946 -0.2762
 8565TIP3    H149890   5.278   0.759   2.732 -0.0328 -0.4520  0.4095
 8565TIP3    H249891   5.132   0.742   2.693 -0.1457  0.1073  0.5749
 8566TIP3   OH249892   4.523   0.827   1.197  0.3641  0.1009 -0.0326
 8566TIP3    H149893   4.551   0.899   1.254 -0.0100 -0.9093  1.4654
 8566TIP3    H249894   4.580   0.835   1.120 -0.0540  2.3351 -0.1870
 8567TIP3   OH249895   4.299   1.819   1.456 -0.0874  0.2135 -0.4234
 8567TIP3    H149896   4.228   1.883   1.457  1.2376  1.7846 -1.3917
 8567TIP3    H249897   4.354   1.845   1.382  1.9269 -0.4252  0.7700
 8568TIP3   OH249898   6.919   2.659   1.227  0.0182 -0.2243 -0.5451
 8568TIP3    H149899   6.997   2.713   1.215 -0.6508  0.5457 -1.6987
 8568TIP3    H249900   6.948   2.570   1.210  1.2031 -0.3305  1.6471
 8569TIP3   OH249901   4.771   5.834   0.538 -0.0911 -0.5567  0.5977
 8569TIP3    H149902   4.778   5.795   0.451  1.7791  1.0808 -0.0750
 8569TIP3    H249903   4.834   5.785   0.591 -0.9133 -1.2691  0.9294
 8570TIP3   OH249904   2.766   7.037   0.937  0.0135 -0.2735  0.0432
 8570TIP3    H149905   2.810   7.018   0.854  1.8034 -0.0122  0.8876
 8570TIP3    H249906   2.804   6.974   0.998 -0.4880  0.2440  0.9002
 8571TIP3   OH249907   1.085   6.339   1.572  0.0365  0.6832 -0.3740
 8571TIP3    H149908   1.015   6.395   1.538 -0.1903  2.1918  2.3057
 8571TIP3    H249909   1.165   6.388   1.555 -0.0770  1.4359  1.1215
 8572TIP3   OH249910   5.500   5.084   2.520  0.6789  0.5711  0.0828
 8572TIP3    H149911   5.585   5.093   2.564  0.5799 -0.6519  0.5474
 8572TIP3    H249912   5.503   4.998   2.479 -1.1741 -0.4937  2.0122
 8573TIP3   OH249913   0.935   6.738   1.576 -0.3474  0.8184 -0.0708
 8573TIP3    H149914   0.943   6.832   1.592  0.4083  1.0720 -1.7269
 8573TIP3    H249915   0.950   6.728   1.482  1.4059 -1.1335  0.3324
 8574TIP3   OH249916   3.800   1.877   2.748  0.2120  0.7117  0.1190
 8574TIP3    H149917   3.787   1.873   2.654  0.9431  0.6665  0.0120
 8574TIP3    H249918   3.715   1.854   2.786  0.2942 -0.7451 -0.5155
 8575TIP3   OH249919   0.438   4.920   0.743 -0.3945 -0.4615 -0.4968
 8575TIP3    H149920   0.448   4.854   0.675 -1.4311 -0.0003 -1.1071
 8575TIP3    H249921   0.356   4.964   0.723  0.1093  0.7951  0.0994
 8576TIP3   OH249922   2.652   4.485   1.502 -0.8229  0.0478  0.0332
 8576TIP3    H149923   2.673   4.543   1.575 -0.3899 -1.1586  0.8929
 8576TIP3    H249924   2.723   4.421   1.500 -2.1657 -1.5100  0.2476
 8577TIP3   OH249925   6.817   1.633   2.413  0.4808  0.6669  0.1824
 8577TIP3    H149926   6.777   1.699   2.470 -0.8651  0.3798 -0.3938
 8577TIP3    H249927   6.784   1.549   2.446  0.1508  0.4620 -0.6448
 8578TIP3   OH249928   5.205   1.758   1.139  0.2790  0.0422 -0.1989
 8578TIP3    H149929   5.161   1.750   1.054  0.9453 -0.9942 -0.4658
 8578TIP3    H249930   5.160   1.696   1.196  1.3723 -1.0342 -0.4769
 8579TIP3   OH249931   1.930   7.619   1.232  0.2319 -0.8164  0.2465
 8579TIP3    H149932   1.941   7.634   1.326  1.3783 -0.0388  0.0080
 8579TIP3    H249933   1.840   7.647   1.214  0.9679  2.1338  0.5833
 8580TIP3   OH249934   1.754   5.753   1.454 -0.1574 -0.5592 -0.5938
 8580TIP3    H149935   1.832   5.717   1.413 -0.6564 -2.8746  0.3290
 8580TIP3    H249936   1.694   5.769   1.381  0.1644 -1.4651 -1.0737
 8581TIP3   OH249937   2.215   5.107   2.488  0.2272  0.1612 -0.4144
 8581TIP3    H149938   2.261   5.034   2.529  1.1294  0.4849 -0.8187
 8581TIP3    H249939   2.166   5.066   2.416 -0.7150 -0.2875  0.4596
 8582TIP3   OH249940   3.267   5.527   1.161  0.3835 -0.7319  0.0376
 8582TIP3    H149941   3.273   5.534   1.066 -0.6077  0.6314  0.0361
 8582TIP3    H249942   3.344   5.477   1.187  0.6442 -1.1584 -1.4789
 8583TIP3   OH249943   5.004   0.371   1.387 -0.2034  0.3669 -0.1447
 8583TIP3    H149944   4.991   0.377   1.292 -0.2787 -0.5928 -0.2009
 8583TIP3    H249945   5.069   0.302   1.398  0.2748  0.9052  0.4759
 8584TIP3   OH249946   3.575   1.058   2.694  0.2989  0.2507 -0.1043
 8584TIP3    H149947   3.524   0.999   2.639  2.0102 -0.0865 -1.4096
 8584TIP3    H249948   3.621   1.115   2.632  1.1215  0.8745  1.0360
 8585TIP3   OH249949   6.965   6.612   1.496  0.2102  0.4915  0.4040
 8585TIP3    H149950   6.993   6.523   1.473  0.2107  0.8752 -1.1408
 8585TIP3    H249951   6.994   6.623   1.587  0.6516 -0.9020  0.4569
 8586TIP3   OH249952   1.883   7.082   1.846  0.0839 -0.2266 -0.0318
 8586TIP3    H149953   1.816   7.014   1.839  2.1304 -2.6816  2.3567
 8586TIP3    H249954   1.894   7.096   1.940  2.8985  0.0754 -0.3205
 8587TIP3   OH249955   3.667   1.672   3.427 -0.0121  0.1541 -0.3654
 8587TIP3    H149956   3.628   1.655   3.341 -0.1328  0.7936 -0.4442
 8587TIP3    H249957   3.759   1.691   3.407 -0.5119  2.5878 -0.6326
 8588TIP3   OH249958   7.378   6.402   2.225  0.2289 -0.1186 -0.3565
 8588TIP3    H149959   7.371   6.309   2.204 -0.5910 -0.1791  0.1484
 8588TIP3    H249960   7.447   6.406   2.292 -1.1669 -0.6500  1.1844
 8589TIP3   OH249961   6.341   0.684   1.584  0.5300 -0.4621  0.1203
 8589TIP3    H149962   6.385   0.760   1.546 -1.0323  0.6093  0.3546
 8589TIP3    H249963   6.265   0.670   1.528 -1.0528  0.2930  1.9493
 8590TIP3   OH249964   6.451   5.827   0.597  0.4175  0.1676  0.1137
 8590TIP3    H149965   6.431   5.917   0.621  1.1780  0.5299 -0.5439
 8590TIP3    H249966   6.492   5.834   0.510 -0.1765 -0.8782 -0.2726
 8591TIP3   OH249967   0.431   5.257   1.813 -0.3569 -0.2321  0.3559
 8591TIP3    H149968   0.515   5.235   1.852  0.4833  1.2610 -0.5126
 8591TIP3    H249969   0.401   5.177   1.772  2.1197 -0.1160 -1.9319
 8592TIP3   OH249970   6.479   7.061   2.157 -0.0458 -0.5843  0.7706
 8592TIP3    H149971   6.467   7.150   2.191  0.4499 -0.5824  0.9478
 8592TIP3    H249972   6.410   7.050   2.092  1.4819  0.9125 -1.2531
 8593TIP3   OH249973   0.200   4.657   1.130  0.4438 -0.0193  0.2999
 8593TIP3    H149974   0.235   4.643   1.042  1.2011 -0.6590  0.6830
 8593TIP3    H249975   0.147   4.736   1.123 -0.8473 -0.9701 -1.0899
 8594TIP3   OH249976   5.316   2.914   0.853  0.4316  0.3007  0.3513
 8594TIP3    H149977   5.381   2.880   0.915 -1.0212  0.0018  1.7717
 8594TIP3    H249978   5.265   2.838   0.826  1.7029  0.2140 -2.1605
 8595TIP3   OH249979   6.122   0.369   1.885  0.1041  0.1678  0.1666
 8595TIP3    H149980   6.168   0.311   1.946 -0.6535  0.3139  0.8911
 8595TIP3    H249981   6.191   0.416   1.840  0.7198 -0.8646 -0.0040
 8596TIP3   OH249982   2.017   2.097   0.593  0.1002 -0.7383  0.1804
 8596TIP3    H149983   1.963   2.119   0.668 -1.7928 -0.1111 -1.2824
 8596TIP3    H249984   2.023   2.178   0.542  3.2781 -0.4895  0.6920
 8597TIP3   OH249985   2.945   2.628   1.139  0.0448  0.3056  0.4599
 8597TIP3    H149986   2.955   2.533   1.132 -0.0318  0.3262  0.0364
 8597TIP3    H249987   3.027   2.663   1.104 -1.3893  0.4806 -3.1972
 8598TIP3   OH249988   1.928   5.085   1.853  0.2949  0.1894 -0.0920
 8598TIP3    H149989   1.996   5.085   1.785 -0.5048 -0.0798 -0.9122
 8598TIP3    H249990   1.934   5.171   1.893  0.4276  0.5474 -0.8642
 8599TIP3   OH249991   2.926   0.934   0.703 -0.4706 -0.5087  0.1316
 8599TIP3    H149992   3.005   0.954   0.752 -0.1743 -0.5730 -0.3113
 8599TIP3    H249993   2.948   0.956   0.612 -0.2833 -2.3308 -0.3109
 8600TIP3   OH249994   3.059   4.130   2.450 -0.0422 -0.3075 -0.6569
 8600TIP3    H149995   3.052   4.225   2.461 -3.7873 -0.5677  0.4769
 8600TIP3    H249996   3.059   4.096   2.539  2.1987 -1.4321 -1.0168
 8601TIP3   OH249997   7.446   7.641   2.834  0.2651  0.2596  0.4716
 8601TIP3    H149998   7.491   7.557   2.826 -0.2749  0.1405 -2.1784
 8601TIP3    H249999   7.501   7.703   2.786 -0.0309  1.1382  1.2315
 8602TIP3   OH250000   4.898   7.341   2.955  0.4828 -0.2523  0.6566
 8602TIP3    H150001   4.913   7.252   2.923 -0.9054  0.2358 -1.5738
 8602TIP3    H250002   4.815   7.367   2.915  0.0899  1.5365  2.4647
 8603TIP3   OH250003   3.105   2.441   0.930 -0.5676 -0.2455  1.0079
 8603TIP3    H150004   3.087   2.422   0.838  0.3204 -0.3640  0.8537
 8603TIP3    H250005   3.064   2.368   0.977 -1.2591 -0.0439  0.7348
 8604TIP3   OH250006   2.824   0.105   3.279  0.1597  0.1151  0.2772
 8604TIP3    H150007   2.860   0.080   3.194  0.6650 -1.8402  1.0042
 8604TIP3    H250008   2.895   0.154   3.321  0.6490 -0.5740  0.2835
 8605TIP3   OH250009   4.067   3.740   1.232 -0.5122 -0.1247 -0.1372
 8605TIP3    H150010   4.056   3.655   1.274 -2.6750 -0.8485 -2.0339
 8605TIP3    H250011   4.121   3.722   1.155 -2.2847 -0.1246 -1.4189
 8606TIP3   OH250012   6.039   1.055   2.086  0.2276  0.2674  0.0275
 8606TIP3    H150013   6.038   1.064   2.181  1.2690 -0.0369  0.0893
 8606TIP3    H250014   5.953   1.020   2.063 -0.0461  0.3969  0.8532
 8607TIP3   OH250015   1.288   6.875   3.313 -0.2473  0.2148  0.1971
 8607TIP3    H150016   1.208   6.906   3.270 -0.6222 -0.2978  0.5151
 8607TIP3    H250017   1.318   6.950   3.363 -1.0864  0.1131  0.8712
 8608TIP3   OH250018   4.641   1.756   0.957 -0.0554 -0.6751  0.6579
 8608TIP3    H150019   4.636   1.714   1.042 -0.8259 -0.7439  0.5844
 8608TIP3    H250020   4.552   1.752   0.922  0.4354 -1.5045 -0.5669
 8609TIP3   OH250021   2.893   3.272   2.666  0.0308 -0.5102  0.5130
 8609TIP3    H150022   2.831   3.345   2.654 -0.2169 -0.5000  1.7067
 8609TIP3    H250023   2.962   3.309   2.721  0.9981 -0.5946 -0.6105
 8610TIP3   OH250024   0.391   4.833   1.519  0.8421 -0.0935 -0.2188
 8610TIP3    H150025   0.339   4.773   1.573  1.3285 -0.0725  0.2763
 8610TIP3    H250026   0.480   4.825   1.553  1.1870 -0.2134 -1.1366
 8611TIP3   OH250027   2.003   0.658   0.852 -0.1723  0.2832 -0.6540
 8611TIP3    H150028   1.935   0.718   0.882 -0.3076 -0.8657  1.5725
 8611TIP3    H250029   2.081   0.712   0.845 -0.8305  1.1969 -1.1920
 8612TIP3   OH250030   5.766   3.946   1.105 -0.3020  0.0604 -0.2965
 8612TIP3    H150031   5.827   3.980   1.040 -0.3222 -0.5734 -0.6498
 8612TIP3    H250032   5.721   4.024   1.138 -2.9547  0.2062 -3.6919
 8613TIP3   OH250033   5.406   0.910   1.900  0.3468 -0.0885 -0.4183
 8613TIP3    H150034   5.478   0.868   1.946 -0.2495 -0.7515 -0.0710
 8613TIP3    H250035   5.372   0.844   1.841 -0.7797 -0.2266  0.3327
 8614TIP3   OH250036   3.307   4.068   0.943 -0.2948  0.1660 -0.1274
 8614TIP3    H150037   3.380   4.084   0.883 -0.4784 -2.3386 -1.1593
 8614TIP3    H250038   3.342   4.006   1.007 -1.3876 -0.9276 -0.5307
 8615TIP3   OH250039   6.414   2.140   0.778 -0.2296 -0.5391 -0.0415
 8615TIP3    H150040   6.441   2.223   0.817  0.0494 -0.4729 -0.3727
 8615TIP3    H250041   6.320   2.136   0.795  0.0873 -1.1280  1.7678
 8616TIP3   OH250042   2.084   7.584   2.755 -0.8694 -0.2277  0.2329
 8616TIP3    H150043   2.151   7.623   2.699 -2.2184 -0.2050 -1.4887
 8616TIP3    H250044   2.120   7.500   2.782 -0.1280 -0.1898 -0.5991
 8617TIP3   OH250045   1.965   2.384   0.659  0.2572 -0.8772 -0.6401
 8617TIP3    H150046   1.986   2.336   0.739 -0.0416 -2.9379 -1.7085
 8617TIP3    H250047   2.048   2.421   0.630  0.2145  0.6746  1.0341
 8618TIP3   OH250048   5.934   6.616   2.671 -0.5731  0.5572  0.5064
 8618TIP3    H150049   6.017   6.648   2.633  0.5483 -3.2308 -0.6638
 8618TIP3    H250050   5.872   6.618   2.599 -0.6220  0.4740  0.5463
 8619TIP3   OH250051   4.510   7.223   1.201  0.0635  0.4395  0.1250
 8619TIP3    H150052   4.476   7.235   1.290  0.5971  1.5457  0.1960
 8619TIP3    H250053   4.591   7.274   1.199  0.1067  0.3583 -0.9771
 8620TIP3   OH250054   6.615   1.453   1.648 -0.5313  0.1682  0.0637
 8620TIP3    H150055   6.532   1.468   1.601  0.1664  3.0892 -0.4243
 8620TIP3    H250056   6.681   1.449   1.579  0.0586  0.5637  0.6060
 8621TIP3   OH250057   7.329   5.197   1.694 -0.1226 -0.3596  0.1323
 8621TIP3    H150058   7.390   5.231   1.629 -0.9239 -0.0968 -0.4942
 8621TIP3    H250059   7.272   5.271   1.714 -1.2975 -1.0654 -0.5464
 8622TIP3   OH250060   1.204   6.115   2.423 -0.5256 -0.4313 -0.2848
 8622TIP3    H150061   1.181   6.096   2.514  0.0584  0.3903  0.0426
 8622TIP3    H250062   1.205   6.211   2.418  1.3567 -0.4365 -0.6420
 8623TIP3   OH250063   5.428   7.276   2.303 -0.1199 -0.3732  0.0247
 8623TIP3    H150064   5.377   7.310   2.230  1.2532 -0.4168 -0.9925
 8623TIP3    H250065   5.471   7.353   2.341  0.7144 -0.5743 -0.4741
 8624TIP3   OH250066   5.317   6.674   1.821  0.1409 -0.1276 -0.9091
 8624TIP3    H150067   5.299   6.754   1.871  1.3302  0.6508 -1.6665
 8624TIP3    H250068   5.242   6.664   1.763 -1.0659 -0.8159  0.6750
 8625TIP3   OH250069   0.878   0.774   3.281  0.1471 -0.2489 -0.2497
 8625TIP3    H150070   0.855   0.822   3.361  2.9392 -0.6592  0.8909
 8625TIP3    H250071   0.848   0.685   3.297  0.1696 -0.1950  0.0932
 8626TIP3   OH250072   0.481   3.150   2.091 -0.4174  0.3430 -0.1782
 8626TIP3    H150073   0.520   3.160   2.004 -1.3993  2.9944 -0.3998
 8626TIP3    H250074   0.553   3.116   2.145  0.7256  0.3283 -1.6283
 8627TIP3   OH250075   5.106   2.911   1.450  0.5999 -0.0360  0.6748
 8627TIP3    H150076   5.091   2.861   1.531 -0.9704  0.0951  0.5055
 8627TIP3    H250077   5.154   2.989   1.479 -0.9610  0.6040  1.7218
 8628TIP3   OH250078   6.585   3.871   0.622 -0.2875 -0.4904  0.3078
 8628TIP3    H150079   6.556   3.785   0.592  0.3920 -0.4262 -0.5802
 8628TIP3    H250080   6.504   3.920   0.635 -0.6533 -0.9682 -0.1055
 8629TIP3   OH250081   1.440   6.609   3.379  0.5002  0.3388 -0.0155
 8629TIP3    H150082   1.372   6.677   3.384 -0.2725 -0.4887  2.9545
 8629TIP3    H250083   1.518   6.652   3.415  0.2671 -0.0227  0.9518
 8630TIP3   OH250084   7.591   7.020   3.183 -0.2474  0.7968 -0.0804
 8630TIP3    H150085   7.536   7.058   3.115  0.2480 -0.6069 -1.3038
 8630TIP3    H250086   7.535   6.956   3.227 -0.2562  0.9874  0.1971
 8631TIP3   OH250087   3.151   4.907   1.115 -0.0217 -0.3716  0.9578
 8631TIP3    H150088   3.206   4.982   1.135  0.4289 -0.4377 -0.0159
 8631TIP3    H250089   3.084   4.908   1.184 -1.0615  1.9414  0.0187
 8632TIP3   OH250090   6.274   5.205   0.897 -0.2530  0.0381 -0.0884
 8632TIP3    H150091   6.235   5.157   0.970  1.2098 -1.4171 -0.2019
 8632TIP3    H250092   6.236   5.164   0.819 -0.1484  0.1026 -0.1737
 8633TIP3   OH250093   7.653   2.148   1.713  0.4138  0.6016  0.6292
 8633TIP3    H150094   7.620   2.234   1.741  1.1983  0.4221  2.2208
 8633TIP3    H250095   7.720   2.127   1.778  1.3244 -0.5160 -0.6453
 8634TIP3   OH250096   6.877   3.169   2.478 -0.3906 -0.5835  0.6395
 8634TIP3    H150097   6.934   3.107   2.431 -0.4454  1.2378 -2.0632
 8634TIP3    H250098   6.789   3.138   2.460 -0.4215  0.2164 -0.7758
 8635TIP3   OH250099   6.830   0.833   0.411 -0.0461  0.1711  0.0685
 8635TIP3    H150100   6.753   0.796   0.453 -1.0182  0.3616 -1.4794
 8635TIP3    H250101   6.838   0.921   0.449 -1.4572  0.6908 -0.7829
 8636TIP3   OH250102   4.554   1.992   0.683  0.1677  0.6001 -0.3541
 8636TIP3    H150103   4.523   1.912   0.724  1.5904  0.0347 -0.3205
 8636TIP3    H250104   4.631   2.017   0.734  0.0684  1.6855 -0.6993
 8637TIP3   OH250105   4.884   6.246   2.072 -0.2303 -0.4470 -0.6057
 8637TIP3    H150106   4.839   6.213   1.994  0.2408 -0.7656 -0.7427
 8637TIP3    H250107   4.858   6.186   2.142 -0.1286 -0.5527 -0.6576
 8638TIP3   OH250108   1.115   2.503   1.872  0.3372 -0.0247  0.6774
 8638TIP3    H150109   1.176   2.575   1.889 -0.2955  0.7398 -0.2025
 8638TIP3    H250110   1.051   2.540   1.811 -0.2911 -1.1876  0.6128
 8639TIP3   OH250111   0.086   6.920   2.298  0.0640 -0.1693 -0.3178
 8639TIP3    H150112   0.158   6.975   2.330 -0.3583  0.9249 -1.1921
 8639TIP3    H250113   0.065   6.956   2.212 -0.0367 -1.8979 -1.0558
 8640TIP3   OH250114   5.742   2.827   1.276  0.1167 -0.4843 -0.1661
 8640TIP3    H150115   5.692   2.767   1.331  1.2455 -1.2874  0.0220
 8640TIP3    H250116   5.825   2.840   1.323  0.7259 -0.4631 -1.2108
 8641TIP3   OH250117   6.003   6.015   0.451  0.1797 -0.1554  0.3466
 8641TIP3    H150118   5.978   5.923   0.467 -0.8651  0.0905  0.1820
 8641TIP3    H250119   6.099   6.013   0.446  0.1917 -1.1769  0.7414
 8642TIP3   OH250120   3.772   6.220   1.944  0.4352  0.3929  0.5829
 8642TIP3    H150121   3.824   6.255   1.872 -1.5578  1.4325 -0.4247
 8642TIP3    H250122   3.783   6.284   2.015  0.1668  0.8764  0.1989
 8643TIP3   OH250123   2.427   6.767   1.112  0.4781 -0.3741  0.1318
 8643TIP3    H150124   2.371   6.703   1.157 -1.2286  0.0826 -1.2494
 8643TIP3    H250125   2.461   6.822   1.182 -1.4959 -0.1513  0.9852
 8644TIP3   OH250126   5.902   1.403   1.412 -0.4355  0.0992 -0.3170
 8644TIP3    H150127   5.859   1.398   1.327 -1.8660  0.4533  0.3433
 8644TIP3    H250128   5.994   1.415   1.392 -0.5142 -1.4157 -1.8216
 8645TIP3   OH250129   2.741   6.689   1.428  0.1004 -0.2982 -0.3405
 8645TIP3    H150130   2.678   6.749   1.389  0.2916 -0.9924 -1.7586
 8645TIP3    H250131   2.809   6.677   1.361 -0.2337 -2.5516 -0.3764
 8646TIP3   OH250132   4.981   7.286   3.232  0.4101 -0.4469  0.0276
 8646TIP3    H150133   4.949   7.313   3.146 -1.0459 -2.4937 -0.1387
 8646TIP3    H250134   4.902   7.277   3.286  1.2577  0.3585  1.4869
 8647TIP3   OH250135   0.551   0.894   1.885  0.5949  0.2865 -0.2208
 8647TIP3    H150136   0.600   0.823   1.843  0.2129  0.0048 -0.1999
 8647TIP3    H250137   0.558   0.875   1.979  1.7167  1.0913 -0.1132
 8648TIP3   OH250138   1.226   6.390   2.033 -0.2026  0.0755  0.0130
 8648TIP3    H150139   1.283   6.417   1.961 -0.9334  0.4316 -0.4418
 8648TIP3    H250140   1.180   6.313   2.000 -0.9764  0.5897 -0.1305
 8649TIP3   OH250141   6.242   0.801   2.196 -0.0238  0.1727  0.1332
 8649TIP3    H150142   6.263   0.709   2.185  0.5260  0.2826  0.2153
 8649TIP3    H250143   6.163   0.802   2.250 -0.8563 -0.2822 -1.0206
 8650TIP3   OH250144   0.698   1.557   1.261 -0.2091 -0.1011  0.4222
 8650TIP3    H150145   0.625   1.558   1.324 -0.6666 -1.5543 -0.0514
 8650TIP3    H250146   0.741   1.473   1.277  1.6147  0.8801  0.9349
 8651TIP3   OH250147   4.647   5.943   2.766 -0.2457  0.0862 -0.2485
 8651TIP3    H150148   4.564   5.981   2.797  0.2171  0.7799  0.1583
 8651TIP3    H250149   4.674   6.001   2.695  0.3333  0.3799  0.2046
 8652TIP3   OH250150   0.993   7.017   1.605 -0.6982  0.0386 -0.1345
 8652TIP3    H150151   0.975   7.068   1.526 -1.1158 -0.4300 -0.3425
 8652TIP3    H250152   0.954   7.068   1.676  0.4006  0.8940 -0.0991
 8653TIP3   OH250153   2.881   3.852   2.415 -0.3608 -0.0210  0.0714
 8653TIP3    H150154   2.921   3.812   2.492 -0.0634 -0.6991 -0.4210
 8653TIP3    H250155   2.894   3.787   2.346 -0.4559  0.6634 -0.5918
 8654TIP3   OH250156   0.706   6.087   0.711  0.1570 -0.1199 -0.3761
 8654TIP3    H150157   0.695   5.995   0.684 -2.9874 -0.3032  1.0339
 8654TIP3    H250158   0.653   6.095   0.790  0.5100  2.9020 -0.3244
 8655TIP3   OH250159   4.069   6.236   1.292  0.3117  0.2088  0.3977
 8655TIP3    H150160   4.133   6.182   1.246  0.2824 -0.3662  1.0077
 8655TIP3    H250161   4.121   6.297   1.344  0.3483  0.5214 -0.0000
 8656TIP3   OH250162   4.803   5.383   2.918 -0.6161 -0.8834  0.3771
 8656TIP3    H150163   4.840   5.460   2.962 -2.9668  0.8949 -0.5151
 8656TIP3    H250164   4.874   5.350   2.863  0.4481  0.7360  0.7167
 8657TIP3   OH250165   5.537   7.639   2.029 -0.3797 -0.0642  0.1589
 8657TIP3    H150166   5.446   7.667   2.028 -0.0131  1.1961 -0.2414
 8657TIP3    H250167   5.571   7.665   1.943  1.5853  3.9554  1.9013
 8658TIP3   OH250168   0.551   4.371   1.113  0.6772  0.2451 -0.3073
 8658TIP3    H150169   0.601   4.310   1.166  0.1018 -1.0391 -1.1790
 8658TIP3    H250170   0.460   4.347   1.128  0.4856  0.1399 -1.4898
 8659TIP3   OH250171   4.392   4.180   1.704 -0.2685  0.6051  0.1267
 8659TIP3    H150172   4.392   4.241   1.630 -0.3847  0.1355 -0.2653
 8659TIP3    H250173   4.384   4.093   1.663 -0.3399  0.3442  0.6916
 8660TIP3   OH250174   6.497   3.604   0.837  0.1536 -0.0317 -0.2081
 8660TIP3    H150175   6.470   3.520   0.798  0.8585 -1.7176  2.6718
 8660TIP3    H250176   6.436   3.667   0.799 -2.1906 -2.2705 -0.5117
 8661TIP3   OH250177   2.206   0.105   3.471  0.1990  0.1337 -0.0008
 8661TIP3    H150178   2.282   0.079   3.419  0.3103  1.4589 -0.5224
 8661TIP3    H250179   2.237   0.176   3.527 -0.3037 -0.2790  0.8396
 8662TIP3   OH250180   5.466   6.928   1.379  0.0257  0.4096  0.2177
 8662TIP3    H150181   5.547   6.876   1.375 -0.2436  0.0327 -0.5327
 8662TIP3    H250182   5.450   6.941   1.472  0.5938 -0.0787  0.3870
 8663TIP3   OH250183   7.323   5.515   1.952  0.7233  0.6619 -0.1281
 8663TIP3    H150184   7.351   5.424   1.966  1.8752  1.1561  1.0382
 8663TIP3    H250185   7.319   5.524   1.857  2.7525 -0.0276 -0.3304
 8664TIP3   OH250186   6.034   7.018   1.650 -0.0509 -0.1734  0.1297
 8664TIP3    H150187   5.978   7.051   1.580  1.2457 -1.7943 -1.7532
 8664TIP3    H250188   6.105   7.082   1.656 -1.1618  1.0040  1.3849
 8665TIP3   OH250189   7.370   0.881   2.445 -0.0870 -0.1248  0.1939
 8665TIP3    H150190   7.276   0.890   2.434  0.0320  2.0040  0.5247
 8665TIP3    H250191   7.389   0.929   2.526  1.4610  0.8104 -0.6812
 8666TIP3   OH250192   0.544   7.238   2.400 -0.2425  0.4979 -0.0378
 8666TIP3    H150193   0.487   7.270   2.330 -0.1827  1.4707  0.3487
 8666TIP3    H250194   0.532   7.300   2.472 -1.7288 -1.4637  1.5616
 8667TIP3   OH250195   0.422   4.100   1.719 -0.1802 -0.3050  0.3419
 8667TIP3    H150196   0.513   4.126   1.725  0.1438 -0.9265 -1.3448
 8667TIP3    H250197   0.375   4.159   1.779  0.8984  2.0638 -1.0382
 8668TIP3   OH250198   6.152   4.463   2.566 -0.4129  0.2440  0.2003
 8668TIP3    H150199   6.188   4.473   2.654  0.3708  1.3706 -0.2237
 8668TIP3    H250200   6.170   4.547   2.524 -0.6096 -0.3473 -1.0920
 8669TIP3   OH250201   4.484   3.307   2.744  0.5690  0.5953  0.1685
 8669TIP3    H150202   4.442   3.304   2.830 -0.5455 -0.5175 -0.3772
 8669TIP3    H250203   4.439   3.377   2.697  2.5972  2.6660  1.1352
 8670TIP3   OH250204   0.266   1.995   0.974  0.1164  0.1649 -0.3595
 8670TIP3    H150205   0.277   2.005   1.068  1.0638 -1.2006 -0.3052
 8670TIP3    H250206   0.201   1.926   0.964  1.1534 -0.8040 -0.6729
 8671TIP3   OH250207   0.350   2.327   0.634 -0.1613 -0.3914 -0.5553
 8671TIP3    H150208   0.439   2.295   0.613 -0.2939  0.0412 -1.8974
 8671TIP3    H250209   0.293   2.255   0.608 -0.2225 -0.5446  0.0078
 8672TIP3   OH250210   7.627   1.300   2.315 -0.3767 -0.4005  0.0208
 8672TIP3    H150211   7.660   1.235   2.376 -0.5437  0.4912  1.0873
 8672TIP3    H250212   7.532   1.290   2.318 -0.4486  0.4150  0.8013
 8673TIP3   OH250213   6.847   2.543   0.876  0.2108 -0.3073  0.0431
 8673TIP3    H150214   6.938   2.574   0.882  0.3144  0.9595 -4.1787
 8673TIP3    H250215   6.794   2.620   0.896  0.0941 -0.6665  1.1362
 8674TIP3   OH250216   7.510   4.164   1.031 -0.1608  0.0169  0.0338
 8674TIP3    H150217   7.586   4.175   0.973  0.8938 -0.0506  1.3503
 8674TIP3    H250218   7.473   4.079   1.006  0.0663  0.1494 -0.7707
 8675TIP3   OH250219   4.583   3.265   1.547  0.0407  0.4663 -0.9978
 8675TIP3    H150220   4.633   3.290   1.469 -0.1090  1.2163 -0.8628
 8675TIP3    H250221   4.649   3.247   1.613  0.2364 -1.6960 -1.7060
 8676TIP3   OH250222   6.315   0.315   3.178 -0.4768  0.0542 -0.4082
 8676TIP3    H150223   6.334   0.268   3.260  0.0436  0.5524 -0.2366
 8676TIP3    H250224   6.220   0.308   3.168 -0.4399 -0.8182 -0.2564
 8677TIP3   OH250225   4.425   4.918   0.783  0.2379  0.2238 -0.2900
 8677TIP3    H150226   4.463   4.994   0.828 -0.2573  0.0768  0.3917
 8677TIP3    H250227   4.383   4.868   0.853  0.4073 -0.5890 -0.7618
 8678TIP3   OH250228   0.398   5.187   1.493  0.1070  0.0232 -0.1316
 8678TIP3    H150229   0.429   5.104   1.529 -0.0027  0.5839  1.3295
 8678TIP3    H250230   0.462   5.252   1.524 -0.6016  0.6804 -0.0067
 8679TIP3   OH250231   3.365   3.619   3.528  0.1080 -0.0110 -0.1606
 8679TIP3    H150232   3.379   3.531   3.492 -0.9774 -0.1032 -0.3777
 8679TIP3    H250233   3.336   3.671   3.453  0.5378  0.4852  0.0137
 8680TIP3   OH250234   4.328   2.581   0.577  0.7470  0.3779  0.6646
 8680TIP3    H150235   4.232   2.587   0.585  0.5074 -0.3676 -1.1904
 8680TIP3    H250236   4.354   2.666   0.540  0.7112  0.3106  0.4841
 8681TIP3   OH250237   1.306   3.957   2.705  0.2141  0.0233  0.0294
 8681TIP3    H150238   1.326   4.026   2.641 -0.2571  0.9063  0.7933
 8681TIP3    H250239   1.353   3.984   2.784  1.0287 -1.2088 -0.0283
 8682TIP3   OH250240   4.131   4.736   2.467  0.0124 -0.0116  0.2077
 8682TIP3    H150241   4.220   4.704   2.485  0.8097  0.9458 -1.8273
 8682TIP3    H250242   4.118   4.806   2.531  0.7716 -0.0343  0.4030
 8683TIP3   OH250243   2.103   5.759   1.600  0.2897  0.0388 -0.2906
 8683TIP3    H150244   2.031   5.804   1.645  1.2543 -0.2005  1.6388
 8683TIP3    H250245   2.081   5.764   1.507 -2.3433 -0.2807  0.2324
 8684TIP3   OH250246   6.478   6.453   2.513  0.1836  0.2767  0.0637
 8684TIP3    H150247   6.392   6.493   2.526 -0.5786 -1.6974  1.7616
 8684TIP3    H250248   6.464   6.389   2.444  0.0628 -0.5441  0.8265
 8685TIP3   OH250249   1.870   6.631   1.507 -0.2132 -0.1454 -0.4403
 8685TIP3    H150250   1.899   6.571   1.437 -1.0330 -1.4596  0.3128
 8685TIP3    H250251   1.915   6.600   1.585 -0.9797 -0.0428  0.0479
 8686TIP3   OH250252   3.563   6.039   2.289 -0.4194 -0.1113  0.0664
 8686TIP3    H150253   3.526   6.123   2.259 -1.8111 -0.4944  0.6322
 8686TIP3    H250254   3.555   5.981   2.213 -1.0176 -0.1981  0.1928
 8687TIP3   OH250255   4.814   1.977   0.490 -0.1642 -0.3854  0.3793
 8687TIP3    H150256   4.776   1.950   0.573  1.1500 -1.5288  0.6502
 8687TIP3    H250257   4.799   2.072   0.486 -3.4827 -0.8083  0.1596
 8688TIP3   OH250258   6.581   5.219   1.198 -0.3836 -0.0321  0.2903
 8688TIP3    H150259   6.549   5.308   1.191 -0.8685 -0.0248  2.1059
 8688TIP3    H250260   6.502   5.164   1.192 -0.0380 -0.4074 -1.3626
 8689TIP3   OH250261   1.101   2.870   0.943 -0.1153  0.1248  0.5887
 8689TIP3    H150262   1.116   2.803   0.876  0.0510  1.1817 -0.4590
 8689TIP3    H250263   1.010   2.858   0.969  0.0723 -0.8683  0.8388
 8690TIP3   OH250264   3.893   7.173   2.547  0.6367  0.1001  0.0051
 8690TIP3    H150265   3.961   7.227   2.587  1.0263 -0.9496  0.8249
 8690TIP3    H250266   3.845   7.232   2.489  1.1053  1.2785  0.7967
 8691TIP3   OH250267   1.143   5.503   3.340 -0.5863  0.0316  0.5041
 8691TIP3    H150268   1.151   5.424   3.286 -2.7320 -0.8128  1.3442
 8691TIP3    H250269   1.116   5.571   3.278  0.1771 -0.1301 -0.0257
 8692TIP3   OH250270   3.649   3.576   1.167  0.4740 -0.2931  0.0811
 8692TIP3    H150271   3.571   3.550   1.119  1.2705  1.2051 -2.1984
 8692TIP3    H250272   3.647   3.672   1.167  2.8760 -0.1630 -1.1515
 8693TIP3   OH250273   2.223   6.018   1.721  0.4197 -0.5884  0.6049
 8693TIP3    H150274   2.182   5.944   1.677  1.7913  0.5888 -3.0877
 8693TIP3    H250275   2.316   6.010   1.700  0.6258  2.0353  0.0958
 8694TIP3   OH250276   4.182   7.251   1.310 -0.1410  0.2076 -0.9358
 8694TIP3    H150277   4.274   7.272   1.322  0.0886 -1.6033  1.3664
 8694TIP3    H250278   4.141   7.333   1.285  1.8741  1.3772 -0.6234
 8695TIP3   OH250279   2.937   6.420   2.061 -0.3062  0.2866  0.3645
 8695TIP3    H150280   3.010   6.367   2.093 -1.5104 -1.7029  0.0107
 8695TIP3    H250281   2.898   6.457   2.140  0.4160  0.4809  0.6412
 8696TIP3   OH250282   4.260   6.440   0.979  0.3725 -0.7289  0.3519
 8696TIP3    H150283   4.182   6.400   0.940  0.7451 -0.2626 -0.9144
 8696TIP3    H250284   4.317   6.461   0.905  0.9591  0.5208  1.1079
 8697TIP3   OH250285   5.708   4.430   1.903  0.3606  0.1630  0.2670
 8697TIP3    H150286   5.638   4.379   1.944  0.4646  0.1013  0.3687
 8697TIP3    H250287   5.785   4.411   1.956  0.3861  0.4733  0.3442
 8698TIP3   OH250288   3.742   5.478   1.176  0.3130 -0.2620  0.4522
 8698TIP3    H150289   3.817   5.434   1.135  1.0150 -0.6257  2.0326
 8698TIP3    H250290   3.763   5.477   1.270 -0.8999  1.1297  0.7642
 8699TIP3   OH250291   3.399   3.020   1.021 -0.5907 -0.3924 -0.2642
 8699TIP3    H150292   3.443   3.101   0.993 -0.7013  0.0551  0.8242
 8699TIP3    H250293   3.349   2.993   0.944 -1.6900  1.3653 -0.2188
 8700TIP3   OH250294   0.695   4.829   0.618  0.0554  0.1385  0.1003
 8700TIP3    H150295   0.644   4.763   0.572 -0.6914  1.1939 -0.6547
 8700TIP3    H250296   0.634   4.866   0.682 -0.0453  1.1680 -0.5655
 8701TIP3   OH250297   0.297   4.661   2.775 -0.2021 -0.5761 -0.8089
 8701TIP3    H150298   0.359   4.706   2.717 -0.1899  0.0243 -0.3405
 8701TIP3    H250299   0.346   4.586   2.808  0.1549 -0.3137 -0.7343
 8702TIP3   OH250300   2.258   2.389   1.519  0.4265  0.1214  0.1175
 8702TIP3    H150301   2.248   2.481   1.496  0.5759 -0.1403 -1.0353
 8702TIP3    H250302   2.200   2.342   1.460  1.0956 -0.6007  0.0129
 8703TIP3   OH250303   6.228   6.634   2.493 -0.4476  0.6094 -0.2795
 8703TIP3    H150304   6.285   6.711   2.496 -0.8198  0.8635  0.9334
 8703TIP3    H250305   6.180   6.643   2.411 -1.2405  2.2439  0.3281
 8704TIP3   OH250306   5.494   4.117   0.890  0.5909  0.1057 -0.2845
 8704TIP3    H150307   5.527   4.039   0.846 -0.5276 -0.5751  0.0538
 8704TIP3    H250308   5.543   4.189   0.850 -1.1459 -0.3407 -3.5165
 8705TIP3   OH250309   7.064   4.799   1.050  0.1879  0.0977 -0.1689
 8705TIP3    H150310   7.010   4.723   1.075 -0.1014  0.6231  0.8489
 8705TIP3    H250311   7.010   4.875   1.072  1.5421  0.6623  1.4382
 8706TIP3   OH250312   2.625   7.471   1.237  0.1473  0.4939 -0.0858
 8706TIP3    H150313   2.669   7.556   1.228  2.0097 -0.5167 -1.1236
 8706TIP3    H250314   2.645   7.425   1.155  0.4660 -1.5046  1.0582
 8707TIP3   OH250315   0.194   5.817   3.591  0.1598 -0.1155 -0.1393
 8707TIP3    H150316   0.115   5.854   3.630 -1.0793 -1.1617 -1.5394
 8707TIP3    H250317   0.167   5.730   3.559  2.1004 -0.8721  0.1119
 8708TIP3   OH250318   2.819   4.971   2.075  0.3522 -0.3053 -0.7493
 8708TIP3    H150319   2.818   4.970   2.170 -0.0288  0.5805 -0.7367
 8708TIP3    H250320   2.753   5.036   2.051  0.2293 -0.7335 -1.6231
 8709TIP3   OH250321   1.110   3.534   3.193 -0.4039 -0.4746  0.0165
 8709TIP3    H150322   1.191   3.497   3.159  1.2663  0.5370  2.5938
 8709TIP3    H250323   1.110   3.624   3.160  1.6981  0.8090  3.1206
 8710TIP3   OH250324   3.266   6.695   2.254  0.1640 -0.1474 -0.4055
 8710TIP3    H150325   3.356   6.686   2.286  1.5557  1.5365 -3.3594
 8710TIP3    H250326   3.239   6.781   2.285  0.3901  0.2199 -1.2007
 8711TIP3   OH250327   2.016   7.571   2.266  0.1578  0.0857  0.1767
 8711TIP3    H150328   1.999   7.493   2.320 -2.0587  0.0829 -0.4502
 8711TIP3    H250329   2.002   7.542   2.176  0.0165  1.0484 -0.1214
 8712TIP3   OH250330   7.318   5.212   2.620 -1.1779  0.2423  0.3988
 8712TIP3    H150331   7.353   5.124   2.604  1.0223  0.9694  0.7690
 8712TIP3    H250332   7.310   5.218   2.715 -2.0069  0.2088  0.3340
 8713TIP3   OH250333   2.671   1.062   1.045  0.5395  0.3660  0.1268
 8713TIP3    H150334   2.727   1.136   1.022 -0.4294  0.8724 -0.6800
 8713TIP3    H250335   2.673   1.006   0.968 -0.3109  0.5603 -0.0532
 8714TIP3   OH250336   1.124   2.483   1.449  0.0160  0.1967 -0.2932
 8714TIP3    H150337   1.145   2.395   1.417  0.9106  0.5925 -0.8415
 8714TIP3    H250338   1.199   2.508   1.503 -0.0647  0.7643 -0.4347
 8715TIP3   OH250339   0.527   5.761   1.504 -0.0820  0.2579 -0.1955
 8715TIP3    H150340   0.499   5.827   1.440  1.5398  0.5671 -0.6255
 8715TIP3    H250341   0.597   5.802   1.553 -1.3510  0.0663  1.9371
 8716TIP3   OH250342   7.096   0.168   2.241  0.2902 -0.7677  0.5670
 8716TIP3    H150343   7.001   0.172   2.227  0.5541 -1.0950 -1.6059
 8716TIP3    H250344   7.133   0.227   2.175  1.6322 -0.7917  1.2575
 8717TIP3   OH250345   0.456   0.831   3.080 -0.0263 -0.6352 -0.5318
 8717TIP3    H150346   0.372   0.795   3.108 -0.0302 -0.8229 -0.7781
 8717TIP3    H250347   0.459   0.919   3.118  0.7601 -1.5075  1.5701
 8718TIP3   OH250348   7.366   6.713   2.896 -0.0321 -0.4494  0.4561
 8718TIP3    H150349   7.314   6.789   2.869  0.3294  0.1007  1.2668
 8718TIP3    H250350   7.307   6.664   2.953 -0.2072 -0.6876  0.0712
 8719TIP3   OH250351   2.289   7.064   0.692  0.7043  0.8792  0.1205
 8719TIP3    H150352   2.302   6.994   0.629  2.6926  1.5322 -0.2704
 8719TIP3    H250353   2.239   7.024   0.763  2.5492 -1.2217  0.3560
 8720TIP3   OH250354   4.092   2.451   1.728  0.4898 -0.8926 -0.3012
 8720TIP3    H150355   4.073   2.544   1.722  2.3880 -0.5139 -1.3159
 8720TIP3    H250356   4.128   2.440   1.816  0.8483 -0.5315 -0.3979
 8721TIP3   OH250357   0.259   0.371   2.038 -0.3180 -0.1496 -0.3966
 8721TIP3    H150358   0.239   0.359   1.945 -0.9896  1.5733 -0.5178
 8721TIP3    H250359   0.345   0.413   2.038 -0.2848 -0.2192 -0.2364
 8722TIP3   OH250360   3.330   5.769   2.745 -0.3389 -0.1476  0.0923
 8722TIP3    H150361   3.238   5.795   2.737  0.3257  1.9534 -1.2841
 8722TIP3    H250362   3.368   5.833   2.805  0.4752 -0.3293 -0.2218
 8723TIP3   OH250363   5.159   2.694   0.861  0.2225  0.0146  0.1753
 8723TIP3    H150364   5.168   2.664   0.952 -0.9367 -1.5753 -0.1936
 8723TIP3    H250365   5.144   2.614   0.811 -1.3156  1.0501 -1.1123
 8724TIP3   OH250366   3.225   6.095   0.746  0.2947  1.1467  0.1274
 8724TIP3    H150367   3.188   6.169   0.697 -0.2893  0.8842  0.1643
 8724TIP3    H250368   3.289   6.135   0.804  0.6217  1.5221 -0.4848
 8725TIP3   OH250369   5.101   4.472   1.126  0.2509  0.2452 -0.3180
 8725TIP3    H150370   5.169   4.540   1.124  1.7118 -1.0501  1.2115
 8725TIP3    H250371   5.044   4.492   1.053  1.7689  1.9666 -1.1071
 8726TIP3   OH250372   6.130   0.899   0.862 -0.0457  0.4565 -0.1168
 8726TIP3    H150373   6.106   0.819   0.909 -0.5647  1.6823  1.8106
 8726TIP3    H250374   6.050   0.927   0.819  0.2178 -0.2120 -1.0669
 8727TIP3   OH250375   5.482   4.853   1.061 -0.4817 -0.1655  0.0588
 8727TIP3    H150376   5.476   4.819   0.972  0.7821 -1.9955  0.5956
 8727TIP3    H250377   5.442   4.940   1.058 -2.7203 -1.1933 -1.7165
 8728TIP3   OH250378   7.285   0.623   2.454 -0.1422 -0.3631  0.3327
 8728TIP3    H150379   7.307   0.611   2.546  0.9370 -0.5432  0.0627
 8728TIP3    H250380   7.335   0.700   2.427 -1.4725  0.5122  0.2128
 8729TIP3   OH250381   2.870   7.438   2.772 -0.2456  0.4876 -0.4432
 8729TIP3    H150382   2.952   7.390   2.764 -1.1041 -0.9055 -1.2426
 8729TIP3    H250383   2.870   7.499   2.698  0.9034  1.8721  0.6453
 8730TIP3   OH250384   5.244   5.956   2.819  0.1328 -0.2167  0.3820
 8730TIP3    H150385   5.332   5.984   2.842  0.3969 -1.3193  0.7762
 8730TIP3    H250386   5.254   5.904   2.739 -0.1696 -0.2923  0.3897
 8731TIP3   OH250387   6.406   7.031   3.293 -0.8393  0.0163 -0.5105
 8731TIP3    H150388   6.402   7.009   3.200 -0.6941  0.9124 -0.7383
 8731TIP3    H250389   6.381   7.123   3.297 -0.4443  0.0976  0.2930
 8732TIP3   OH250390   0.864   1.362   2.463  0.3369 -0.3968  0.1660
 8732TIP3    H150391   0.843   1.416   2.538  0.2834  0.0773 -0.1899
 8732TIP3    H250392   0.959   1.349   2.468  0.2375 -0.9655  0.7111
 8733TIP3   OH250393   6.209   6.314   1.700 -0.7165  0.1325  0.0126
 8733TIP3    H150394   6.269   6.314   1.775 -0.1050 -1.4647 -0.4454
 8733TIP3    H250395   6.179   6.224   1.693 -3.0809  0.8310  0.1111
 8734TIP3   OH250396   1.932   0.554   2.037 -0.3193 -0.7590 -0.0472
 8734TIP3    H150397   2.011   0.509   2.009 -1.2724 -2.0032 -0.8331
 8734TIP3    H250398   1.944   0.644   2.008  1.1011 -0.7527  0.4970
 8735TIP3   OH250399   6.543   4.202   2.166  0.3696 -0.1726 -0.5970
 8735TIP3    H150400   6.516   4.279   2.115 -0.5887  0.9992  1.5362
 8735TIP3    H250401   6.516   4.223   2.256  2.3484 -1.9572  0.4821
 8736TIP3   OH250402   3.937   6.178   2.997 -0.1227  0.0339 -0.4452
 8736TIP3    H150403   3.905   6.220   2.917 -1.4648 -1.1951 -0.5786
 8736TIP3    H250404   4.028   6.155   2.976 -1.1181 -2.3886 -2.5410
 8737TIP3   OH250405   3.673   3.929   1.372  0.2039  0.2682  0.5805
 8737TIP3    H150406   3.634   3.924   1.285  0.9852 -0.3196  0.2437
 8737TIP3    H250407   3.610   3.885   1.429 -0.5624  1.1305  0.4131
 8738TIP3   OH250408   1.928   4.528   2.692  0.1477 -0.7700 -0.0070
 8738TIP3    H150409   1.941   4.578   2.773  0.7482 -0.5234 -0.2528
 8738TIP3    H250410   1.929   4.595   2.623  1.4860 -1.1566 -0.3941
 8739TIP3   OH250411   6.926   5.654   2.447  0.0968 -0.1073 -0.1534
 8739TIP3    H150412   6.895   5.564   2.448  0.3215 -0.1820  0.4041
 8739TIP3    H250413   7.019   5.647   2.425  0.6817 -0.2097  2.1053
 8740TIP3   OH250414   1.818   0.403   1.733  0.6386  0.5519  0.1141
 8740TIP3    H150415   1.800   0.389   1.826 -0.4220  1.8186  0.1222
 8740TIP3    H250416   1.849   0.493   1.728 -2.9443  1.8996 -1.1518
 8741TIP3   OH250417   1.120   1.763   1.293 -0.1067  0.2388  0.1497
 8741TIP3    H150418   1.178   1.687   1.294  0.4135  0.6284  0.3025
 8741TIP3    H250419   1.063   1.749   1.217 -1.4559 -1.3485  1.3930
 8742TIP3   OH250420   2.181   7.080   2.559 -0.0145 -0.1742 -0.1224
 8742TIP3    H150421   2.246   7.151   2.558 -0.7940  0.5754  0.5213
 8742TIP3    H250422   2.170   7.059   2.652  1.0030 -1.9213 -0.3526
 8743TIP3   OH250423   7.243   5.676   1.430 -0.8964 -0.1055 -0.3422
 8743TIP3    H150424   7.157   5.647   1.461 -0.0230 -2.0042  0.4581
 8743TIP3    H250425   7.246   5.648   1.338 -1.2278  0.2145 -0.4530
 8744TIP3   OH250426   1.300   0.292   1.475  0.2440  0.4302  0.0595
 8744TIP3    H150427   1.313   0.350   1.400  0.3366  0.3561  0.0184
 8744TIP3    H250428   1.241   0.224   1.443  0.8331  0.0081 -0.1529
 8745TIP3   OH250429   5.424   3.633   1.009 -0.1487 -0.7968  0.0444
 8745TIP3    H150430   5.451   3.553   0.963  2.1376 -1.0951  1.7342
 8745TIP3    H250431   5.357   3.604   1.071 -1.2771 -0.8728 -1.1749
 8746TIP3   OH250432   0.279   6.301   1.846  0.1855 -0.4502 -0.2915
 8746TIP3    H150433   0.374   6.300   1.833  0.1948 -0.0449 -0.2520
 8746TIP3    H250434   0.252   6.390   1.824  0.0373 -0.0830  1.2719
 8747TIP3   OH250435   4.662   6.742   2.988 -0.1047  0.0916  0.5976
 8747TIP3    H150436   4.663   6.692   3.069  1.2462 -0.2408  0.4099
 8747TIP3    H250437   4.584   6.796   2.993 -0.9868 -1.2188  1.3137
 8748TIP3   OH250438   4.386   4.559   1.838  0.2490 -0.2057  0.0667
 8748TIP3    H150439   4.314   4.579   1.779 -0.5252 -0.3433  0.9457
 8748TIP3    H250440   4.357   4.481   1.885  0.9506 -0.2268  0.4750
 8749TIP3   OH250441   3.997   3.626   1.762  0.1870  0.2489  0.6323
 8749TIP3    H150442   3.954   3.705   1.729  0.1013 -0.1705 -0.2675
 8749TIP3    H250443   4.073   3.614   1.705  0.1752 -0.3509  0.7402
 8750TIP3   OH250444   5.035   2.338   2.650  0.6093  0.3891  0.1898
 8750TIP3    H150445   4.974   2.390   2.598 -0.1133 -0.7542 -0.1619
 8750TIP3    H250446   5.066   2.270   2.589  0.4497 -0.4229  0.9933
 8751TIP3   OH250447   0.035   5.894   1.507  0.5842  0.7007 -0.2298
 8751TIP3    H150448  -0.044   5.847   1.535  0.3506  1.2005 -0.0300
 8751TIP3    H250449   0.104   5.860   1.563  0.2904  1.0569  0.3540
 8752TIP3   OH250450   2.802   5.692   2.695 -0.0822  0.1111 -0.1042
 8752TIP3    H150451   2.720   5.742   2.704  0.1838  0.6282 -0.5279
 8752TIP3    H250452   2.789   5.616   2.752 -1.0487 -0.0558 -0.5224
 8753TIP3   OH250453   7.044   1.861   1.857  0.6298  0.4374 -0.0399
 8753TIP3    H150454   7.118   1.898   1.808 -0.3647  2.3886 -0.1734
 8753TIP3    H250455   6.969   1.915   1.831 -0.4893 -0.3271  1.4583
 8754TIP3   OH250456   2.643   5.615   1.656 -0.6456  0.8297 -0.1660
 8754TIP3    H150457   2.615   5.591   1.568  0.7553  0.6529 -0.5928
 8754TIP3    H250458   2.568   5.661   1.694 -1.6732 -0.0876 -1.0375
 8755TIP3   OH250459   1.354   4.169   1.123  0.4106 -0.0035 -0.3099
 8755TIP3    H150460   1.309   4.243   1.082  1.8779  1.3082  0.3343
 8755TIP3    H250461   1.358   4.103   1.054 -0.9913  0.4633 -0.8866
 8756TIP3   OH250462   3.023   6.030   1.473  0.0621 -0.7265 -0.2026
 8756TIP3    H150463   2.985   5.946   1.499  1.4851 -1.3248  0.0405
 8756TIP3    H250464   3.027   6.025   1.377 -1.3035 -0.2519 -0.3153
 8757TIP3   OH250465   0.986   1.217   2.002 -0.1100 -0.2400 -0.2577
 8757TIP3    H150466   0.915   1.231   2.064 -0.2234 -0.3285 -0.3652
 8757TIP3    H250467   0.988   1.123   1.989  0.6805 -0.3303  0.4997
 8758TIP3   OH250468   2.691   6.055   2.655  1.0597  0.5104  0.3522
 8758TIP3    H150469   2.619   6.117   2.661 -0.0910 -0.5659 -1.2493
 8758TIP3    H250470   2.653   5.971   2.681  2.1392  0.1632  0.8902
 8759TIP3   OH250471   1.837   3.336   1.118  0.1541 -0.2325  0.7447
 8759TIP3    H150472   1.907   3.341   1.053 -1.1090 -0.1516 -0.6722
 8759TIP3    H250473   1.796   3.423   1.116 -0.8629 -0.6961  0.4790
 8760TIP3   OH250474   4.957   3.956   2.693 -0.1150 -0.0927  0.7512
 8760TIP3    H150475   4.987   3.869   2.719  0.4311 -0.6684 -1.5150
 8760TIP3    H250476   5.034   4.012   2.705 -0.3024 -0.0246  1.6865
 8761TIP3   OH250477   6.792   1.371   2.006  0.2283  0.4080 -0.1385
 8761TIP3    H150478   6.705   1.371   1.966  1.1596 -0.1525 -2.3557
 8761TIP3    H250479   6.806   1.462   2.033 -0.4052  0.8792 -1.3060
 8762TIP3   OH250480   0.585   2.574   1.523  0.7338  0.2153 -0.2746
 8762TIP3    H150481   0.680   2.569   1.533  0.6256  1.7655  3.0156
 8762TIP3    H250482   0.551   2.512   1.587 -0.3406  2.8746  1.9531
 8763TIP3   OH250483   3.995   2.193   1.584  0.2284  0.1317 -0.5509
 8763TIP3    H150484   3.910   2.153   1.601  0.9631 -1.2206  0.0462
 8763TIP3    H250485   4.011   2.249   1.660 -0.4182  0.9256 -0.9853
 8764TIP3   OH250486   2.016   5.649   7.791  0.3538  0.1914  0.4077
 8764TIP3    H150487   2.057   5.674   7.874  2.2568 -0.7354 -0.1970
 8764TIP3    H250488   2.066   5.696   7.724  1.4814 -2.1040 -0.4691
 8765TIP3   OH250489   0.863   6.448   0.665 -0.6349 -0.1161  0.1469
 8765TIP3    H150490   0.777   6.471   0.630 -0.6108  0.5006  0.4707
 8765TIP3    H250491   0.921   6.517   0.632 -0.3180 -0.3942  0.1265
 8766TIP3   OH250492   2.514   7.235   1.996  0.2479 -0.2667 -0.2100
 8766TIP3    H150493   2.572   7.277   1.932 -0.2108 -0.5425 -0.8158
 8766TIP3    H250494   2.569   7.167   2.036  1.1888  1.2458  1.2126
 8767TIP3   OH250495   2.440   2.165   1.732 -0.3209  0.0677 -0.3917
 8767TIP3    H150496   2.482   2.079   1.722  1.4079  1.0010 -1.4723
 8767TIP3    H250497   2.510   2.223   1.759 -1.7491  0.9269  1.7847
 8768TIP3   OH250498   4.640   0.906   2.444  0.7515  0.5004  0.2840
 8768TIP3    H150499   4.638   0.811   2.436  1.5842  0.6107 -2.2651
 8768TIP3    H250500   4.732   0.929   2.433  0.5532  1.6219  0.8272
 8769TIP3   OH250501   3.147   7.001   2.082  0.1447  1.0642  0.4477
 8769TIP3    H150502   3.236   7.014   2.114 -0.2683  3.9915  0.6442
 8769TIP3    H250503   3.158   6.967   1.993  1.3987  0.3381  0.8558
 8770TIP3   OH250504   1.631   7.430   3.400 -0.5155  0.0551 -0.3039
 8770TIP3    H150505   1.712   7.468   3.367 -0.4258  1.2484  1.1769
 8770TIP3    H250506   1.564   7.496   3.384 -0.3328  1.0399  2.4251
 8771TIP3   OH250507   1.720   6.490   1.125  0.0517 -0.2818  0.2613
 8771TIP3    H150508   1.775   6.487   1.203 -2.4475 -0.5235  2.1636
 8771TIP3    H250509   1.743   6.573   1.082  2.9299 -1.1137  0.0230
 8772TIP3   OH250510   4.305   7.117   2.025  0.0064  0.1705  0.0157
 8772TIP3    H150511   4.319   7.048   1.961  0.7852 -1.6042  1.9735
 8772TIP3    H250512   4.228   7.090   2.074  0.4036  0.5970  0.9052
 8773TIP3   OH250513   0.103   0.767   1.118 -0.0897 -0.4493  0.2065
 8773TIP3    H150514   0.096   0.706   1.044 -0.7342  1.3019 -1.2331
 8773TIP3    H250515   0.174   0.826   1.093 -1.5048  1.2833  0.0935
 8774TIP3   OH250516   2.641   1.687   1.988  0.0558 -0.2833  0.1976
 8774TIP3    H150517   2.643   1.635   2.068 -0.2578 -1.1170 -0.3318
 8774TIP3    H250518   2.686   1.768   2.011  1.7381 -1.3096  0.6658
 8775TIP3   OH250519   6.396   2.076   1.786 -0.0741 -0.7058  0.0986
 8775TIP3    H150520   6.319   2.132   1.803  0.8274  0.4471  0.5412
 8775TIP3    H250521   6.375   1.993   1.828 -0.4455  0.1164  1.6070
 8776TIP3   OH250522   6.217   5.412   8.136 -0.3678 -0.6450 -0.5474
 8776TIP3    H150523   6.178   5.466   8.204 -0.9952 -0.6550 -0.8953
 8776TIP3    H250524   6.275   5.352   8.183  1.0394  0.8894 -0.2151
 8777TIP3   OH250525   6.690   0.734   1.617 -0.7939 -0.0705 -0.3102
 8777TIP3    H150526   6.607   0.751   1.660 -0.0632  1.4575  0.5972
 8777TIP3    H250527   6.689   0.790   1.539  0.2871  1.8021  0.9465
 8778TIP3   OH250528   3.623   2.668   2.407  0.7772 -0.2030  0.1514
 8778TIP3    H150529   3.578   2.628   2.481  0.7643  0.2815  0.4091
 8778TIP3    H250530   3.571   2.745   2.386  1.7908  0.6991  0.8341
 8779TIP3   OH250531   5.228   5.785   0.952  0.2799  0.1005  0.3930
 8779TIP3    H150532   5.265   5.748   0.872 -0.7589  1.2673 -0.6776
 8779TIP3    H250533   5.272   5.869   0.962 -2.6195  2.0160 -1.4987
 8780TIP3   OH250534   4.496   7.595   2.739  0.2522  0.3098 -0.5928
 8780TIP3    H150535   4.573   7.633   2.781  1.3939 -0.6330 -1.7319
 8780TIP3    H250536   4.495   7.632   2.651 -1.2537  1.1418 -0.2562
 8781TIP3   OH250537   6.513   6.448   1.654  0.1049  0.3579 -0.0463
 8781TIP3    H150538   6.488   6.538   1.672 -0.7906 -0.0228  0.7367
 8781TIP3    H250539   6.605   6.453   1.627  0.0526  1.4967 -0.0648
 8782TIP3   OH250540   5.060   6.405   1.469 -0.0739 -0.2507  0.2581
 8782TIP3    H150541   5.017   6.387   1.553  0.6114  0.4817  0.7800
 8782TIP3    H250542   5.050   6.499   1.456  1.4878 -0.0113  0.4890
 8783TIP3   OH250543   0.611   5.442   1.151 -0.0800  0.3654 -0.5123
 8783TIP3    H150544   0.685   5.496   1.178 -0.2260  1.0035 -1.3290
 8783TIP3    H250545   0.535   5.499   1.162 -0.5556 -0.5098  0.9631
 8784TIP3   OH250546   4.748   2.399   1.961  1.2248 -0.1913  0.0155
 8784TIP3    H150547   4.777   2.356   1.881  0.0575 -1.5618  0.2972
 8784TIP3    H250548   4.713   2.328   2.015 -1.3005  1.1554  0.2699
 8785TIP3   OH250549   5.557   5.326   2.119 -0.0444  0.7530  0.4032
 8785TIP3    H150550   5.622   5.396   2.127  1.3222 -0.4196 -0.0201
 8785TIP3    H250551   5.609   5.248   2.096 -1.7069 -0.0066 -0.9711
 8786TIP3   OH250552   4.972   5.560   1.388  0.1510 -0.4507  0.1682
 8786TIP3    H150553   4.917   5.611   1.329  1.2640  1.9618  1.0597
 8786TIP3    H250554   4.954   5.598   1.475  0.6224 -1.9941  0.9701
 8787TIP3   OH250555   5.141   2.440   0.773  0.0961  0.0309  0.0500
 8787TIP3    H150556   5.208   2.371   0.775 -1.0403 -1.1497 -0.8657
 8787TIP3    H250557   5.058   2.393   0.776 -0.7393  1.2865 -1.5468
 8788TIP3   OH250558   3.253   0.812   1.612  0.2740  0.2097  0.7906
 8788TIP3    H150559   3.341   0.831   1.644  0.3170  0.4876  0.5159
 8788TIP3    H250560   3.237   0.879   1.545  1.0954 -1.7549 -1.4973
 8789TIP3   OH250561   5.309   5.797   2.428  0.4203 -0.3260 -0.2156
 8789TIP3    H150562   5.400   5.774   2.448  0.6975  1.1256  0.3455
 8789TIP3    H250563   5.278   5.726   2.372  1.5508 -1.4109  0.4742
 8790TIP3   OH250564   0.468   2.456   1.940  0.2258  0.2676 -0.5070
 8790TIP3    H150565   0.374   2.436   1.939 -0.6515  3.8008 -1.2943
 8790TIP3    H250566   0.481   2.501   2.024  0.8477  1.1512 -1.0641
 8791TIP3   OH250567   0.191   3.231   2.128  0.0000 -0.3814 -0.0459
 8791TIP3    H150568   0.162   3.311   2.171  2.6878  1.8799 -2.0810
 8791TIP3    H250569   0.276   3.211   2.167  1.1508  0.0810 -2.1695
 8792TIP3   OH250570   1.595   0.143   1.810  0.4787 -0.1021  0.3021
 8792TIP3    H150571   1.655   0.196   1.861  0.8438 -0.7962  0.6114
 8792TIP3    H250572   1.623   0.053   1.826 -1.1516 -0.5030  1.1096
 8793TIP3   OH250573   6.312   2.612   2.619 -0.1142 -0.6285  0.2901
 8793TIP3    H150574   6.400   2.638   2.593  0.2855 -1.2566  0.9734
 8793TIP3    H250575   6.279   2.561   2.545 -0.8133  1.5122 -0.9596
 8794TIP3   OH250576   2.375   4.326   2.320  0.7207  0.4222 -0.1958
 8794TIP3    H150577   2.437   4.313   2.392 -0.0321 -0.7958  0.2541
 8794TIP3    H250578   2.398   4.259   2.256  0.5242  0.6405 -0.4983
 8795TIP3   OH250579   1.420   2.464   2.832  0.2709 -0.4741  0.4545
 8795TIP3    H150580   1.481   2.526   2.792  0.6822 -1.0241  0.2036
 8795TIP3    H250581   1.444   2.462   2.924  0.7749 -0.8378  0.3204
 8796TIP3   OH250582   6.538   0.014   2.796 -0.6359 -0.0042 -0.7810
 8796TIP3    H150583   6.469   0.075   2.821 -0.9699 -0.7829  0.3045
 8796TIP3    H250584   6.497  -0.072   2.802  0.1953 -0.4295 -0.9698
 8797TIP3   OH250585   7.590   0.172   0.973  0.1390 -0.5879  0.1651
 8797TIP3    H150586   7.607   0.224   1.051 -0.0849  2.0430 -1.4252
 8797TIP3    H250587   7.498   0.189   0.951 -0.2909 -2.5763  0.1704
 8798TIP3   OH250588   0.933   2.070   2.284 -0.4949 -0.0608  0.1789
 8798TIP3    H150589   0.945   2.101   2.194 -1.9834 -1.6642 -0.6352
 8798TIP3    H250590   0.922   1.975   2.275  0.5167 -0.4391  2.2028
 8799TIP3   OH250591   5.046   6.700   1.056  0.7249 -0.2613  0.3784
 8799TIP3    H150592   5.070   6.619   1.011  0.1436 -0.7480  0.9103
 8799TIP3    H250593   5.088   6.693   1.142  0.0905 -0.3379  0.6890
 8800TIP3   OH250594   7.667   2.969   0.777 -0.0433  0.1106  0.3711
 8800TIP3    H150595   7.750   2.948   0.818 -0.8382  0.1914  2.1266
 8800TIP3    H250596   7.635   3.046   0.825 -1.6906 -0.6518  0.5821
 8801TIP3   OH250597   6.964   4.641   1.482  0.1019 -0.3072 -0.5312
 8801TIP3    H150598   6.930   4.725   1.450 -0.9947 -0.3461  0.4381
 8801TIP3    H250599   7.043   4.664   1.530  0.2446  0.0829 -0.9473
 8802TIP3   OH250600   1.835   2.558   2.525  0.2322  0.5464 -0.1446
 8802TIP3    H150601   1.768   2.595   2.581  1.0558  0.9175  0.6245
 8802TIP3    H250602   1.918   2.586   2.565  0.8517 -0.4514 -0.6858
 8803TIP3   OH250603   5.141   0.490   1.728  0.1954  0.0386  0.2579
 8803TIP3    H150604   5.088   0.534   1.662  0.6619 -0.2797 -0.3387
 8803TIP3    H250605   5.231   0.502   1.698  0.4219 -0.0014  0.9065
 8804TIP3   OH250606   1.744   4.891   1.732 -0.1640  0.0591 -0.0428
 8804TIP3    H150607   1.815   4.936   1.779  0.1424  0.0551 -0.4860
 8804TIP3    H250608   1.669   4.950   1.739 -0.4647 -0.4606  1.4124
 8805TIP3   OH250609   6.975   0.388   2.532 -0.1695 -0.2828  0.2289
 8805TIP3    H150610   7.018   0.451   2.474 -0.6089 -2.1035 -2.1994
 8805TIP3    H250611   6.960   0.437   2.613  1.1687  2.1453 -0.8846
 8806TIP3   OH250612   6.868   2.831   0.465  0.3668 -0.2931 -0.4672
 8806TIP3    H150613   6.833   2.910   0.423  2.1718 -0.7081 -2.9838
 8806TIP3    H250614   6.791   2.775   0.478 -0.7505  1.3039  0.1282
 8807TIP3   OH250615   7.545   0.130   2.655 -0.1999  0.1062  0.1084
 8807TIP3    H150616   7.633   0.166   2.670  0.1863 -0.6813 -0.2023
 8807TIP3    H250617   7.487   0.206   2.664  0.3671  0.4045  1.6447
 8808TIP3   OH250618   3.467   1.178   3.032  0.2607 -0.0076 -0.5828
 8808TIP3    H150619   3.522   1.101   3.047 -0.6826 -0.8662 -1.3473
 8808TIP3    H250620   3.494   1.240   3.099  1.4266 -0.7967 -0.2868
 8809TIP3   OH250621   0.096   6.186   1.519  0.0472 -0.0694  0.1669
 8809TIP3    H150622   0.186   6.174   1.487  0.1917 -0.2245  0.6312
 8809TIP3    H250623   0.059   6.098   1.520 -0.0711 -0.0211  0.1026
 8810TIP3   OH250624   7.308   2.203   2.925 -0.0768  0.4881 -0.4151
 8810TIP3    H150625   7.317   2.185   3.019 -0.8865  1.2412 -0.1750
 8810TIP3    H250626   7.270   2.290   2.922 -2.7221 -0.5913 -1.3575
 8811TIP3   OH250627   3.859   2.814   2.486  0.0687 -0.3259 -0.3198
 8811TIP3    H150628   3.774   2.782   2.456 -0.3739  2.2523 -2.1675
 8811TIP3    H250629   3.919   2.790   2.416 -0.0963  1.7881 -1.2737
 8812TIP3   OH250630   4.994   6.095   1.524 -0.2419 -0.2154  0.7385
 8812TIP3    H150631   4.920   6.149   1.552  0.6496  1.2567  0.3993
 8812TIP3    H250632   5.012   6.038   1.599 -1.9081 -0.8523  0.6948
 8813TIP3   OH250633   2.316   7.174   2.167 -0.0129 -0.1342  0.2126
 8813TIP3    H150634   2.369   7.223   2.103  1.0775  0.6396  1.6458
 8813TIP3    H250635   2.319   7.228   2.246 -1.6262 -0.8971  0.8303
 8814TIP3   OH250636   1.680   2.756   2.063 -0.2172 -0.8777 -0.6655
 8814TIP3    H150637   1.607   2.800   2.106  0.9687  1.5636 -0.9597
 8814TIP3    H250638   1.747   2.748   2.131  0.5541  0.2713 -1.2444
 8815TIP3   OH250639   3.208   4.032   3.027 -0.3513 -0.1933  0.3828
 8815TIP3    H150640   3.223   3.960   2.967 -1.2222  0.3652 -0.5350
 8815TIP3    H250641   3.262   4.011   3.103  1.9850 -0.1753 -1.1596
 8816TIP3   OH250642   2.236   1.939   1.462 -0.2246  0.2594  0.7600
 8816TIP3    H150643   2.154   1.935   1.412  0.7108  1.2858 -0.9692
 8816TIP3    H250644   2.214   1.992   1.539 -1.0072  1.2096 -0.0903
 8817TIP3   OH250645   7.363   0.813   0.715  0.4278 -0.2768  0.4806
 8817TIP3    H150646   7.273   0.836   0.693  0.2233 -1.0557  0.4830
 8817TIP3    H250647   7.412   0.895   0.705 -0.2483  0.1129  0.3257
 8818TIP3   OH250648   4.699   7.379   2.770 -0.2300 -0.0246  0.4299
 8818TIP3    H150649   4.709   7.309   2.705 -1.2250  0.3879 -0.1861
 8818TIP3    H250650   4.612   7.416   2.753  0.4223  1.6187  0.4873
 8819TIP3   OH250651   2.482   2.732   3.256 -0.2824 -0.6657 -0.0826
 8819TIP3    H150652   2.568   2.766   3.229 -1.1010  1.2885 -0.3815
 8819TIP3    H250653   2.423   2.761   3.187 -1.2649 -1.7249  0.2867
 8820TIP3   OH250654   6.929   6.212   3.627 -0.3510  0.6190  0.2475
 8820TIP3    H150655   7.006   6.227   3.682  0.5172  1.5313 -1.1369
 8820TIP3    H250656   6.890   6.298   3.614 -1.4463  0.2057  0.6781
 8821TIP3   OH250657   2.378   0.808   2.534 -0.1113 -0.7914 -0.0857
 8821TIP3    H150658   2.288   0.821   2.502 -0.7373 -0.3316  1.7498
 8821TIP3    H250659   2.405   0.894   2.565  0.1336 -1.3600  1.3542
 8822TIP3   OH250660   6.958   6.254   2.038 -0.1070  0.1271  0.5624
 8822TIP3    H150661   7.012   6.314   1.987 -1.5594  1.1287  0.1361
 8822TIP3    H250662   6.963   6.287   2.128 -1.0837  1.0750  0.2920
 8823TIP3   OH250663   0.733   6.379   2.201  0.9486  0.2347  0.1045
 8823TIP3    H150664   0.643   6.351   2.183  0.8424 -1.5123  2.8072
 8823TIP3    H250665   0.723   6.461   2.250  0.9264  0.8324 -0.8763
 8824TIP3   OH250666   1.330   5.712   1.031 -0.4571  0.4714 -0.3742
 8824TIP3    H150667   1.273   5.691   0.957 -1.0636  1.0519 -0.0898
 8824TIP3    H250668   1.409   5.748   0.992 -0.7130  0.6378 -0.7436
 8825TIP3   OH250669   2.902   5.049   1.578  0.1232 -0.3104 -0.0193
 8825TIP3    H150670   2.809   5.038   1.559  0.2566 -0.5499 -0.5625
 8825TIP3    H250671   2.912   5.019   1.668 -0.8823  2.6392  1.2089
 8826TIP3   OH250672   2.723   4.017   2.110 -0.6063  0.1564  0.3930
 8826TIP3    H150673   2.653   3.954   2.093  0.5890 -0.9938 -0.4226
 8826TIP3    H250674   2.705   4.048   2.199 -0.6665 -2.1189  1.2532
 8827TIP3   OH250675   6.471   6.844   1.145  0.5042  0.0471  0.2365
 8827TIP3    H150676   6.457   6.862   1.052 -1.2724 -2.1375 -0.0148
 8827TIP3    H250677   6.400   6.892   1.189  1.1053  0.7595  0.4378
 8828TIP3   OH250678   1.905   0.836   1.977  0.0917 -0.0315  0.1735
 8828TIP3    H150679   1.842   0.897   1.941 -1.1316 -0.7181  1.0974
 8828TIP3    H250680   1.969   0.824   1.906 -1.0731  0.2906 -0.9765
 8829TIP3   OH250681   5.431   3.098   2.344 -0.1217 -0.3822  0.2192
 8829TIP3    H150682   5.367   3.159   2.309  0.4519  0.6315  0.8635
 8829TIP3    H250683   5.430   3.024   2.284 -0.1636  0.6762 -1.1277
 8830TIP3   OH250684   0.585   4.516   2.718  0.4365 -0.0216 -0.3661
 8830TIP3    H150685   0.615   4.539   2.806  1.0759 -1.5824 -0.1467
 8830TIP3    H250686   0.604   4.422   2.709 -1.0106 -0.2522 -1.6043
 8831TIP3   OH250687   3.112   0.593   1.756  0.1673 -0.1247 -0.4171
 8831TIP3    H150688   3.021   0.619   1.762  0.3643  0.5509 -0.2878
 8831TIP3    H250689   3.149   0.650   1.689  0.9923  1.1149  1.0063
 8832TIP3   OH250690   5.746   2.044   1.810 -0.6934  0.9664  0.0292
 8832TIP3    H150691   5.682   2.103   1.772 -0.6488 -0.0539 -1.7254
 8832TIP3    H250692   5.700   1.960   1.819  0.5876 -0.0902 -2.2812
 8833TIP3   OH250693   4.272   3.886   2.574  0.0948 -0.1967  0.2248
 8833TIP3    H150694   4.258   3.829   2.498 -0.5178 -1.4915  1.2832
 8833TIP3    H250695   4.184   3.913   2.600  0.1692 -1.0915  1.4613
 8834TIP3   OH250696   7.188   2.066   1.998  0.3589 -0.3330 -0.2627
 8834TIP3    H150697   7.282   2.061   2.014  0.4600  2.1931  0.3364
 8834TIP3    H250698   7.179   2.068   1.903  0.7942 -1.6078 -0.3493
 8835TIP3   OH250699   2.208   3.420   1.072  0.0150  0.1030  0.2370
 8835TIP3    H150700   2.267   3.358   1.115  0.2130  1.0501  1.3742
 8835TIP3    H250701   2.200   3.493   1.134  0.3048  1.5277 -1.3270
 8836TIP3   OH250702   6.545   0.988   1.021  0.6274 -0.3505  0.5536
 8836TIP3    H150703   6.520   1.051   1.089 -0.9598 -0.5486  0.1906
 8836TIP3    H250704   6.628   0.950   1.052 -0.1199 -0.5257  2.4421
 8837TIP3   OH250705   5.946   5.279   0.525  0.8244  0.3888  0.4846
 8837TIP3    H150706   5.973   5.315   0.610 -0.2004  1.1613  0.5060
 8837TIP3    H250707   5.938   5.355   0.468 -0.4380  0.1160  0.2610
 8838TIP3   OH250708   0.777   0.055   1.968 -0.2435  0.4969  0.1553
 8838TIP3    H150709   0.846  -0.003   1.936 -0.0784  0.0391  1.2931
 8838TIP3    H250710   0.823   0.128   2.007 -0.3917  0.2127  0.8782
 8839TIP3   OH250711   0.885   0.765   1.268  0.3212  0.2456 -0.3495
 8839TIP3    H150712   0.951   0.825   1.233 -0.6485  1.5535 -0.0219
 8839TIP3    H250713   0.832   0.740   1.192  0.2854  0.3961 -0.3753
 8840TIP3   OH250714   1.607   1.342   2.325 -0.0955  0.2483 -0.1849
 8840TIP3    H150715   1.602   1.437   2.336  1.1472  0.1795  1.2398
 8840TIP3    H250716   1.657   1.311   2.400  2.0796 -1.2088 -2.0690
 8841TIP3   OH250717   7.575   1.367   3.323 -0.2558 -0.1713 -0.1151
 8841TIP3    H150718   7.524   1.410   3.254 -0.4650  0.0565  0.1821
 8841TIP3    H250719   7.523   1.378   3.402  0.8229  1.1215  0.4478
 8842TIP3   OH250720   6.262   7.562   1.576  0.0965  0.0468  0.3014
 8842TIP3    H150721   6.344   7.564   1.526 -0.7380 -1.9220 -1.2797
 8842TIP3    H250722   6.245   7.468   1.589 -2.6689  0.3099 -0.8051
 8843TIP3   OH250723   5.973   0.836   2.315  0.3406 -0.5436  0.7245
 8843TIP3    H150724   5.929   0.783   2.249  0.1144  1.0557 -0.4861
 8843TIP3    H250725   5.941   0.802   2.398  0.9713 -2.9073  0.0578
 8844TIP3   OH250726   3.810   6.813   1.792  0.1945  0.1185  0.4972
 8844TIP3    H150727   3.818   6.727   1.832  0.8448 -0.2273 -0.3443
 8844TIP3    H250728   3.721   6.816   1.757  1.0697 -1.4137 -2.1014
 8845TIP3   OH250729   4.628   2.190   2.123 -0.2357 -0.4834 -0.5249
 8845TIP3    H150730   4.599   2.102   2.147  0.9730 -0.7823 -0.0530
 8845TIP3    H250731   4.637   2.236   2.206 -1.6127  0.3605 -0.8150
 8846TIP3   OH250732   6.126   5.817   0.624 -0.2332  0.6839  0.3655
 8846TIP3    H150733   6.196   5.764   0.663 -1.0410 -0.4247  0.3439
 8846TIP3    H250734   6.071   5.842   0.699  0.5890  2.2499  0.5049
 8847TIP3   OH250735   6.345   5.638   0.776  0.0007  0.2185  0.1205
 8847TIP3    H150736   6.399   5.694   0.720  0.5615 -2.4388 -2.2200
 8847TIP3    H250737   6.401   5.563   0.796 -0.9990  0.0013  2.4272
 8848TIP3   OH250738   2.990   1.094   2.220 -0.4095 -0.1497  0.0148
 8848TIP3    H150739   2.906   1.049   2.209  0.1893 -0.8218 -2.4487
 8848TIP3    H250740   3.030   1.051   2.295 -1.0694 -1.8160 -0.5439
 8849TIP3   OH250741   6.430   2.950   1.251 -0.1066 -0.9666 -0.3144
 8849TIP3    H150742   6.427   2.864   1.293  2.0231 -1.0226 -0.1587
 8849TIP3    H250743   6.482   3.004   1.310  2.3697 -0.8475 -2.4070
 8850TIP3   OH250744   5.492   0.717   2.198  0.4957 -0.2747 -0.1151
 8850TIP3    H150745   5.539   0.711   2.281 -1.1006 -3.2040  0.7097
 8850TIP3    H250746   5.449   0.802   2.201  0.9784 -0.0486  1.7647
 8851TIP3   OH250747   0.660   0.720   1.462  0.2923 -0.0361  0.2262
 8851TIP3    H150748   0.737   0.775   1.480  0.2644  0.1306 -0.1528
 8851TIP3    H250749   0.693   0.649   1.407  0.7760 -1.6439  2.4677
 8852TIP3   OH250750   2.014   2.329   1.361 -0.4018 -0.5043 -1.0455
 8852TIP3    H150751   2.000   2.362   1.450  0.8357 -1.7233 -0.3600
 8852TIP3    H250752   1.937   2.276   1.343 -2.3044  2.3681 -2.0673
 8853TIP3   OH250753   1.251   3.690   1.400 -0.5028 -0.2885 -0.0653
 8853TIP3    H150754   1.336   3.705   1.358 -0.4096  0.6389  0.4157
 8853TIP3    H250755   1.193   3.754   1.359 -0.2768  1.0320  1.5522
 8854TIP3   OH250756   3.586   5.037   2.202 -0.0543  0.9367  0.7447
 8854TIP3    H150757   3.676   5.021   2.173 -0.3263 -0.6990  0.6900
 8854TIP3    H250758   3.590   5.030   2.298 -0.2035  0.2884  0.7106
 8855TIP3   OH250759   0.875   3.450   3.275 -0.2306 -0.6883  0.0683
 8855TIP3    H150760   0.904   3.499   3.352 -2.0536  1.6685 -0.6522
 8855TIP3    H250761   0.939   3.470   3.207 -0.0410 -0.6951  0.2440
 8856TIP3   OH250762   5.624   1.619   0.856  0.0412 -0.1591  0.2170
 8856TIP3    H150763   5.583   1.592   0.938  1.3050  1.0199  1.2994
 8856TIP3    H250764   5.566   1.688   0.823 -0.2861 -0.3896  0.3001
 8857TIP3   OH250765   0.466   6.378   1.360 -0.8619  0.2515  0.0112
 8857TIP3    H150766   0.559   6.364   1.378 -0.9301 -1.0459 -0.5410
 8857TIP3    H250767   0.421   6.329   1.429 -1.1274 -0.0038 -0.3422
 8858TIP3   OH250768   6.976   2.712   1.748 -0.4798 -0.1096 -0.2650
 8858TIP3    H150769   7.053   2.659   1.765 -0.0856  0.7616  0.7669
 8858TIP3    H250770   6.928   2.663   1.681 -0.9548 -2.6085  1.7222
 8859TIP3   OH250771   6.721   6.584   2.276  0.2182 -0.2566  0.1387
 8859TIP3    H150772   6.640   6.533   2.273 -0.2159  0.2837 -4.4485
 8859TIP3    H250773   6.691   6.675   2.279  0.5755 -0.0520 -1.6353
 8860TIP3   OH250774   7.632   6.878   2.901 -0.0284 -0.6911 -0.5985
 8860TIP3    H150775   7.653   6.911   2.989 -1.7150 -1.8848  0.2964
 8860TIP3    H250776   7.685   6.799   2.893 -0.8979 -1.3422 -0.0731
 8861TIP3   OH250777   2.104   0.647   1.371  0.2658 -0.0091 -0.4658
 8861TIP3    H150778   2.119   0.597   1.291  1.0617  1.9877 -1.6655
 8861TIP3    H250779   2.107   0.739   1.342 -0.1762  0.7616  1.7425
 8862TIP3   OH250780   1.111   0.414   2.286  0.1268  0.0591  1.3115
 8862TIP3    H150781   1.090   0.455   2.202  1.5981  1.9270  1.7827
 8862TIP3    H250782   1.131   0.323   2.264  0.0003  0.3906 -0.2892
 8863TIP3   OH250783   2.514   3.073   0.413 -0.2823 -0.3639  1.0754
 8863TIP3    H150784   2.433   3.110   0.448 -0.1943  0.6499  0.2571
 8863TIP3    H250785   2.584   3.120   0.458 -0.1621 -0.2148  0.7351
 8864TIP3   OH250786   7.277   5.650   3.398 -0.3622  0.2916 -0.0216
 8864TIP3    H150787   7.254   5.736   3.362 -0.0356  1.0327  1.4830
 8864TIP3    H250788   7.246   5.588   3.332 -0.0509  1.5791 -1.4390
 8865TIP3   OH250789   4.966   1.398   2.277  0.0919  0.2208  0.0528
 8865TIP3    H150790   4.969   1.492   2.297 -0.0481  0.3598 -0.5531
 8865TIP3    H250791   4.887   1.366   2.321 -0.1821  0.5064 -0.2327
 8866TIP3   OH250792   2.408   1.803   2.146 -0.2963 -0.1800  0.1427
 8866TIP3    H150793   2.494   1.835   2.173  0.4435  0.2782 -2.4492
 8866TIP3    H250794   2.385   1.859   2.072 -2.4770 -0.8387  0.2707
 8867TIP3   OH250795   6.261   1.325   2.550 -0.0671  0.2456 -0.5080
 8867TIP3    H150796   6.345   1.343   2.594  0.5125  1.1991 -1.9278
 8867TIP3    H250797   6.228   1.247   2.593  0.8447  0.6844  1.0826
 8868TIP3   OH250798   1.642   4.573   2.109 -0.2298  0.5381  0.5325
 8868TIP3    H150799   1.568   4.576   2.048 -0.5878 -1.4407  0.8023
 8868TIP3    H250800   1.644   4.660   2.150 -2.4761  0.5975  0.6029
 8869TIP3   OH250801   3.439   1.478   0.349 -0.0426 -0.6444 -0.4025
 8869TIP3    H150802   3.351   1.461   0.314 -0.2220 -0.1610 -0.1920
 8869TIP3    H250803   3.424   1.504   0.440  0.0481  2.4687 -1.1795
 8870TIP3   OH250804   0.882   5.253   2.429 -0.1192 -0.0034  0.6045
 8870TIP3    H150805   0.976   5.250   2.447 -0.5409 -2.3557  3.1575
 8870TIP3    H250806   0.854   5.162   2.433 -2.1345  0.2620 -3.1182
 8871TIP3   OH250807   1.719   0.995   1.382 -0.0435  0.3515 -0.2278
 8871TIP3    H150808   1.774   1.054   1.433  0.2213 -0.4112  0.3960
 8871TIP3    H250809   1.660   0.956   1.447  1.3701 -1.8722 -0.1860
 8872TIP3   OH250810   4.528   1.439   0.946 -0.2079 -0.5494 -0.2690
 8872TIP3    H150811   4.587   1.465   1.017  1.1207 -2.4748 -0.5821
 8872TIP3    H250812   4.509   1.520   0.899  1.1420  0.3341  0.6337
 8873TIP3   OH250813   6.049   3.738   1.340  0.2490 -0.0426  0.1718
 8873TIP3    H150814   5.964   3.775   1.320 -0.0491 -0.5265  0.5152
 8873TIP3    H250815   6.110   3.784   1.283 -0.2277  0.3766 -0.0009
 8874TIP3   OH250816   2.210   4.478   0.930 -0.1385  0.1172  0.5699
 8874TIP3    H150817   2.181   4.420   1.001 -0.2082  0.2107  0.6174
 8874TIP3    H250818   2.142   4.545   0.925  0.3017  0.5965  0.9893
 8875TIP3   OH250819   7.643   7.654   0.723  0.4953  0.4001 -0.0360
 8875TIP3    H150820   7.623   7.723   0.786 -0.3015 -0.4842  0.7084
 8875TIP3    H250821   7.617   7.691   0.638  2.3390  1.9112 -0.0084
 8876TIP3   OH250822   1.562   5.186   0.919 -0.1524 -0.2454 -0.0304
 8876TIP3    H150823   1.605   5.102   0.936  1.9307  0.6957 -0.3386
 8876TIP3    H250824   1.604   5.218   0.839  0.0182  1.6698  0.7863
 8877TIP3   OH250825   4.229   4.593   2.902 -0.1469 -0.4645  0.1135
 8877TIP3    H150826   4.140   4.565   2.923 -0.1388 -1.7573 -1.3950
 8877TIP3    H250827   4.240   4.676   2.949 -1.9581 -0.5340  0.7279
 8878TIP3   OH250828   2.965   6.595   1.273  0.0704  0.0660 -0.2206
 8878TIP3    H150829   2.993   6.642   1.194  1.0759  0.1264  0.1508
 8878TIP3    H250830   3.047   6.567   1.314 -0.2890  1.8299  1.8918
 8879TIP3   OH250831   2.628   6.276   2.856  0.5631  0.2870  0.6142
 8879TIP3    H150832   2.609   6.370   2.851 -0.9134  0.0036  0.5063
 8879TIP3    H250833   2.592   6.248   2.940 -1.1478 -0.5978 -0.3468
 8880TIP3   OH250834   2.432   7.535   2.992  0.3571 -0.3714  0.2779
 8880TIP3    H150835   2.373   7.505   3.061 -0.2834 -0.2421 -0.1977
 8880TIP3    H250836   2.519   7.530   3.031  0.3037 -2.7284  0.2901
 8881TIP3   OH250837   2.180   5.899   0.629  0.0757 -0.0448 -0.4284
 8881TIP3    H150838   2.253   5.844   0.599 -0.3020 -0.1058 -1.2754
 8881TIP3    H250839   2.181   5.974   0.570  0.5864  0.8816  0.7210
 8882TIP3   OH250840   7.550   3.909   2.102 -0.6041 -0.4537  0.1951
 8882TIP3    H150841   7.508   3.854   2.168  1.5183  0.0824  2.1132
 8882TIP3    H250842   7.492   3.984   2.093 -1.8436 -1.3894  0.0346
 8883TIP3   OH250843   3.187   1.705   2.472  0.3048 -0.3728  0.5183
 8883TIP3    H150844   3.175   1.737   2.383  0.8736 -0.2481  0.4780
 8883TIP3    H250845   3.111   1.736   2.520 -0.8559 -1.8505 -0.2888
 8884TIP3   OH250846   3.942   6.198   1.675 -0.3948 -0.2212  0.6458
 8884TIP3    H150847   3.890   6.229   1.600  0.5221  0.7058  0.3762
 8884TIP3    H250848   3.995   6.127   1.639  0.0237  0.2038  0.4089
 8885TIP3   OH250849   1.187   3.142   1.676 -0.5216 -0.3817  0.2156
 8885TIP3    H150850   1.137   3.068   1.643 -0.6721  0.3205 -1.2229
 8885TIP3    H250851   1.234   3.176   1.599  0.8092  0.0406  1.1598
 8886TIP3   OH250852   4.207   2.966   2.604  0.1131 -0.3878  0.4347
 8886TIP3    H150853   4.152   3.028   2.557 -0.5666 -0.4185  1.1754
 8886TIP3    H250854   4.224   2.896   2.540 -1.8374 -1.0490  0.5778
 8887TIP3   OH250855   1.652   0.866   0.620 -0.2318 -0.3538  0.3283
 8887TIP3    H150856   1.633   0.960   0.623 -0.4649 -0.3608 -0.5239
 8887TIP3    H250857   1.625   0.839   0.532 -0.0802 -1.2027  0.5301
 8888TIP3   OH250858   7.201   7.038   1.986 -0.1900 -0.0988 -0.1428
 8888TIP3    H150859   7.167   7.123   2.012  0.4635  0.1762 -0.1960
 8888TIP3    H250860   7.296   7.046   1.991 -0.0903 -0.5193 -1.0731
 8889TIP3   OH250861   7.014   0.598   2.332  0.4791  0.0345 -0.2686
 8889TIP3    H150862   6.970   0.634   2.254  0.6159 -0.9980 -0.8415
 8889TIP3    H250863   7.107   0.604   2.311  0.5326  0.1646  0.0087
 8890TIP3   OH250864   4.262   4.168   2.235 -0.0551  0.3684  0.2239
 8890TIP3    H150865   4.326   4.098   2.220  0.5223  1.0440 -0.5980
 8890TIP3    H250866   4.310   4.233   2.286 -0.3440  0.5213  0.3013
 8891TIP3   OH250867   1.681   0.347   1.506 -0.1844 -0.2638  0.3115
 8891TIP3    H150868   1.738   0.384   1.573 -0.5402  0.0647  0.4366
 8891TIP3    H250869   1.714   0.258   1.493  0.8176  0.1598 -0.1483
 8892TIP3   OH250870   2.604   4.330   2.539 -0.2873 -0.3650  0.1254
 8892TIP3    H150871   2.585   4.419   2.567  1.0676 -0.4113  1.3166
 8892TIP3    H250872   2.652   4.292   2.613  1.7875 -1.1294 -1.5421
 8893TIP3   OH250873   0.019   6.180   3.326 -0.5405  0.0666  0.1684
 8893TIP3    H150874   0.090   6.118   3.311 -0.6001 -0.3075  1.3620
 8893TIP3    H250875  -0.018   6.155   3.410 -2.4424 -0.0731 -0.6601
 8894TIP3   OH250876   2.169   3.756   2.294 -0.4539 -0.2345  0.2328
 8894TIP3    H150877   2.216   3.741   2.376  1.4713 -1.4148 -1.0185
 8894TIP3    H250878   2.098   3.692   2.296 -0.3521 -0.3396  0.9142
 8895TIP3   OH250879   6.018   6.665   2.332 -0.1843 -0.1036 -0.6965
 8895TIP3    H150880   6.007   6.748   2.284  1.1921 -0.9626 -2.6158
 8895TIP3    H250881   6.031   6.600   2.263  4.6625 -1.0307  0.7565
 8896TIP3   OH250882   2.488   2.034   1.406 -0.2345  0.0637 -0.7987
 8896TIP3    H150883   2.401   2.006   1.435 -0.0103 -1.7721 -1.6928
 8896TIP3    H250884   2.482   2.128   1.395 -1.1770  0.4397  2.1957
 8897TIP3   OH250885   4.821   6.524   2.079  0.5003 -0.0796 -0.1405
 8897TIP3    H150886   4.867   6.544   2.161  1.5362  0.1106 -0.7631
 8897TIP3    H250887   4.844   6.433   2.061 -0.1065 -0.2669  0.0154
 8898TIP3   OH250888   3.100   4.271   1.393 -0.0085  0.4627  0.2473
 8898TIP3    H150889   3.098   4.366   1.385  1.6619  0.6841  1.8403
 8898TIP3    H250890   3.168   4.243   1.332  0.1598  0.3853  0.4704
 8899TIP3   OH250891   4.770   2.695   1.722  0.2639  0.3054 -0.5863
 8899TIP3    H150892   4.741   2.786   1.717 -2.1568 -0.3968 -0.6734
 8899TIP3    H250893   4.807   2.676   1.636  0.4397  1.0878 -0.6891
 8900TIP3   OH250894   6.840   5.092   1.614 -0.3451  0.5357  0.3982
 8900TIP3    H150895   6.867   5.016   1.562 -1.3139  0.1628  0.4314
 8900TIP3    H250896   6.753   5.114   1.582 -0.4236  1.1134  0.9772
 8901TIP3   OH250897   3.967   4.388   1.116 -0.0248 -0.1143  0.5498
 8901TIP3    H150898   4.030   4.356   1.051  0.2393  0.7452  0.3726
 8901TIP3    H250899   3.954   4.480   1.094 -1.5260 -0.3350  0.4510
 8902TIP3   OH250900   5.568   2.200   2.025 -0.2930  0.4238  0.5410
 8902TIP3    H150901   5.611   2.238   2.102  1.1514  0.4627 -0.2518
 8902TIP3    H250902   5.587   2.107   2.030 -1.5460  0.1740  1.0453
 8903TIP3   OH250903   0.332   4.438   0.867  0.0410  0.3903 -0.5005
 8903TIP3    H150904   0.333   4.425   0.773 -0.1597  1.6569 -0.6938
 8903TIP3    H250905   0.345   4.532   0.879  1.5308  0.0750  0.7787
 8904TIP3   OH250906   1.039   4.279   2.389 -0.2303 -0.4884 -0.2381
 8904TIP3    H150907   1.065   4.249   2.302 -0.2275 -0.1071 -0.3697
 8904TIP3    H250908   1.120   4.283   2.439 -0.4877 -3.1894  0.5804
 8905TIP3   OH250909   5.911   5.258   3.279  0.3653  0.2176  0.1894
 8905TIP3    H150910   5.969   5.196   3.323  0.4856  0.0922 -0.1442
 8905TIP3    H250911   5.823   5.233   3.308  0.4473  0.1702  0.3997
 8906TIP3   OH250912   3.373   0.551   1.300  0.2383  0.3284 -0.8069
 8906TIP3    H150913   3.317   0.604   1.243  0.0686  1.1256  0.0889
 8906TIP3    H250914   3.334   0.558   1.386  1.1752  0.1256 -0.3492
 8907TIP3   OH250915   1.164   7.039   2.288  0.4884  0.0024 -0.3625
 8907TIP3    H150916   1.183   7.011   2.198  1.3061 -0.2186 -0.1281
 8907TIP3    H250917   1.110   6.968   2.324  0.6098 -0.1648 -0.5082
 8908TIP3   OH250918   7.159   5.817   2.290  0.1713  0.1869  0.0528
 8908TIP3    H150919   7.226   5.866   2.242  0.4815 -1.4451 -1.2635
 8908TIP3    H250920   7.163   5.729   2.254 -1.2653 -0.4978  1.4357
 8909TIP3   OH250921   5.052   5.137   1.213  0.1053 -0.1419 -0.0065
 8909TIP3    H150922   4.984   5.076   1.184  1.0780 -1.0332 -0.4662
 8909TIP3    H250923   5.091   5.170   1.132  0.6202 -0.0859  0.2609
 8910TIP3   OH250924   0.441   0.866   1.067 -0.1377  0.1548  0.0343
 8910TIP3    H150925   0.526   0.909   1.072 -0.9270  1.6518  2.2034
 8910TIP3    H250926   0.384   0.930   1.024 -0.0662 -1.1294 -2.0856
 8911TIP3   OH250927   5.057   7.394   2.185 -0.1478 -0.3541 -0.1666
 8911TIP3    H150928   5.061   7.375   2.279 -0.7808  0.4209  0.0212
 8911TIP3    H250929   4.979   7.449   2.174  0.2633  0.0776 -1.0545
 8912TIP3   OH250930   7.048   3.200   3.375 -0.4049 -0.1855 -0.0206
 8912TIP3    H150931   7.111   3.251   3.323 -0.7004  0.2849  0.0740
 8912TIP3    H250932   7.019   3.261   3.443  0.1385 -0.8614  0.8328
 8913TIP3   OH250933   5.579   7.307   2.034 -0.5400 -0.8349  0.2524
 8913TIP3    H150934   5.547   7.290   1.945 -0.6836  1.1920 -0.1274
 8913TIP3    H250935   5.529   7.383   2.064  1.4769  0.3071  0.9546
 8914TIP3   OH250936   7.337   0.576   2.723  0.3241 -0.3115  0.1867
 8914TIP3    H150937   7.410   0.620   2.767 -1.2688  2.0354  0.6355
 8914TIP3    H250938   7.260   0.626   2.747 -1.1481 -1.1867 -2.2716
 8915TIP3   OH250939   7.642   6.933   1.109 -0.0094 -0.0803 -0.1410
 8915TIP3    H150940   7.635   6.841   1.083 -0.4499 -0.1269  0.1408
 8915TIP3    H250941   7.564   6.975   1.073  0.3666  0.2608 -0.5731
 8916TIP3   OH250942   5.481   3.324   1.181 -0.2387 -0.0963 -0.4603
 8916TIP3    H150943   5.576   3.334   1.177 -0.5030  3.9370 -2.0227
 8916TIP3    H250944   5.458   3.348   1.270  0.1654 -1.3024 -0.0113
 8917TIP3   OH250945   6.003   1.942   2.159  0.2241 -0.0444 -0.0514
 8917TIP3    H150946   5.919   1.964   2.198 -0.5473 -2.2436 -0.3261
 8917TIP3    H250947   6.068   1.966   2.226 -0.7288  0.2419  0.7901
 8918TIP3   OH250948   4.952   7.038   1.530  0.2660 -0.4633  0.1181
 8918TIP3    H150949   4.971   6.955   1.485 -0.3026 -0.4035 -0.2371
 8918TIP3    H250950   4.966   7.018   1.622  0.8976 -0.7434 -0.0315
 8919TIP3   OH250951   5.426   1.117   1.740 -0.1583 -0.1070 -0.2996
 8919TIP3    H150952   5.522   1.110   1.736  0.0949  1.5699  1.3435
 8919TIP3    H250953   5.400   1.046   1.799 -0.0588 -1.1564 -1.4770
 8920TIP3   OH250954   3.083   2.160   2.344 -0.2475  0.1944 -0.2299
 8920TIP3    H150955   3.147   2.216   2.301 -0.8924  1.0814 -0.0590
 8920TIP3    H250956   3.009   2.155   2.283 -0.2483 -0.3793 -0.1922
 8921TIP3   OH250957   5.143   7.191   1.768  0.5399  0.2431 -0.1372
 8921TIP3    H150958   5.219   7.144   1.734 -0.6128 -1.0816 -1.0346
 8921TIP3    H250959   5.084   7.122   1.797 -0.1160  1.2576  1.0346
 8922TIP3   OH250960   5.033   3.334   1.638  0.5217  0.3266  0.4259
 8922TIP3    H150961   5.086   3.283   1.699  1.0116  1.1051  0.6578
 8922TIP3    H250962   5.036   3.284   1.557 -0.0478 -0.6657  0.9934
 8923TIP3   OH250963   1.814   1.867   2.038 -0.2897 -0.7270 -0.2810
 8923TIP3    H150964   1.771   1.834   1.959 -2.0015  1.0219 -0.1679
 8923TIP3    H250965   1.756   1.937   2.069  2.1359  1.0889  0.5209
 8924TIP3   OH250966   2.598   5.305   0.928 -0.9577 -0.2318  0.0158
 8924TIP3    H150967   2.570   5.233   0.872  1.5040  0.1773 -1.9023
 8924TIP3    H250968   2.642   5.263   1.002  2.3280 -0.8697 -2.1027
 8925TIP3   OH250969   1.630   2.777   1.317  0.1421 -0.0779  0.3414
 8925TIP3    H150970   1.624   2.694   1.364 -2.1308 -0.3441 -0.2815
 8925TIP3    H250971   1.648   2.751   1.227 -2.4517 -0.1456 -0.2570
 8926TIP3   OH250972   6.780   1.406   1.425 -0.4052 -0.1744  0.0028
 8926TIP3    H150973   6.866   1.439   1.451 -0.4570 -1.0279  1.3449
 8926TIP3    H250974   6.750   1.468   1.358  2.2772 -1.2444 -2.3617
 8927TIP3   OH250975   7.427   1.092   1.544  0.0601 -0.3628 -0.1830
 8927TIP3    H150976   7.437   1.185   1.521 -0.0155 -0.1701  0.5223
 8927TIP3    H250977   7.347   1.065   1.499 -0.2402  0.0810  0.0719
 8928TIP3   OH250978   7.167   5.029   1.854  0.2445  0.0762  0.3724
 8928TIP3    H150979   7.087   5.027   1.803 -0.0143 -1.7937  0.7803
 8928TIP3    H250980   7.233   5.067   1.795  0.0076 -2.1808 -1.4590
 8929TIP3   OH250981   2.546   3.593   2.742 -0.2435  0.1541 -0.2888
 8929TIP3    H150982   2.462   3.606   2.785  0.5209 -0.4393  1.5019
 8929TIP3    H250983   2.591   3.677   2.752 -1.3707  1.2106 -3.1865
 8930TIP3   OH250984   0.299   5.962   2.292 -0.0332 -0.1671 -0.6068
 8930TIP3    H150985   0.209   5.929   2.286 -0.7453  0.9547  2.2800
 8930TIP3    H250986   0.289   6.056   2.305  1.7045  0.3154 -2.3988
 8931TIP3   OH250987   1.543   3.687   1.675  0.0195 -0.8284 -0.0131
 8931TIP3    H150988   1.492   3.761   1.641  0.2501 -0.1261  1.0980
 8931TIP3    H250989   1.478   3.624   1.705 -0.2169 -0.0049  1.2560
 8932TIP3   OH250990   4.104   6.838   1.928 -0.4178 -0.2894  0.0529
 8932TIP3    H150991   4.178   6.820   1.870  1.1777 -1.1092  2.1979
 8932TIP3    H250992   4.030   6.793   1.888  0.5923 -0.7064 -1.4018
 8933TIP3   OH250993   6.860   3.307   1.125 -0.2672  0.5471 -0.5201
 8933TIP3    H150994   6.859   3.370   1.197  2.1569  0.8597 -0.6849
 8933TIP3    H250995   6.946   3.318   1.085 -1.0506 -0.5681 -2.6401
 8934TIP3   OH250996   0.610   4.278   0.868 -0.3211 -0.5979 -0.4314
 8934TIP3    H150997   0.598   4.189   0.902  1.6786 -0.4321  0.8688
 8934TIP3    H250998   0.596   4.335   0.943 -0.2057  0.0892 -0.9219
 8935TIP3   OH250999   0.295   6.023   1.846  0.5027 -0.2260 -0.7592
 8935TIP3    H151000   0.298   6.118   1.858 -0.8906 -0.1283 -1.1010
 8935TIP3    H251001   0.355   5.989   1.913  0.3076  0.8382 -0.0272
 8936TIP3   OH251002   5.415   0.479   1.667 -0.0727  0.7265  0.5576
 8936TIP3    H151003   5.481   0.464   1.599  0.1385  1.6577  0.5390
 8936TIP3    H251004   5.453   0.443   1.747  0.3597  1.0446  0.4967
 8937TIP3   OH251005   5.235   1.336   1.732 -0.4165  0.0819  0.1034
 8937TIP3    H151006   5.160   1.320   1.790 -0.8973 -0.1522 -0.5713
 8937TIP3    H251007   5.273   1.249   1.719  1.1002  0.4036  1.8993
 8938TIP3   OH251008   3.168   5.053   1.493 -0.6618 -0.2060 -1.0628
 8938TIP3    H151009   3.173   5.137   1.539 -1.6339 -0.0365 -1.2575
 8938TIP3    H251010   3.081   5.019   1.515 -0.3007 -1.1340 -1.0420
 8939TIP3   OH251011   1.011   3.559   1.395  0.8096  0.1999 -0.8691
 8939TIP3    H151012   1.097   3.601   1.389  0.6156  0.8177  0.3659
 8939TIP3    H251013   1.002   3.510   1.313  0.5624  3.4808 -2.9874
 8940TIP3   OH251014   7.250   3.800   3.105 -0.3142 -0.2328 -0.1969
 8940TIP3    H151015   7.192   3.842   3.042 -0.1122 -0.3486 -0.4589
 8940TIP3    H251016   7.222   3.708   3.106 -0.0982 -0.3021 -0.3694
 8941TIP3   OH251017   4.680   3.880   2.755 -0.0846 -0.1637  0.4357
 8941TIP3    H151018   4.623   3.927   2.816 -0.6580  0.8744 -0.8445
 8941TIP3    H251019   4.746   3.944   2.729 -1.2405  0.2397 -1.8169
 8942TIP3   OH251020   1.258   7.666   1.752  0.2075 -0.4096 -0.1802
 8942TIP3    H151021   1.171   7.694   1.726  0.3040  0.1667  0.1015
 8942TIP3    H251022   1.292   7.738   1.806  0.8592 -0.6197 -0.2958
 8943TIP3   OH251023   6.604   4.454   1.963 -0.0944 -0.1623  0.3823
 8943TIP3    H151024   6.621   4.537   2.009  2.4272 -1.6536  2.3935
 8943TIP3    H251025   6.669   4.452   1.893  0.7874 -0.9930  1.1961
 8944TIP3   OH251026   4.137   5.921   1.460  0.2564 -0.7100 -0.2840
 8944TIP3    H151027   4.068   5.987   1.450 -1.3801 -2.0378  1.5714
 8944TIP3    H251028   4.143   5.907   1.554  4.0992  0.3134 -0.1819
 8945TIP3   OH251029   2.284   4.502   0.638  0.4579  0.1561  0.1558
 8945TIP3    H151030   2.271   4.490   0.732 -1.4409  1.6021  0.1519
 8945TIP3    H251031   2.294   4.597   0.628 -1.3792  0.2451 -1.2592
 8946TIP3   OH251032   4.704   4.781   1.542  0.2616 -0.3470 -0.3476
 8946TIP3    H151033   4.674   4.843   1.476  0.6752 -0.6343 -0.8135
 8946TIP3    H251034   4.726   4.702   1.492 -0.0883 -0.8119  0.2137
 8947TIP3   OH251035   3.948   0.679   1.122  0.0896 -0.5586 -0.7307
 8947TIP3    H151036   4.018   0.615   1.134 -0.9419 -1.7555 -0.7846
 8947TIP3    H251037   3.980   0.738   1.053  0.6226 -1.7252 -1.5138
 8948TIP3   OH251038   6.039   4.854   0.658  0.7569  0.1451  0.4644
 8948TIP3    H151039   6.028   4.853   0.753  0.3693 -0.9216  0.4269
 8948TIP3    H251040   6.058   4.763   0.635  2.9564  0.7289 -0.2649
 8949TIP3   OH251041   0.429   4.606   3.124  0.0092  0.2829 -0.0544
 8949TIP3    H151042   0.402   4.560   3.203  0.2748  1.3112  0.6689
 8949TIP3    H251043   0.363   4.585   3.059 -1.9866  1.8590  1.3317
 8950TIP3   OH251044   5.770   5.754   2.105 -0.2537  0.6690 -0.4760
 8950TIP3    H151045   5.853   5.801   2.101 -0.2142  0.5783 -0.7640
 8950TIP3    H251046   5.703   5.821   2.100 -0.1960  0.7217 -0.5411
 8951TIP3   OH251047   2.466   2.001   0.853  0.5034  0.2924 -0.4302
 8951TIP3    H151048   2.485   1.962   0.938  0.0903  0.3274 -0.3188
 8951TIP3    H251049   2.412   1.937   0.808  1.2359  0.0020 -0.9174
 8952TIP3   OH251050   1.655   5.561   2.949  0.2804  0.3120 -0.4817
 8952TIP3    H151051   1.694   5.495   3.005  0.9290 -0.4242 -1.7450
 8952TIP3    H251052   1.642   5.637   3.006  1.1471 -0.3163  0.5867
 8953TIP3   OH251053   7.275   0.697   1.425 -0.3291  0.4077 -0.3729
 8953TIP3    H151054   7.243   0.622   1.375  1.7948  0.3114 -1.6821
 8953TIP3    H251055   7.337   0.660   1.488 -1.9033  0.7065  1.4606
 8954TIP3   OH251056   6.035   4.031   1.583 -0.0742  0.4031  0.0020
 8954TIP3    H151057   5.979   3.969   1.536 -0.1142  0.3134  0.1675
 8954TIP3    H251058   6.050   4.102   1.520  2.1242 -0.9883 -1.1753
 8955TIP3   OH251059   3.596   6.292   1.119 -0.0740  0.1802  0.9471
 8955TIP3    H151060   3.669   6.236   1.143 -1.6353 -1.6683  1.6273
 8955TIP3    H251061   3.580   6.347   1.196 -0.4040 -0.5579  1.4150
 8956TIP3   OH251062   4.384   7.039   0.876  0.2040  0.1632 -0.7480
 8956TIP3    H151063   4.312   6.993   0.833 -1.3595 -2.1237  3.6473
 8956TIP3    H251064   4.344   7.117   0.914  0.6065  0.1583 -0.2937
 8957TIP3   OH251065   5.921   0.126   1.641  0.2900  0.8763 -0.3293
 8957TIP3    H151066   6.001   0.177   1.628  0.4680  0.9916  1.1338
 8957TIP3    H251067   5.861   0.159   1.575  0.8933  1.9581 -0.3527
 8958TIP3   OH251068   4.865   0.515   1.105  0.2822 -0.0285  0.6124
 8958TIP3    H151069   4.960   0.525   1.098  0.4818 -2.1445 -0.7062
 8958TIP3    H251070   4.829   0.596   1.070  1.6312 -0.5631 -2.3306
 8959TIP3   OH251071   3.168   1.098   2.009 -0.6535 -0.1188 -0.0295
 8959TIP3    H151072   3.198   1.188   2.012 -0.3038 -0.1947 -0.9869
 8959TIP3    H251073   3.113   1.088   2.087 -0.8496  0.9710 -0.0180
 8960TIP3   OH251074   5.607   2.706   1.067 -0.0883  0.6812  0.2759
 8960TIP3    H151075   5.627   2.745   0.982 -0.9720  2.3255  0.7657
 8960TIP3    H251076   5.636   2.771   1.131 -0.0395 -0.2330  1.2174
 8961TIP3   OH251077   1.926   2.581   1.194 -0.1644 -0.2484  0.0335
 8961TIP3    H151078   1.957   2.500   1.235  0.8723 -0.9446 -1.9897
 8961TIP3    H251079   1.990   2.647   1.220  0.8961 -0.8426 -0.9648
 8962TIP3   OH251080   2.179   4.094   2.502  0.1576  0.1863 -0.3663
 8962TIP3    H151081   2.088   4.114   2.527  0.8187  0.3051  2.2283
 8962TIP3    H251082   2.232   4.143   2.564  1.9966 -0.6773 -1.1925
 8963TIP3   OH251083   2.845   0.614   2.287 -0.1626 -0.3061 -0.2115
 8963TIP3    H151084   2.914   0.648   2.229 -1.3120  1.0675 -0.8219
 8963TIP3    H251085   2.857   0.519   2.284  1.1054 -0.1545 -1.0488
 8964TIP3   OH251086   0.964   7.431   2.128 -0.6533 -0.2068  0.1848
 8964TIP3    H151087   0.983   7.341   2.102  0.2662  0.2732 -0.9299
 8964TIP3    H251088   0.949   7.427   2.222  0.9719 -1.2875  0.4316
 8965TIP3   OH251089   0.684   0.756   0.686  0.0973  0.0843  0.0235
 8965TIP3    H151090   0.605   0.703   0.684  0.2317 -0.1827 -3.2958
 8965TIP3    H251091   0.669   0.827   0.623  1.6242  1.4258  1.0548
 8966TIP3   OH251092   1.235   6.716   2.519 -0.5081  0.0588 -0.1708
 8966TIP3    H151093   1.227   6.726   2.424  0.1472  1.1919 -0.1263
 8966TIP3    H251094   1.274   6.798   2.548 -0.3843 -0.4147  1.0432
 8967TIP3   OH251095   7.214   4.193   0.707 -0.3874 -0.0513 -0.4522
 8967TIP3    H151096   7.150   4.122   0.706  0.6239 -1.1037  2.2576
 8967TIP3    H251097   7.235   4.205   0.799  2.3454  1.1600 -1.1546
 8968TIP3   OH251098   2.642   1.514   0.943  0.0950  0.6081  0.2842
 8968TIP3    H151099   2.723   1.558   0.970 -0.1292  0.2493  1.5950
 8968TIP3    H251100   2.583   1.523   1.018 -0.6224 -0.2836 -0.1481
 8969TIP3   OH251101   5.781   4.144   3.343 -1.0492  0.1314  0.1592
 8969TIP3    H151102   5.855   4.163   3.285 -1.8827  0.2026 -0.8996
 8969TIP3    H251103   5.735   4.072   3.301 -0.4089 -1.3909  1.9064
 8970TIP3   OH251104   3.612   5.089   1.347 -0.5503  0.5241  0.2242
 8970TIP3    H151105   3.543   5.024   1.353 -0.6471  0.5668 -0.3279
 8970TIP3    H251106   3.691   5.039   1.326 -0.3837  0.4609  0.9920
 8971TIP3   OH251107   6.142   1.523   0.486  0.9937 -0.0128 -0.5222
 8971TIP3    H151108   6.099   1.579   0.421  0.6438 -0.9135 -1.1016
 8971TIP3    H251109   6.231   1.558   0.494  0.8740  0.4333 -1.1002
 8972TIP3   OH251110   3.575   2.129   1.887 -0.1217 -0.2486  0.6756
 8972TIP3    H151111   3.626   2.208   1.904 -0.7679  0.5664 -1.0621
 8972TIP3    H251112   3.491   2.144   1.930  0.4653 -0.9092  2.1330
 8973TIP3   OH251113   1.459   1.019   2.486  0.4301 -0.7622  0.4167
 8973TIP3    H151114   1.475   0.926   2.467  1.7253 -0.3228 -0.7351
 8973TIP3    H251115   1.463   1.062   2.401 -0.0007  0.3911  0.9605
 8974TIP3   OH251116   2.383   1.114   0.465  0.0020  0.6506  0.0095
 8974TIP3    H151117   2.394   1.128   0.371 -0.5287 -0.4478 -0.2399
 8974TIP3    H251118   2.310   1.171   0.489 -0.4935  0.2327 -0.4552
 8975TIP3   OH251119   6.299   6.050   1.184 -0.1655 -0.3912 -0.3479
 8975TIP3    H151120   6.246   6.102   1.124 -2.2118 -0.5098  1.2246
 8975TIP3    H251121   6.386   6.088   1.180 -1.0061  1.5481 -1.0996
 8976TIP3   OH251122   4.209   3.041   2.064  0.8583  0.3404 -0.4383
 8976TIP3    H151123   4.170   2.966   2.109  0.9179  0.5850  0.0364
 8976TIP3    H251124   4.234   3.008   1.978 -0.9560  0.3309 -0.9929
 8977TIP3   OH251125   7.058   3.505   2.764 -0.1084 -0.0846 -0.6504
 8977TIP3    H151126   7.120   3.433   2.774 -1.3976 -0.9671  1.6071
 8977TIP3    H251127   6.992   3.471   2.704  0.3694  0.0181 -1.2451
 8978TIP3   OH251128   6.657   3.912   2.742  1.1219  0.1455 -0.0537
 8978TIP3    H151129   6.591   3.856   2.782  1.7146 -1.3981 -1.1289
 8978TIP3    H251130   6.721   3.927   2.812  0.2627  0.6377  0.6366
 8979TIP3   OH251131   3.878   4.690   3.308  0.0915  0.2662 -0.5958
 8979TIP3    H151132   3.787   4.711   3.288 -0.9376  1.6588  4.1648
 8979TIP3    H251133   3.873   4.611   3.362  2.1545 -1.4793 -2.7607
 8980TIP3   OH251134   4.602   5.829   3.194  0.6522  0.1187  0.2613
 8980TIP3    H151135   4.674   5.850   3.134 -0.4237 -1.9250 -1.8998
 8980TIP3    H251136   4.530   5.887   3.166  0.4571 -0.1235  0.2604
 8981TIP3   OH251137   3.634   5.281   2.938  0.3322 -0.3020  0.1588
 8981TIP3    H151138   3.649   5.324   3.022 -1.4764  1.0100 -0.1427
 8981TIP3    H251139   3.697   5.321   2.879  1.3951 -0.9993  0.7960
 8982TIP3   OH251140   6.049   6.491   0.593  0.2422  0.6734 -0.3830
 8982TIP3    H151141   5.988   6.419   0.580 -0.5900  1.2504  0.2032
 8982TIP3    H251142   6.135   6.453   0.579 -0.0690 -0.8301  1.4363
 8983TIP3   OH251143   2.419   0.898   1.474  0.4386  0.1625  0.1030
 8983TIP3    H151144   2.479   0.825   1.456 -0.9647 -1.0720  0.2433
 8983TIP3    H251145   2.411   0.943   1.390  3.3138  1.7922  0.5696
 8984TIP3   OH251146   6.839   1.621   2.868  0.5491 -0.0864 -0.6865
 8984TIP3    H151147   6.892   1.552   2.828  0.9397  0.2663 -0.7853
 8984TIP3    H251148   6.898   1.696   2.875  0.3205  0.0346  0.0296
 8985TIP3   OH251149   1.906   0.464   2.768 -0.6641  0.2165  0.1106
 8985TIP3    H151150   1.868   0.440   2.683 -1.3287  1.3666  0.0552
 8985TIP3    H251151   1.983   0.516   2.745  0.0153 -0.7170  0.2264
 8986TIP3   OH251152   1.593   5.189   1.230 -0.2674  0.1589  0.0419
 8986TIP3    H151153   1.593   5.272   1.182 -1.6542  0.7652  1.0243
 8986TIP3    H251154   1.686   5.168   1.240  0.1236  1.6340 -0.1610
 8987TIP3   OH251155   2.260   6.394   1.830 -0.2796 -0.3745 -0.7038
 8987TIP3    H151156   2.259   6.428   1.740  1.4486 -0.8748 -0.9498
 8987TIP3    H251157   2.254   6.472   1.885 -0.8211 -0.0221 -1.2447
 8988TIP3   OH251158   2.541   0.206   3.140 -0.3053 -0.3161  0.1568
 8988TIP3    H151159   2.604   0.237   3.206 -0.9667  0.0213  0.6384
 8988TIP3    H251160   2.547   0.271   3.070 -0.8247  0.2793  0.6425
 8989TIP3   OH251161   2.415   5.423   1.646  0.3939 -0.0245 -0.2325
 8989TIP3    H151162   2.437   5.387   1.731  1.1929  1.2050  0.1038
 8989TIP3    H251163   2.488   5.399   1.589  0.2180 -0.2018 -0.3867
 8990TIP3   OH251164   6.943   5.498   2.908 -0.2458  0.0295  0.1193
 8990TIP3    H151165   6.947   5.404   2.926 -0.6808 -0.0633 -0.2605
 8990TIP3    H251166   6.850   5.519   2.905 -0.1537  0.4508  0.0798
 8991TIP3   OH251167   1.983   1.200   2.707  0.1999 -0.0082 -0.4048
 8991TIP3    H151168   2.057   1.139   2.714 -0.9106 -1.3253  0.6255
 8991TIP3    H251169   2.000   1.267   2.773 -0.7256 -1.7464  1.7224
 8992TIP3   OH251170   6.925   6.170   2.446 -0.4626  0.2640  0.2333
 8992TIP3    H151171   6.914   6.080   2.415 -0.4592  0.8718 -1.6241
 8992TIP3    H251172   7.009   6.169   2.491 -0.1616 -0.5113 -0.3228
 8993TIP3   OH251173   3.510   4.642   2.517  0.3391  0.6566  0.0207
 8993TIP3    H151174   3.482   4.730   2.490  0.7450  0.4645 -1.0664
 8993TIP3    H251175   3.576   4.617   2.453 -0.3377 -0.7716 -0.1535
 8994TIP3   OH251176   3.366   7.476   0.891 -0.2131 -0.0550  0.4955
 8994TIP3    H151177   3.419   7.549   0.858 -2.0540  0.7170 -0.9535
 8994TIP3    H251178   3.424   7.400   0.885  0.0470  0.2551 -3.4948
 8995TIP3   OH251179   5.673   1.370   1.570  0.1256 -0.5704  0.5022
 8995TIP3    H151180   5.741   1.401   1.510 -1.0763 -1.7036 -1.6080
 8995TIP3    H251181   5.601   1.432   1.558 -0.0414 -0.6786  0.9537
 8996TIP3   OH251182   1.696   2.154   2.736  0.0405  0.3589 -0.1749
 8996TIP3    H151183   1.629   2.190   2.793  0.5857  0.3942  0.4609
 8996TIP3    H251184   1.755   2.107   2.795 -0.0140 -0.5869 -0.8485
 8997TIP3   OH251185   2.173   6.979   2.309 -0.0646  0.7062 -0.2830
 8997TIP3    H151186   2.238   7.016   2.249 -0.8122  2.7846  0.0940
 8997TIP3    H251187   2.181   7.032   2.388 -0.3749 -0.7916  0.7927
 8998TIP3   OH251188   1.775   7.204   2.928 -0.2909 -0.3973 -0.2921
 8998TIP3    H151189   1.833   7.185   3.001  0.7642  0.7709 -0.7828
 8998TIP3    H251190   1.702   7.252   2.967  0.5028  0.6441 -0.0354
 8999TIP3   OH251191   2.913   5.123   2.558 -1.1965 -0.2781 -0.5415
 8999TIP3    H151192   2.991   5.180   2.561 -1.7792  0.5247 -0.3492
 8999TIP3    H251193   2.887   5.114   2.650 -3.4114  2.4105 -0.7798
 9000TIP3   OH251194   3.994   2.451   1.050  0.0642  0.0709 -0.6789
 9000TIP3    H151195   3.924   2.447   1.115  0.5496  0.2261 -0.1399
 9000TIP3    H251196   3.960   2.510   0.982 -0.7857 -0.7476 -0.9899
 9001TIP3   OH251197   6.201   2.868   3.397 -0.5708  0.2576 -0.0127
 9001TIP3    H151198   6.154   2.848   3.316  0.6701  0.1765 -0.7506
 9001TIP3    H251199   6.232   2.783   3.429 -0.9328  0.3058  0.4683
 9002TIP3   OH251200   5.261   3.995   2.327 -1.0279 -0.2580  0.2834
 9002TIP3    H151201   5.166   4.004   2.334 -0.7318  2.2976  2.5480
 9002TIP3    H251202   5.290   3.979   2.417  0.6634 -2.0905 -0.5181
 9003TIP3   OH251203   1.296   3.145   2.339 -0.1256  0.2277 -0.5017
 9003TIP3    H151204   1.328   3.162   2.251  0.2745  0.0485 -0.3915
 9003TIP3    H251205   1.374   3.127   2.390 -0.1151  2.5922  0.4257
 9004TIP3   OH251206   5.537   3.172   1.470  0.4003  0.1577 -0.2461
 9004TIP3    H151207   5.566   3.147   1.557  0.7270  0.2939 -0.3123
 9004TIP3    H251208   5.617   3.175   1.418  0.0888 -1.0152 -0.8310
 9005TIP3   OH251209   0.896   2.687   1.745 -0.0828  0.1517  0.0284
 9005TIP3    H151210   0.972   2.745   1.739 -0.0783  0.1883  0.4217
 9005TIP3    H251211   0.833   2.736   1.797 -0.7816  0.5488 -1.1581
 9006TIP3   OH251212   2.196   1.025   2.715 -0.1627 -0.1384 -0.2226
 9006TIP3    H151213   2.214   0.971   2.792  0.2409 -0.1810 -0.3448
 9006TIP3    H251214   2.158   0.965   2.651 -1.9395  0.1956  0.4742
 9007TIP3   OH251215   2.851   6.271   3.143  0.1203 -0.1260 -0.1243
 9007TIP3    H151216   2.855   6.280   3.239  0.9374  1.3890 -0.2708
 9007TIP3    H251217   2.759   6.251   3.125  0.2695 -2.1804  1.0686
 9008TIP3   OH251218   3.802   2.802   1.315  0.2487  0.5277  0.4837
 9008TIP3    H151219   3.773   2.875   1.371  0.2973  0.0256  1.1776
 9008TIP3    H251220   3.851   2.745   1.374  0.8273  0.2881 -0.2150
 9009TIP3   OH251221   0.593   4.253   2.018  0.2810 -0.0745 -0.0191
 9009TIP3    H151222   0.681   4.276   2.050 -0.6755  0.9481  2.0870
 9009TIP3    H251223   0.559   4.193   2.084 -0.6481 -0.3822 -0.7677
 9010TIP3   OH251224   4.974   3.067   2.161 -0.2514 -0.7346  0.2056
 9010TIP3    H151225   4.989   3.160   2.176 -0.4330 -0.7153  0.2645
 9010TIP3    H251226   5.059   3.034   2.132 -0.3867 -0.3860 -0.6158
 9011TIP3   OH251227   0.134   6.305   3.104  0.2386  0.0443 -0.0580
 9011TIP3    H151228   0.090   6.269   3.181 -0.8934  0.1216 -0.6465
 9011TIP3    H251229   0.160   6.393   3.130 -2.1522  0.9405 -0.4283
 9012TIP3   OH251230   5.542   5.612   1.423 -0.5811  0.4185 -0.1542
 9012TIP3    H151231   5.633   5.629   1.449 -0.7478 -0.3512  0.9782
 9012TIP3    H251232   5.490   5.638   1.499 -1.2640  0.2298 -0.5529
 9013TIP3   OH251233   6.746   0.658   2.705  0.0223 -0.1736 -0.3740
 9013TIP3    H151234   6.781   0.590   2.762  1.2158  1.0296  0.3899
 9013TIP3    H251235   6.757   0.739   2.754 -1.3947  0.5963 -1.2400
 9014TIP3   OH251236   1.407   7.609   3.257  0.0066 -0.8295 -0.4674
 9014TIP3    H151237   1.386   7.686   3.309  2.1712 -1.6244  1.7690
 9014TIP3    H251238   1.437   7.644   3.173  2.1362  0.9283  0.9024
 9015TIP3   OH251239   7.643   3.517   1.537 -0.5870 -0.5426 -0.7828
 9015TIP3    H151240   7.694   3.515   1.456  0.1405 -1.5215 -0.3158
 9015TIP3    H251241   7.640   3.609   1.561 -0.0853 -0.3367 -1.4747
 9016TIP3   OH251242   5.095   1.131   2.457  0.1204 -0.6159  0.0599
 9016TIP3    H151243   5.014   1.147   2.505 -0.4581 -1.4069 -0.6153
 9016TIP3    H251244   5.088   1.189   2.380  2.3896  2.9420  2.2494
 9017TIP3   OH251245   5.692   7.362   1.239 -0.0777 -0.4952  0.1351
 9017TIP3    H151246   5.601   7.333   1.234 -0.4548  0.4795  1.0858
 9017TIP3    H251247   5.687   7.457   1.228  0.9809 -0.5689 -1.3015
 9018TIP3   OH251248   5.204   2.743   2.193 -0.8455 -0.1310 -0.1501
 9018TIP3    H151249   5.179   2.726   2.284  1.3552 -0.2009  0.5055
 9018TIP3    H251250   5.160   2.675   2.142 -1.5138 -0.5398  0.9474
 9019TIP3   OH251251   4.677   7.142   3.368  0.2011  0.1498 -0.7102
 9019TIP3    H151252   4.602   7.088   3.393  0.5940 -0.3010 -0.5006
 9019TIP3    H251253   4.709   7.103   3.287 -0.4612  1.0111 -1.3991
 9020TIP3   OH251254   0.143   5.140   1.389 -0.2645 -0.0628  0.3135
 9020TIP3    H151255   0.228   5.159   1.430 -0.1799 -0.2841  0.2380
 9020TIP3    H251256   0.137   5.045   1.389 -0.4739 -0.0490  0.2365
 9021TIP3   OH251257   7.307   0.205   0.953 -0.5605  0.2496  0.6043
 9021TIP3    H151258   7.220   0.166   0.957 -0.1828 -0.5830  0.9863
 9021TIP3    H251259   7.322   0.222   0.860 -1.2189  0.6122  0.5625
 9022TIP3   OH251260   6.091   5.166   1.333 -0.3066 -0.0989  0.0722
 9022TIP3    H151261   6.026   5.138   1.397 -1.2507  0.1732 -0.7266
 9022TIP3    H251262   6.039   5.195   1.258  0.7498  0.0845 -0.6128
 9023TIP3   OH251263   0.431   6.665   1.290  0.4383 -0.2278 -0.5784
 9023TIP3    H151264   0.477   6.678   1.373 -0.2750 -0.9070 -0.0668
 9023TIP3    H251265   0.400   6.575   1.293  0.7966 -0.4138 -1.7969
 9024TIP3   OH251266   6.631   3.467   2.547 -0.3226 -0.0342 -0.7050
 9024TIP3    H151267   6.581   3.493   2.469 -1.0635  2.0351  0.3914
 9024TIP3    H251268   6.564   3.449   2.613  0.3464 -0.1040 -0.0442
 9025TIP3   OH251269   2.623   3.537   1.457 -0.0094 -0.2959 -0.3220
 9025TIP3    H151270   2.541   3.495   1.482 -0.9960  1.8944  0.3475
 9025TIP3    H251271   2.598   3.607   1.397  1.4826 -0.2000 -0.8892
 9026TIP3   OH251272   3.222   5.429   2.047 -0.2582  0.7951  0.3546
 9026TIP3    H151273   3.165   5.422   2.123 -1.5592 -0.2431 -0.6695
 9026TIP3    H251274   3.256   5.341   2.034  0.1833  1.0291 -0.0952
 9027TIP3   OH251275   3.255   1.985   1.904  0.4708  0.1346 -0.4384
 9027TIP3    H151276   3.243   2.036   1.824  0.4501  0.2078 -0.3885
 9027TIP3    H251277   3.289   2.048   1.968 -0.4296  0.2934 -0.1119
 9028TIP3   OH251278   7.395   3.744   2.239 -0.1055 -0.2522  0.0871
 9028TIP3    H151279   7.363   3.743   2.329 -0.3296  0.8412  0.0288
 9028TIP3    H251280   7.324   3.707   2.187 -0.5819  0.5323  0.1763
 9029TIP3   OH251281   2.125   2.175   2.702  0.2420  0.1587 -0.4113
 9029TIP3    H151282   2.136   2.152   2.794  1.1200 -0.1894 -0.6008
 9029TIP3    H251283   2.197   2.132   2.657 -1.0743 -1.0431 -1.4992
 9030TIP3   OH251284   3.524   6.481   1.309 -0.5881  0.2126  0.2532
 9030TIP3    H151285   3.431   6.464   1.296 -0.3037 -1.3535  0.0276
 9030TIP3    H251286   3.532   6.500   1.402 -1.0859 -0.0864  0.3644
 9031TIP3   OH251287   2.901   6.227   2.337  0.3100  0.2157 -0.4011
 9031TIP3    H151288   2.950   6.309   2.323  0.4726 -0.3072 -3.4182
 9031TIP3    H251289   2.809   6.253   2.332  0.3546  0.1439 -2.4084
 9032TIP3   OH251290   0.260   5.771   3.069  0.2455 -0.0432 -0.1868
 9032TIP3    H151291   0.259   5.759   2.974  0.4381 -0.8596 -0.0900
 9032TIP3    H251292   0.227   5.689   3.104  1.0455 -0.0929  0.4818
 9033TIP3   OH251293   4.738   6.516   0.771 -0.1990 -0.0320  0.3840
 9033TIP3    H151294   4.740   6.467   0.689  2.2610  1.4895 -0.5979
 9033TIP3    H251295   4.671   6.583   0.758  1.3247  1.2840 -1.1653
 9034TIP3   OH251296   4.416   6.852   1.431  0.2711  0.2996 -0.0489
 9034TIP3    H151297   4.348   6.912   1.401 -1.0761 -0.5217  1.2271
 9034TIP3    H251298   4.398   6.770   1.384 -0.0999 -0.1377  0.8300
 9035TIP3   OH251299   0.291   0.334   0.879 -0.2153 -0.1501 -0.0020
 9035TIP3    H151300   0.345   0.335   0.800 -0.3969 -0.5746 -0.1340
 9035TIP3    H251301   0.303   0.420   0.918 -0.5714  0.2624 -0.7923
 9036TIP3   OH251302   0.130   6.196   2.252  0.0548 -0.3606 -0.7230
 9036TIP3    H151303   0.040   6.179   2.279  0.1889 -0.2659 -0.2035
 9036TIP3    H251304   0.123   6.229   2.163 -0.7062  2.6381  0.3224
 9037TIP3   OH251305   4.268   0.121   1.808  1.1343  0.0412 -0.3090
 9037TIP3    H151306   4.257   0.077   1.892 -1.0333 -2.3830 -1.7172
 9037TIP3    H251307   4.359   0.104   1.783  0.7077 -2.7886 -0.2302
 9038TIP3   OH251308   4.555   7.364   2.370 -0.1054 -0.3113 -0.5754
 9038TIP3    H151309   4.529   7.284   2.324  0.2059 -2.1243  2.1406
 9038TIP3    H251310   4.645   7.348   2.399 -0.4317  0.4804  1.0410
 9039TIP3   OH251311   2.426   6.227   2.586  0.2949 -0.1925 -0.0632
 9039TIP3    H151312   2.366   6.197   2.654  2.5353 -2.8079  0.9573
 9039TIP3    H251313   2.441   6.320   2.606 -2.2675  0.1646  0.4418
 9040TIP3   OH251314   5.706   6.372   2.016 -0.1483 -0.2270  0.0025
 9040TIP3    H151315   5.710   6.375   2.111  1.3593 -2.0598  0.0765
 9040TIP3    H251316   5.617   6.399   1.994 -0.2295  1.1724  1.8405
 9041TIP3   OH251317   0.374   2.955   1.319  0.8729 -0.3449  0.2709
 9041TIP3    H151318   0.328   2.873   1.338  1.5879 -1.1748 -1.3821
 9041TIP3    H251319   0.454   2.951   1.371  0.1876  0.0704  1.4097
 9042TIP3   OH251320   3.380   0.074   2.074 -0.2374  0.8630  0.4479
 9042TIP3    H151321   3.474   0.094   2.080 -0.3802  1.3712  1.1442
 9042TIP3    H251322   3.349   0.127   2.000  0.0473  0.6130  0.1506
 9043TIP3   OH251323   0.660   2.011   1.481  0.3604  0.5273 -0.5052
 9043TIP3    H151324   0.590   1.947   1.467 -0.4085  0.8927  1.4000
 9043TIP3    H251325   0.641   2.081   1.418  1.4094 -1.1507 -2.8635
 9044TIP3   OH251326   2.997   4.252   1.869 -0.0370 -0.0528 -0.1157
 9044TIP3    H151327   2.927   4.295   1.918  0.3923  0.2802  0.2151
 9044TIP3    H251328   2.981   4.158   1.882 -1.0262 -0.0126 -0.9094
 9045TIP3   OH251329   5.596   4.510   1.637  0.2127  0.1695  0.1027
 9045TIP3    H151330   5.534   4.575   1.672  1.2292  0.6188  1.1178
 9045TIP3    H251331   5.616   4.454   1.712 -0.2782 -1.0471 -0.6505
 9046TIP3   OH251332   2.847   4.182   0.832  0.0279  0.3681 -0.2028
 9046TIP3    H151333   2.774   4.132   0.795  1.0266 -1.4388  0.1317
 9046TIP3    H251334   2.873   4.241   0.762 -1.1664  0.4048 -0.6495
 9047TIP3   OH251335   0.431   0.285   1.144  0.5039 -0.6861 -0.2413
 9047TIP3    H151336   0.360   0.294   1.207  0.8849 -2.8551  0.5729
 9047TIP3    H251337   0.390   0.305   1.059 -0.4561  0.4340  0.4492
 9048TIP3   OH251338   2.953   4.304   1.114  0.2498 -0.3447  0.4984
 9048TIP3    H151339   2.879   4.359   1.086  0.2076 -0.5002  0.3015
 9048TIP3    H251340   2.997   4.355   1.181  1.6619  1.0130 -1.3721
 9049TIP3   OH251341   7.528   1.580   0.808 -0.5365 -0.3657  0.2315
 9049TIP3    H151342   7.459   1.628   0.763  1.0763  2.5624  0.6414
 9049TIP3    H251343   7.532   1.618   0.895  1.8845 -0.0537  0.0601
 9050TIP3   OH251344   5.679   6.330   1.686  0.4659  0.2347  0.0735
 9050TIP3    H151345   5.693   6.363   1.598  0.9662  1.4255  0.5736
 9050TIP3    H251346   5.745   6.261   1.697  0.1796 -0.1521 -0.5785
 9051TIP3   OH251347   4.912   2.018   1.170  0.8687  0.0339 -0.7601
 9051TIP3    H151348   4.882   2.106   1.193 -0.3574 -0.3195 -0.9032
 9051TIP3    H251349   4.980   2.032   1.104  0.1261  0.8594 -1.3824
 9052TIP3   OH251350   1.752   7.333   0.996 -0.1315 -0.1401 -0.5157
 9052TIP3    H151351   1.715   7.376   1.073  0.4462  1.5511 -1.1408
 9052TIP3    H251352   1.677   7.297   0.950 -0.5375 -0.6451  0.5220
 9053TIP3   OH251353   6.901   3.815   2.585 -0.0128  0.0838  0.6533
 9053TIP3    H151354   6.981   3.843   2.630 -0.5250 -0.2027  1.7698
 9053TIP3    H251355   6.833   3.819   2.653 -0.9738  0.4561 -0.3093
 9054TIP3   OH251356   6.768   6.443   1.933  0.6161  0.1760 -0.3044
 9054TIP3    H151357   6.862   6.450   1.949  0.1788  1.5989  2.2036
 9054TIP3    H251358   6.738   6.380   1.999 -0.4950  1.6468  0.6555
 9055TIP3   OH251359   2.457   1.492   1.148  0.0697  0.3620 -0.3062
 9055TIP3    H151360   2.419   1.407   1.171  1.9736 -0.4533  0.1171
 9055TIP3    H251361   2.504   1.519   1.228  0.3523  1.2988 -0.7702
 9056TIP3   OH251362   0.507   7.467   1.063 -0.4644  0.0884  0.1445
 9056TIP3    H151363   0.481   7.528   0.994 -0.6829 -0.3368 -0.1569
 9056TIP3    H251364   0.558   7.400   1.018  1.0704  0.8348  0.7124
 9057TIP3   OH251365   6.577   1.609   2.785  0.3799  0.4755 -0.1309
 9057TIP3    H151366   6.655   1.608   2.840  0.5290  1.3445 -0.3044
 9057TIP3    H251367   6.537   1.695   2.802 -0.6874 -0.0600  0.1556
 9058TIP3   OH251368   7.466   3.323   0.725 -0.8922 -0.5836  0.1124
 9058TIP3    H151369   7.507   3.347   0.642 -1.6305  0.7574  0.1092
 9058TIP3    H251370   7.405   3.254   0.703 -1.8475  0.4826 -0.6730
 9059TIP3   OH251371   2.079   7.298   1.743 -0.3521  0.1517 -1.1573
 9059TIP3    H151372   2.115   7.223   1.697 -0.0946 -0.3860 -0.1012
 9059TIP3    H251373   2.122   7.297   1.828  1.0860  2.5949 -1.7607
 9060TIP3   OH251374   7.525   0.756   2.086  0.0602  0.4754  0.5135
 9060TIP3    H151375   7.613   0.729   2.061 -0.9998 -1.8544 -1.0338
 9060TIP3    H251376   7.518   0.847   2.057  1.2722  0.0232 -1.3077
 9061TIP3   OH251377   0.255   7.301   3.318  0.6560 -0.1534  0.6948
 9061TIP3    H151378   0.323   7.241   3.346 -0.0901 -0.5887  1.6440
 9061TIP3    H251379   0.190   7.246   3.275  0.9998  0.2884 -0.4110
 9062TIP3   OH251380   2.003   5.249   1.453  0.4817  0.5986  0.2263
 9062TIP3    H151381   1.927   5.196   1.479  1.0799 -1.7163 -2.3107
 9062TIP3    H251382   1.966   5.326   1.411 -0.5930 -0.9610 -1.8549
 9063TIP3   OH251383   1.542   0.985   0.968  0.7822  0.0880  0.2416
 9063TIP3    H151384   1.571   0.894   0.973  0.6113  0.0840  1.9966
 9063TIP3    H251385   1.621   1.037   0.980  0.5224  0.0964  2.3983
 9064TIP3   OH251386   7.002   3.512   3.057  0.0286  0.1054 -0.1494
 9064TIP3    H151387   6.996   3.549   2.969  1.0432  2.2124  0.5976
 9064TIP3    H251388   7.094   3.522   3.081 -0.6572  1.9809  2.0791
 9065TIP3   OH251389   4.413   0.610   2.996  0.0392 -0.3453 -0.2159
 9065TIP3    H151390   4.438   0.665   3.069 -0.3407 -0.4931  0.0327
 9065TIP3    H251391   4.320   0.591   3.011  0.2186 -1.2301 -0.1733
 9066TIP3   OH251392   3.047   0.101   3.548  0.3849  0.0751 -0.0715
 9066TIP3    H151393   3.080   0.035   3.609  2.3968  0.0882 -1.0486
 9066TIP3    H251394   3.040   0.054   3.465  0.2064  0.6781 -0.4030
 9067TIP3   OH251395   0.670   6.016   1.171 -0.1433  0.0384  0.0718
 9067TIP3    H151396   0.637   6.105   1.156  1.3466  0.7333  0.6870
 9067TIP3    H251397   0.644   5.967   1.094 -0.4604  1.1770 -0.5644
 9068TIP3   OH251398   6.209   0.031   0.797  0.1378 -0.1043 -0.2983
 9068TIP3    H151399   6.240   0.109   0.751  1.5389  0.1889  1.0853
 9068TIP3    H251400   6.288  -0.020   0.814 -0.5257 -0.8773  0.5671
 9069TIP3   OH251401   4.095   6.558   0.657  0.5182 -0.0616 -0.0762
 9069TIP3    H151402   4.164   6.615   0.623  0.0889  0.9026  0.6265
 9069TIP3    H251403   4.141   6.485   0.698  1.1639  0.9599  1.0634
 9070TIP3   OH251404   3.948   2.099   2.840  0.1798  0.4390 -0.4582
 9070TIP3    H151405   3.896   2.024   2.811 -0.4166  0.8857 -0.5457
 9070TIP3    H251406   3.889   2.174   2.834  1.5670  1.4605 -3.2478
 9071TIP3   OH251407   6.307   5.965   1.463  0.6229 -0.0063 -0.2204
 9071TIP3    H151408   6.307   5.975   1.368  0.0466 -0.4887 -0.2753
 9071TIP3    H251409   6.364   6.035   1.494 -0.4502  1.1631 -0.8134
 9072TIP3   OH251410   1.125   0.091   1.405 -0.1067  0.1395  0.1818
 9072TIP3    H151411   1.081   0.074   1.489  0.2733 -0.0565  0.3412
 9072TIP3    H251412   1.093   0.022   1.347 -1.5657  1.1556 -0.2960
 9073TIP3   OH251413   0.706   0.974   2.574  0.1380 -0.6853  0.5481
 9073TIP3    H151414   0.717   0.951   2.667 -0.0655 -1.8536  0.3005
 9073TIP3    H251415   0.793   1.002   2.546 -0.0911  1.0446  1.4280
 9074TIP3   OH251416   2.649   4.999   1.515 -0.2253  0.5765 -0.3979
 9074TIP3    H151417   2.604   5.062   1.459 -0.5003  0.8054  0.0824
 9074TIP3    H251418   2.624   4.913   1.479 -2.2292  0.6431  0.7441
 9075TIP3   OH251419   4.677   1.202   0.926 -0.3050  0.2571  0.1900
 9075TIP3    H151420   4.724   1.247   0.996  1.0208  0.0955 -0.5622
 9075TIP3    H251421   4.617   1.267   0.891  1.6840  1.5787 -0.9872
 9076TIP3   OH251422   7.379   5.546   0.583 -0.5682 -0.3895  0.2610
 9076TIP3    H151423   7.289   5.567   0.609  0.1918  1.5275  1.5375
 9076TIP3    H251424   7.381   5.568   0.489 -1.0438  1.1341  0.5621
 9077TIP3   OH251425   6.312   1.641   2.344  0.0816  0.2339 -0.0314
 9077TIP3    H151426   6.341   1.686   2.423  0.5598  0.3961 -0.2961
 9077TIP3    H251427   6.358   1.686   2.273  0.8842 -0.9320 -0.2696
 9078TIP3   OH251428   2.879   5.315   1.434 -0.2595 -0.7022 -0.3941
 9078TIP3    H151429   2.961   5.364   1.445  1.3340 -2.5095 -3.0266
 9078TIP3    H251430   2.885   5.245   1.498 -0.6393  0.1921  0.6432
 9079TIP3   OH251431   7.011   2.131   3.250  0.1013 -0.0168 -0.0990
 9079TIP3    H151432   6.974   2.209   3.291 -1.0685 -0.6664  0.1173
 9079TIP3    H251433   6.945   2.103   3.187 -0.5561 -2.0808  1.3682
 9080TIP3   OH251434   0.471   2.242   1.063 -0.1795 -0.5512 -0.0387
 9080TIP3    H151435   0.406   2.171   1.063 -1.0321  0.1880 -1.1228
 9080TIP3    H251436   0.488   2.259   1.155 -0.6335 -1.5674  0.2496
 9081TIP3   OH251437   0.823   6.171   1.693  0.5538 -0.1183 -0.2941
 9081TIP3    H151438   0.806   6.247   1.749  2.2731  0.4070 -0.4374
 9081TIP3    H251439   0.737   6.129   1.683 -0.4580  1.8448 -0.2895
 9082TIP3   OH251440   3.200   3.715   0.931  0.0827 -1.1947  0.4547
 9082TIP3    H151441   3.270   3.669   0.885 -0.7809 -1.9946 -0.0817
 9082TIP3    H251442   3.245   3.759   1.004  1.2854 -0.8771 -0.4348
 9083TIP3   OH251443   4.607   4.936   2.160 -0.0816 -0.3374 -0.3206
 9083TIP3    H151444   4.539   4.887   2.114 -1.2546  2.2265 -1.5116
 9083TIP3    H251445   4.679   4.873   2.171 -0.8127 -1.8703 -3.2698
 9084TIP3   OH251446   6.475   2.808   3.208  0.2362 -0.3630 -0.0548
 9084TIP3    H151447   6.428   2.749   3.150  0.5863 -0.3595 -0.3437
 9084TIP3    H251448   6.406   2.860   3.250 -0.1297 -1.4957  0.7940
 9085TIP3   OH251449   2.214   6.124   2.724 -0.1627 -0.0843 -0.2576
 9085TIP3    H151450   2.143   6.180   2.693  1.3573  0.2596 -3.4378
 9085TIP3    H251451   2.175   6.036   2.727 -1.1582  0.3407 -0.3103
 9086TIP3   OH251452   6.562   3.601   2.783  0.4645 -0.0265 -0.5588
 9086TIP3    H151453   6.624   3.578   2.713  0.0601  2.3108 -1.7778
 9086TIP3    H251454   6.613   3.652   2.845  0.1852  0.2918 -0.5892
 9087TIP3   OH251455   7.675   6.087   0.634 -0.4505  0.8707  0.0411
 9087TIP3    H151456   7.616   6.146   0.587  1.0505  1.0959 -1.6595
 9087TIP3    H251457   7.753   6.140   0.652  0.4212 -0.2258 -0.4080
 9088TIP3   OH251458   1.638   6.316   2.833  0.2133  0.2508  0.3057
 9088TIP3    H151459   1.552   6.275   2.822  0.1401  0.3019  0.6607
 9088TIP3    H251460   1.631   6.362   2.917  0.1633  1.3378 -0.2869
 9089TIP3   OH251461   3.152   0.695   1.158 -0.0999  0.2668  0.5237
 9089TIP3    H151462   3.135   0.712   1.065  0.2481  0.7002  0.5372
 9089TIP3    H251463   3.067   0.667   1.193 -0.0304 -0.8033 -0.1200
 9090TIP3   OH251464   1.407   3.218   2.114 -0.2179 -0.1053  0.1647
 9090TIP3    H151465   1.422   3.195   2.023  1.4592 -0.3501  0.4766
 9090TIP3    H251466   1.358   3.301   2.111 -2.7330 -1.5166 -0.9284
 9091TIP3   OH251467   0.364   3.436   1.979 -0.3181 -0.2016  0.5448
 9091TIP3    H151468   0.308   3.450   1.902  1.4181 -0.8134 -0.9273
 9091TIP3    H251469   0.311   3.382   2.037 -1.4188 -0.4036 -0.5827
 9092TIP3   OH251470   7.645   1.212   1.358  0.7298  0.3098  0.4004
 9092TIP3    H151471   7.706   1.280   1.327 -0.7121  1.0166 -1.0129
 9092TIP3    H251472   7.589   1.257   1.421  0.4832  0.1569  0.2939
 9093TIP3   OH251473   4.043   1.882   1.884 -0.2241 -0.3363 -0.8312
 9093TIP3    H151474   3.987   1.826   1.938 -2.7465  1.5660 -1.2659
 9093TIP3    H251475   4.002   1.968   1.889  1.5619  0.7171 -2.8516
 9094TIP3   OH251476   1.033   5.899   2.826 -0.1845  0.0715 -0.1550
 9094TIP3    H151477   1.013   5.963   2.894 -0.4287  1.4262 -1.4488
 9094TIP3    H251478   0.951   5.889   2.777 -0.4429 -2.0018  0.5821
 9095TIP3   OH251479   2.096   7.444   3.122  0.2451 -0.4645  0.0770
 9095TIP3    H151480   2.008   7.478   3.139 -0.1584 -1.0680 -0.7611
 9095TIP3    H251481   2.085   7.383   3.049  1.0904 -1.7198  0.9566
 9096TIP3   OH251482   3.436   2.611   1.086 -0.3596 -0.0718  0.2401
 9096TIP3    H151483   3.404   2.521   1.080 -1.0732  0.2306 -0.6030
 9096TIP3    H251484   3.422   2.647   0.999  0.9853  0.5137  0.2368
 9097TIP3   OH251485   6.021   4.669   2.744  0.3122  0.1547  0.2668
 9097TIP3    H151486   5.957   4.653   2.813  0.3289  1.7084  0.6733
 9097TIP3    H251487   6.087   4.726   2.784  2.1090 -1.5442 -0.0826
 9098TIP3   OH251488   2.506   5.049   1.794 -0.0002 -0.4779 -0.4139
 9098TIP3    H151489   2.581   5.092   1.834 -0.8489  0.5930  0.0797
 9098TIP3    H251490   2.542   5.000   1.720  1.2034 -0.1759 -0.0443
 9099TIP3   OH251491   1.662   4.068   0.491  0.4617  0.5459 -0.1453
 9099TIP3    H151492   1.594   4.002   0.502  0.5452  0.4940  0.0584
 9099TIP3    H251493   1.619   4.151   0.515  1.1049  0.2406  2.3143
 9100TIP3   OH251494   2.048   4.611   2.082  0.2267 -0.0455  0.4156
 9100TIP3    H151495   1.999   4.688   2.107  0.4360  0.1816  0.1400
 9100TIP3    H251496   2.067   4.624   1.989 -0.1554 -0.6567  0.2426
 9101TIP3   OH251497   4.861   5.193   1.641 -0.5680 -0.1597  0.0650
 9101TIP3    H151498   4.866   5.229   1.553 -0.6221 -0.9992 -0.2966
 9101TIP3    H251499   4.952   5.188   1.671 -0.5284 -0.1433 -0.0540
 9102TIP3   OH251500   7.600   2.786   1.879  0.0590  0.1817 -0.4981
 9102TIP3    H151501   7.595   2.803   1.785  1.8055 -0.2175 -0.7014
 9102TIP3    H251502   7.613   2.872   1.918  2.1547  0.1001 -0.9142
 9103TIP3   OH251503   3.596   1.520   2.973 -0.5673  0.0150  0.2868
 9103TIP3    H151504   3.506   1.492   2.962 -1.2930  2.1644  0.3030
 9103TIP3    H251505   3.599   1.558   3.061  0.2948  0.1514  0.2077
 9104TIP3   OH251506   1.829   3.565   2.631  0.3164 -0.4992 -0.1733
 9104TIP3    H151507   1.793   3.526   2.552 -0.1671  0.4247 -0.4280
 9104TIP3    H251508   1.914   3.601   2.604 -0.1132  0.3392 -0.4284
 9105TIP3   OH251509   3.686   2.744   1.089  0.0983 -0.0012  0.4223
 9105TIP3    H151510   3.716   2.764   1.178 -0.4611  1.0189  0.3997
 9105TIP3    H251511   3.597   2.709   1.102 -1.0167  2.5088  0.1587
 9106TIP3   OH251512   7.635   4.535   3.077  0.8241  0.7492  0.3286
 9106TIP3    H151513   7.561   4.596   3.084  1.4460  1.4159  1.4759
 9106TIP3    H251514   7.677   4.539   3.163  0.7137 -1.5512  0.5390
 9107TIP3   OH251515   4.581   0.599   3.309  0.1994 -0.4918 -0.2040
 9107TIP3    H151516   4.562   0.505   3.306 -0.0593 -0.5686  2.2337
 9107TIP3    H251517   4.495   0.641   3.315  0.2889 -0.0217 -1.6929
 9108TIP3   OH251518   2.759   4.409   2.907  0.6068 -0.3254  0.7720
 9108TIP3    H151519   2.753   4.444   2.996 -1.2329  0.4747  0.3884
 9108TIP3    H251520   2.805   4.478   2.858  0.9807 -0.4472  0.9495
 9109TIP3   OH251521   0.039   3.692   2.367  0.4633 -0.1572 -0.4550
 9109TIP3    H151522  -0.013   3.623   2.327 -0.7447  1.2404 -1.4171
 9109TIP3    H251523   0.073   3.743   2.293 -0.6180  1.6156  0.1842
 9110TIP3   OH251524   1.672   3.853   0.787 -0.6270  0.7983  0.5354
 9110TIP3    H151525   1.636   3.878   0.702 -1.2206  0.1763  0.5970
 9110TIP3    H251526   1.758   3.817   0.767 -1.2205 -0.3840  0.0730
 9111TIP3   OH251527   5.767   6.772   2.210  0.3977  0.0826  0.0408
 9111TIP3    H151528   5.712   6.793   2.134 -0.6089  1.0505  1.0001
 9111TIP3    H251529   5.706   6.744   2.277  1.0657  1.0344  1.0885
 9112TIP3   OH251530   1.540   5.819   0.878  0.2392 -0.0106 -0.5394
 9112TIP3    H151531   1.515   5.911   0.880 -0.4280 -0.1921  0.8222
 9112TIP3    H251532   1.627   5.816   0.916 -0.0242 -0.0054  0.0794
 9113TIP3   OH251533   0.609   3.219   0.877 -0.3399 -0.4697 -0.4256
 9113TIP3    H151534   0.605   3.141   0.932  1.1262 -0.8036 -0.7381
 9113TIP3    H251535   0.703   3.231   0.860 -0.4538  1.7557  0.1772
 9114TIP3   OH251536   1.982   6.730   1.912 -0.1404  0.1991 -0.4065
 9114TIP3    H151537   2.068   6.707   1.945  0.1275  1.2008 -0.3857
 9114TIP3    H251538   1.933   6.758   1.990 -0.6969 -0.9478 -0.3199
 9115TIP3   OH251539   1.135   2.060   0.509 -1.1683 -0.3427 -0.1157
 9115TIP3    H151540   1.186   2.134   0.476 -0.4290  0.0321  1.7127
 9115TIP3    H251541   1.194   1.985   0.504  0.3521  0.3783  3.4687
 9116TIP3   OH251542   7.561   1.995   0.300  0.0567  0.0984 -0.0112
 9116TIP3    H151543   7.510   1.917   0.276 -1.1955  1.1134 -0.8388
 9116TIP3    H251544   7.617   1.966   0.372  0.3803 -1.8194 -0.9499
 9117TIP3   OH251545   2.666   4.768   1.978  0.4629  0.4591 -0.3494
 9117TIP3    H151546   2.578   4.772   2.016 -0.6275  1.9550 -2.7458
 9117TIP3    H251547   2.704   4.853   1.999  0.2963  0.8312 -1.4686
 9118TIP3   OH251548   3.359   5.286   2.741  0.3294  0.5301 -0.3438
 9118TIP3    H151549   3.347   5.224   2.813 -1.9299 -0.0202 -1.1004
 9118TIP3    H251550   3.450   5.316   2.749  1.7030 -3.1981 -0.2239
 9119TIP3   OH251551   6.838   1.640   2.132  0.1481 -0.0291  0.0941
 9119TIP3    H151552   6.838   1.736   2.136  1.2610  0.0166 -0.6934
 9119TIP3    H251553   6.816   1.613   2.221 -1.5635  0.9385  0.0266
 9120TIP3   OH251554   2.363   4.582   1.832 -0.1971  0.0002 -0.6345
 9120TIP3    H151555   2.310   4.565   1.909 -0.7356  0.4824 -0.8913
 9120TIP3    H251556   2.433   4.516   1.836  0.8314  1.1276  1.2082
 9121TIP3   OH251557   2.298   4.806   0.664  0.5302  0.3885 -0.3368
 9121TIP3    H151558   2.276   4.875   0.602 -0.2273  1.1730  0.7776
 9121TIP3    H251559   2.383   4.832   0.700  0.7016  0.2242 -0.6137
 9122TIP3   OH251560   2.301   5.954   3.038 -0.4158  0.2133  0.0022
 9122TIP3    H151561   2.294   5.987   2.948 -2.3941 -1.4655 -0.5396
 9122TIP3    H251562   2.227   5.993   3.084  0.9575  1.5999  1.1718
 9123TIP3   OH251563   4.039   6.676   2.296  0.0086  0.9440  0.2415
 9123TIP3    H151564   4.131   6.695   2.277  0.2887  0.0118  0.6117
 9123TIP3    H251565   4.038   6.647   2.387 -0.8430  2.1265  0.6406
 9124TIP3   OH251566   1.430   0.406   0.885 -0.1239  0.6462  0.0421
 9124TIP3    H151567   1.465   0.473   0.826 -0.4756 -0.7162 -1.8065
 9124TIP3    H251568   1.506   0.354   0.910 -0.3794 -0.7777 -1.9408
 9125TIP3   OH251569   2.871   2.450   2.801  0.1613 -0.0671 -0.5851
 9125TIP3    H151570   2.871   2.440   2.896 -2.2257  1.7791 -0.2911
 9125TIP3    H251571   2.964   2.452   2.777  0.8285 -0.2159  1.7289
 9126TIP3   OH251572   2.801   3.142   0.582 -0.7057 -0.3511 -0.2599
 9126TIP3    H151573   2.848   3.064   0.552  0.1475  0.6901 -1.7542
 9126TIP3    H251574   2.869   3.204   0.606 -1.2872  0.8007 -1.4601
 9127TIP3   OH251575   0.123   5.558   3.524  0.5184  0.0283  0.6513
 9127TIP3    H151576   0.039   5.594   3.554 -0.2163 -1.0220 -0.0398
 9127TIP3    H251577   0.127   5.471   3.566  1.0917 -0.0719  0.3918
 9128TIP3   OH251578   3.145   3.767   0.651 -0.0734 -0.1512  0.0872
 9128TIP3    H151579   3.181   3.696   0.597 -1.7203 -0.3795 -0.7632
 9128TIP3    H251580   3.159   3.738   0.741  1.3191 -0.4760 -0.1977
 9129TIP3   OH251581   7.590   5.477   1.732  0.2970  0.1247  0.2630
 9129TIP3    H151582   7.668   5.435   1.768  0.9270  0.4548 -0.6689
 9129TIP3    H251583   7.613   5.495   1.641 -0.0084  2.3156  0.5736
 9130TIP3   OH251584   2.661   7.122   1.196 -0.3267 -1.0024 -0.1951
 9130TIP3    H151585   2.589   7.183   1.187  0.7844  0.5489  0.8744
 9130TIP3    H251586   2.701   7.119   1.109  0.7578  1.3600  0.1449
 9131TIP3   OH251587   3.521   2.900   1.828 -0.2234  0.0585 -0.0920
 9131TIP3    H151588   3.535   2.808   1.852 -0.2019 -0.0770 -0.6112
 9131TIP3    H251589   3.571   2.949   1.893 -1.0835 -0.2523  0.8238
 9132TIP3   OH251590   6.695   4.626   1.250 -0.8637  0.1347  0.4896
 9132TIP3    H151591   6.677   4.564   1.321  0.3111 -0.7625  0.0303
 9132TIP3    H251592   6.765   4.585   1.200 -0.2811  1.7039 -0.0118
 9133TIP3   OH251593   0.315   5.491   2.009  0.2020  0.0186 -0.0098
 9133TIP3    H151594   0.281   5.408   2.045 -1.0032  0.4201 -0.1621
 9133TIP3    H251595   0.347   5.539   2.085 -2.9691  1.1604  0.7747
 9134TIP3   OH251596   5.814   0.958   2.001 -0.0120  0.5821 -0.5408
 9134TIP3    H151597   5.727   0.962   2.040  0.3835  1.4632  0.3005
 9134TIP3    H251598   5.806   0.893   1.931 -1.2056  0.2770 -0.1477
 9135TIP3   OH251599   6.726   2.086   1.297  0.1232 -0.1988 -0.1215
 9135TIP3    H151600   6.683   2.029   1.234 -0.3681 -0.7090  0.6494
 9135TIP3    H251601   6.812   2.046   1.310  0.5760  0.4133 -1.1194
 9136TIP3   OH251602   1.938   1.640   2.181  0.1759 -0.2870  0.2417
 9136TIP3    H151603   1.866   1.622   2.120  0.9080 -1.7740 -0.2458
 9136TIP3    H251604   1.901   1.702   2.244 -1.1372 -0.0457 -0.7171
 9137TIP3   OH251605   6.521   1.769   1.765 -0.6604 -0.7436  0.0400
 9137TIP3    H151606   6.550   1.680   1.785  0.8722 -0.5666 -1.1941
 9137TIP3    H251607   6.436   1.758   1.723  0.3509 -1.8193 -1.8397
 9138TIP3   OH251608   0.346   2.673   1.003 -0.7917  0.3778  0.3634
 9138TIP3    H151609   0.332   2.666   1.097  3.2007 -2.2443  1.0074
 9138TIP3    H251610   0.343   2.582   0.972  3.3221  0.4887 -0.9108
 9139TIP3   OH251611   4.109   2.718   1.942 -0.2460  0.1926  0.4055
 9139TIP3    H151612   4.110   2.623   1.944  0.8595  0.1886 -0.1517
 9139TIP3    H251613   4.076   2.743   2.028  0.0741 -0.6803  0.7893
 9140TIP3   OH251614   7.154   4.055   1.929 -0.2122 -0.0174 -0.1870
 9140TIP3    H151615   7.134   3.980   1.986  2.0578 -0.8739 -0.4149
 9140TIP3    H251616   7.076   4.065   1.874 -0.8171 -1.8385  0.2732
 9141TIP3   OH251617   2.511   6.974   2.600  0.2074  1.0175  0.8702
 9141TIP3    H151618   2.605   6.981   2.583 -0.2390  3.4807 -1.2695
 9141TIP3    H251619   2.498   7.022   2.682  0.7851  0.9193  1.0193
 9142TIP3   OH251620   2.494   3.772   2.324  0.0386 -0.0239 -0.8846
 9142TIP3    H151621   2.496   3.686   2.367  1.2486  0.0525 -0.7474
 9142TIP3    H251622   2.437   3.825   2.379 -1.9184 -1.1192 -1.7563
 9143TIP3   OH251623   4.302   4.821   1.034 -0.2043 -0.4323  0.2953
 9143TIP3    H151624   4.345   4.738   1.016  0.2792 -0.0980 -0.1452
 9143TIP3    H251625   4.313   4.834   1.128  0.8904 -0.2401  0.1563
 9144TIP3   OH251626   0.847   6.447   0.945 -0.0655 -0.5409  0.2284
 9144TIP3    H151627   0.807   6.526   0.909 -1.6902 -0.0781  2.7191
 9144TIP3    H251628   0.864   6.391   0.870 -2.0568  0.8010 -1.3224
 9145TIP3   OH251629   2.859   2.739   1.414 -0.1384 -0.2884 -0.5814
 9145TIP3    H151630   2.898   2.725   1.327  1.2567  0.0810 -0.0453
 9145TIP3    H251631   2.838   2.832   1.416 -0.5334 -0.3731 -0.6533
 9146TIP3   OH251632   0.401   3.575   2.803 -0.5669 -0.5296  0.0663
 9146TIP3    H151633   0.430   3.620   2.882  0.8447 -0.6299 -0.3660
 9146TIP3    H251634   0.447   3.619   2.732 -1.3876 -0.7988 -0.6516
 9147TIP3   OH251635   5.864   0.445   1.574  0.7021  0.1674 -0.0629
 9147TIP3    H151636   5.839   0.362   1.533  2.3444 -0.2639 -0.2817
 9147TIP3    H251637   5.856   0.509   1.504 -2.2210  0.5679  0.5401
 9148TIP3   OH251638   2.013   7.015   1.598 -0.1824 -0.0453 -0.7715
 9148TIP3    H151639   1.956   7.036   1.672 -0.7217  1.0340 -1.4667
 9148TIP3    H251640   1.991   7.080   1.531  1.3959 -0.0079 -1.3131
 9149TIP3   OH251641   3.021   0.407   2.043  0.1608  0.2645 -0.6945
 9149TIP3    H151642   3.023   0.361   2.127  0.0831  0.6155 -0.4986
 9149TIP3    H251643   2.932   0.391   2.010  0.5302 -0.7841 -1.2286
 9150TIP3   OH251644   4.994   0.164   2.329  0.3406  0.2722  0.2341
 9150TIP3    H151645   4.973   0.180   2.237 -0.4300  0.6113  0.4633
 9150TIP3    H251646   5.088   0.142   2.328  1.5498  4.5362 -0.1544
 9151TIP3   OH251647   7.391   3.320   0.990 -0.1010  0.6687 -0.0748
 9151TIP3    H151648   7.298   3.298   0.982  0.1689 -0.0077 -1.7586
 9151TIP3    H251649   7.412   3.364   0.908  1.0869  0.7688  0.2683
 9152TIP3   OH251650   2.996   3.298   1.205  0.2377  0.0831  0.8660
 9152TIP3    H151651   2.927   3.332   1.263  0.6527  1.8853  0.3650
 9152TIP3    H251652   3.078   3.329   1.245  0.7028 -1.1510  0.8916
 9153TIP3   OH251653   5.749   5.111   2.615  0.6084  0.1772 -0.7210
 9153TIP3    H151654   5.741   5.164   2.694  2.1785 -0.0373 -0.3871
 9153TIP3    H251655   5.815   5.046   2.637 -0.5484 -1.3067 -1.4715
 9154TIP3   OH251656   2.972   6.101   1.855  0.1640 -0.0502 -0.5767
 9154TIP3    H151657   2.923   6.090   1.936 -0.1722 -1.1213 -0.9072
 9154TIP3    H251658   3.034   6.171   1.874 -1.0466  0.8829  0.0592
 9155TIP3   OH251659   1.101   3.426   1.930 -0.1426  0.1515  0.2235
 9155TIP3    H151660   1.091   3.515   1.895  1.2822 -0.1098 -0.9114
 9155TIP3    H251661   1.098   3.370   1.853 -1.2855 -0.8354  0.9587
 9156TIP3   OH251662   1.031   4.355   3.282  0.4111 -0.3192  0.1398
 9156TIP3    H151663   1.011   4.442   3.316  1.9347  0.6544 -1.3124
 9156TIP3    H251664   1.058   4.305   3.359 -1.1116  0.2453  1.0988
 9157TIP3   OH251665   5.324   7.013   2.331  0.1042  0.2088  0.2070
 9157TIP3    H151666   5.378   6.969   2.266  0.8468 -1.2419  1.7276
 9157TIP3    H251667   5.348   7.105   2.325  0.6795 -0.0056 -1.0438
 9158TIP3   OH251668   7.024   1.537   1.460  0.2587  0.0806  0.0154
 9158TIP3    H151669   7.113   1.559   1.433  0.0785 -0.0647 -0.7127
 9158TIP3    H251670   7.001   1.604   1.524  1.4901 -0.8212  1.4861
 9159TIP3   OH251671   0.760   1.492   2.699  0.1391 -0.3716 -0.0110
 9159TIP3    H151672   0.720   1.426   2.755  3.6524 -0.1305  3.1206
 9159TIP3    H251673   0.708   1.571   2.713 -0.7625 -1.0627  0.5983
 9160TIP3   OH251674   3.090   5.502   1.360  0.1216  0.3805  0.4359
 9160TIP3    H151675   3.128   5.546   1.284  1.3731 -2.1415 -0.4933
 9160TIP3    H251676   3.135   5.541   1.435  1.2424  0.6120 -0.3401
 9161TIP3   OH251677   5.397   3.518   3.171  0.0190  0.1414 -0.3872
 9161TIP3    H151678   5.318   3.567   3.147 -0.9688 -1.1782  0.0738
 9161TIP3    H251679   5.403   3.449   3.105  0.7511  0.1707 -0.3614
 9162TIP3   OH251680   1.122   5.625   1.473  0.1565 -0.3703  0.8182
 9162TIP3    H151681   1.142   5.568   1.399 -2.0300  0.8113 -0.8423
 9162TIP3    H251682   1.031   5.605   1.494 -0.3361  1.6934  0.8630
 9163TIP3   OH251683   6.083   4.393   2.864  0.6280  0.1038  0.0060
 9163TIP3    H151684   6.149   4.460   2.846  0.5837  0.1865  0.1445
 9163TIP3    H251685   6.030   4.431   2.934  0.2575  0.1544 -0.3034
 9164TIP3   OH251686   2.804   5.922   1.726 -0.1177  0.0564  0.3089
 9164TIP3    H151687   2.854   5.979   1.785  0.8989  0.0175 -0.4836
 9164TIP3    H251688   2.714   5.928   1.757  0.3339  0.3171  1.6374
 9165TIP3   OH251689   4.144   4.490   2.078 -0.1491 -0.2264  0.2367
 9165TIP3    H151690   4.058   4.479   2.039  0.8274 -0.8609 -1.8585
 9165TIP3    H251691   4.201   4.432   2.029  1.5617  0.4153  1.3581
 9166TIP3   OH251692   0.585   3.839   0.851 -0.1207  0.0800  0.0103
 9166TIP3    H151693   0.672   3.877   0.838 -0.1410  0.9130  2.0106
 9166TIP3    H251694   0.592   3.791   0.934 -0.6541 -2.7512 -1.4622
 9167TIP3   OH251695   5.393   5.541   0.750  0.1681 -0.5531 -0.7625
 9167TIP3    H151696   5.396   5.504   0.839  0.1358  0.1704 -0.4543
 9167TIP3    H251697   5.418   5.468   0.693  1.5511 -0.6762 -0.0517
 9168TIP3   OH251698   7.655   0.183   1.509  0.2363 -0.0376  0.0158
 9168TIP3    H151699   7.735   0.223   1.542  0.3277 -0.7418  0.6915
 9168TIP3    H251700   7.681   0.093   1.488 -0.1700 -0.0126 -0.6183
 9169TIP3   OH251701   1.850   5.892   1.666 -0.1656  0.0838 -0.1271
 9169TIP3    H151702   1.808   5.851   1.591  1.0114 -0.5352 -0.4732
 9169TIP3    H251703   1.803   5.975   1.678 -1.6941 -0.7405 -0.2535
 9170TIP3   OH251704   4.049   0.893   0.960  0.3998 -0.1405  0.0909
 9170TIP3    H151705   4.143   0.912   0.967  0.2150  0.5490  0.8886
 9170TIP3    H251706   4.006   0.970   0.998 -0.4773 -0.6798  0.2275
 9171TIP3   OH251707   2.331   4.855   1.931  0.4440 -0.2528 -0.0119
 9171TIP3    H151708   2.364   4.904   1.855 -0.7906 -1.4540 -1.3895
 9171TIP3    H251709   2.301   4.772   1.894 -1.0933 -0.4873  1.6622
 9172TIP3   OH251710   2.738   0.434   2.025 -0.2361  0.3242 -0.4667
 9172TIP3    H151711   2.692   0.510   2.061 -0.1231  1.5774 -2.8137
 9172TIP3    H251712   2.681   0.359   2.045 -0.4715  0.9998  1.6553
 9173TIP3   OH251713   5.310   5.214   0.894  0.8672 -0.7437  0.3468
 9173TIP3    H151714   5.370   5.151   0.854 -0.4964 -2.6129  1.0951
 9173TIP3    H251715   5.363   5.293   0.907  3.2881 -2.4138  1.3342
 9174TIP3   OH251716   6.346   0.193   2.912  0.0965 -0.3890  0.3106
 9174TIP3    H151717   6.261   0.160   2.883  0.8275  0.7727 -3.7877
 9174TIP3    H251718   6.329   0.230   2.998 -3.4791 -0.5102 -0.1869
 9175TIP3   OH251719   0.925   3.092   2.975 -0.3252  0.1907 -0.0081
 9175TIP3    H151720   0.871   3.132   3.044 -1.2568 -0.1324 -0.5402
 9175TIP3    H251721   1.015   3.109   3.003 -0.6933  0.6004  0.9783
 9176TIP3   OH251722   5.258   3.314   2.009 -0.0986  0.2457  0.0455
 9176TIP3    H151723   5.319   3.387   2.019  1.1845 -0.6805 -0.7472
 9176TIP3    H251724   5.250   3.278   2.097  1.8319 -0.6222 -0.0768
 9177TIP3   OH251725   4.472   1.019   1.850 -0.3525  0.1858  0.2288
 9177TIP3    H151726   4.451   1.093   1.907 -0.6002  1.1093 -1.0073
 9177TIP3    H251727   4.482   1.058   1.763 -1.0132 -1.3179 -0.5609
 9178TIP3   OH251728   0.461   6.976   2.996  0.4867  0.3047 -0.0605
 9178TIP3    H151729   0.381   6.950   2.951  0.2445  0.2135  0.4109
 9178TIP3    H251730   0.510   7.027   2.932 -1.1463  2.6441  0.4356
 9179TIP3   OH251731   2.570   7.479   2.137 -0.3345 -0.4016  0.2760
 9179TIP3    H151732   2.484   7.447   2.107  0.6062 -1.0376 -1.9406
 9179TIP3    H251733   2.609   7.518   2.059  1.1871  0.3664  1.3880
 9180TIP3   OH251734   2.620   1.212   1.932 -0.1158 -0.0774  0.2839
 9180TIP3    H151735   2.650   1.297   1.901 -1.0385  0.0640 -0.2591
 9180TIP3    H251736   2.662   1.148   1.874  1.1907 -0.0590  1.1740
 9181TIP3   OH251737   6.108   6.655   0.961  0.4755 -0.0960  0.3268
 9181TIP3    H151738   6.134   6.747   0.954  1.7430 -0.5051 -0.7011
 9181TIP3    H251739   6.085   6.644   1.053  2.6880  0.6763  1.0556
 9182TIP3   OH251740   7.473   2.136   2.032 -0.1898 -0.3278 -0.1833
 9182TIP3    H151741   7.478   2.176   2.118  0.8835  0.0205 -0.3941
 9182TIP3    H251742   7.531   2.189   1.977 -0.4173 -0.8844 -0.9885
 9183TIP3   OH251743   7.052   2.805   2.547 -0.4738 -0.0661 -0.2275
 9183TIP3    H151744   7.054   2.880   2.487 -0.7965 -0.1188 -0.3067
 9183TIP3    H251745   7.131   2.814   2.600 -0.3642  0.1721 -0.4308
 9184TIP3   OH251746   4.840   6.899   0.602 -0.2417 -0.1537 -0.6722
 9184TIP3    H151747   4.857   6.870   0.513  0.2595 -2.6219  0.1478
 9184TIP3    H251748   4.922   6.939   0.632  0.2896 -1.2378 -0.6470
 9185TIP3   OH251749   1.596   0.758   2.229 -0.6037 -0.2539  0.6070
 9185TIP3    H151750   1.618   0.700   2.301  0.8749 -2.8610 -1.7363
 9185TIP3    H251751   1.642   0.840   2.248 -1.3673 -0.3643  3.2004
 9186TIP3   OH251752   0.061   0.455   1.576  0.2630  0.3557  0.6372
 9186TIP3    H151753   0.141   0.426   1.534 -1.3078 -0.2188 -2.2179
 9186TIP3    H251754   0.025   0.521   1.516 -2.1005 -0.4625  1.0527
 9187TIP3   OH251755   2.032   0.287   2.209  0.3945  0.0134  0.0128
 9187TIP3    H151756   2.031   0.301   2.114  0.6906 -0.8174 -0.1226
 9187TIP3    H251757   1.977   0.357   2.244  0.4314  0.4413 -0.7555
 9188TIP3   OH251758   1.116   5.299   0.897  0.5228 -0.1035 -0.1802
 9188TIP3    H151759   1.193   5.281   0.950  1.3833 -0.0923 -1.3741
 9188TIP3    H251760   1.097   5.215   0.854  0.4958  0.1462 -0.6650
 9189TIP3   OH251761   7.058   7.452   0.925  0.4169  0.2066 -0.0404
 9189TIP3    H151762   6.973   7.441   0.969  0.9953 -0.6546  0.8935
 9189TIP3    H251763   7.039   7.512   0.852 -0.6920  1.1913  1.0078
 9190TIP3   OH251764   0.814   4.554   1.955 -0.2009 -0.1562  0.0808
 9190TIP3    H151765   0.855   4.468   1.958 -0.0117 -0.0708  0.0005
 9190TIP3    H251766   0.764   4.555   1.874  0.9067  0.3005 -0.6191
 9191TIP3   OH251767   7.402   3.493   1.225 -0.1461 -0.0012  0.1207
 9191TIP3    H151768   7.492   3.518   1.248 -0.0780 -1.7336  2.1563
 9191TIP3    H251769   7.411   3.437   1.148  0.3939  0.6832 -0.3219
 9192TIP3   OH251770   6.212   6.385   2.872  0.3885  0.1585  0.3791
 9192TIP3    H151771   6.201   6.309   2.929 -2.1751  1.7134  2.1431
 9192TIP3    H251772   6.154   6.369   2.798 -0.6414  0.6384  1.0663
 9193TIP3   OH251773   5.151   6.124   2.087 -0.0618  0.5452 -0.4403
 9193TIP3    H151774   5.185   6.092   2.003 -1.6156  1.1750 -1.3492
 9193TIP3    H251775   5.064   6.158   2.067  0.2927  2.5431  1.0645
 9194TIP3   OH251776   5.912   3.583   0.555 -0.1820 -0.1604  0.5717
 9194TIP3    H151777   5.908   3.491   0.528  1.5259 -0.1865  0.3175
 9194TIP3    H251778   5.840   3.593   0.617  0.7566 -2.1865  2.1020
 9195TIP3   OH251779   3.232   6.405   1.118  0.3348  0.5618 -0.6715
 9195TIP3    H151780   3.242   6.334   1.181 -1.3925  0.0452 -0.9245
 9195TIP3    H251781   3.143   6.396   1.085  1.8789 -0.8740 -5.2040
 9196TIP3   OH251782   3.591   7.537   2.188 -0.5339 -0.1379 -0.0654
 9196TIP3    H151783   3.582   7.583   2.271 -0.8249  0.6946 -0.5454
 9196TIP3    H251784   3.528   7.579   2.130  0.5020  0.1099 -1.0580
 9197TIP3   OH251785   0.595   0.459   2.627 -0.4910  0.2047 -0.2106
 9197TIP3    H151786   0.625   0.539   2.669  2.5233 -0.8211 -0.1805
 9197TIP3    H251787   0.636   0.389   2.677 -2.6031 -1.3982 -0.5659
 9198TIP3   OH251788   3.718   1.831   2.478 -0.1266  0.5333  0.8826
 9198TIP3    H151789   3.623   1.826   2.476 -0.1618  0.9764 -1.4777
 9198TIP3    H251790   3.740   1.905   2.421  1.6671 -1.1304 -0.7789
 9199TIP3   OH251791   3.374   1.941   0.611  0.0332 -0.5271 -0.2155
 9199TIP3    H151792   3.345   1.957   0.700  1.3483 -1.1936  0.3619
 9199TIP3    H251793   3.353   1.849   0.594 -0.5677 -0.2996 -0.7400
 9200TIP3   OH251794   7.129   1.988   2.333 -0.6825 -0.4949 -0.2940
 9200TIP3    H151795   7.121   1.989   2.428  0.4912 -2.4928 -0.1065
 9200TIP3    H251796   7.220   1.963   2.316 -1.4217 -2.5031 -1.8477
 9201TIP3   OH251797   1.369   1.525   1.236 -0.4615  0.5606  0.5518
 9201TIP3    H151798   1.391   1.442   1.278 -1.4667  0.1018  0.1937
 9201TIP3    H251799   1.328   1.501   1.153 -2.7490  1.3146  1.3809
 9202TIP3   OH251800   7.278   6.668   1.216 -0.7788  0.3571 -0.1152
 9202TIP3    H151801   7.208   6.614   1.180  0.1121 -1.8283  1.2619
 9202TIP3    H251802   7.237   6.717   1.286 -0.6190 -2.6112  2.2342
 9203TIP3   OH251803   3.929   0.336   2.696 -0.4704  0.0972 -0.1458
 9203TIP3    H151804   3.919   0.303   2.785  0.1179 -1.0016 -0.4722
 9203TIP3    H251805   3.850   0.308   2.650 -0.2715 -0.2910 -0.2524
 9204TIP3   OH251806   6.416   1.782   1.107 -0.3162  0.0475 -0.2684
 9204TIP3    H151807   6.375   1.741   1.031 -0.1670  0.6821 -0.7021
 9204TIP3    H251808   6.356   1.853   1.131 -1.7075 -1.6634  1.8162
 9205TIP3   OH251809   7.515   6.958   0.695 -0.0188  0.6496  0.3231
 9205TIP3    H151810   7.553   6.897   0.631 -0.6293 -0.6487  1.1435
 9205TIP3    H251811   7.564   7.039   0.683  0.2767  0.2562 -1.3668
 9206TIP3   OH251812   2.505   4.083   2.772  0.1890  0.3144  1.4192
 9206TIP3    H151813   2.559   4.048   2.701 -0.9739 -0.5483  0.9312
 9206TIP3    H251814   2.446   4.011   2.796 -0.1897  0.9537  2.5069
 9207TIP3   OH251815   5.708   2.657   1.767 -0.0237  0.7274  0.1504
 9207TIP3    H151816   5.661   2.582   1.806  2.0489 -0.7371 -0.0095
 9207TIP3    H251817   5.747   2.701   1.842  3.5417 -1.7987  0.0123
 9208TIP3   OH251818   7.202   6.520   3.351  0.2662 -0.6468 -0.2920
 9208TIP3    H151819   7.115   6.558   3.337  0.9722  1.1866  0.1151
 9208TIP3    H251820   7.185   6.426   3.364 -1.7163 -0.2362  0.4215
 9209TIP3   OH251821   4.331   6.557   1.969 -0.4406 -0.4264 -0.1028
 9209TIP3    H151822   4.399   6.624   1.964 -0.5074 -0.4154 -1.0805
 9209TIP3    H251823   4.249   6.606   1.970 -0.4866 -0.4840 -0.7265
 9210TIP3   OH251824   4.537   0.731   2.157 -0.2899 -0.5111  0.2481
 9210TIP3    H151825   4.587   0.709   2.079 -0.5684  0.1294 -0.1228
 9210TIP3    H251826   4.536   0.827   2.158  1.4006 -0.4550  2.1153
 9211TIP3   OH251827   3.007   5.421   1.874  0.0190 -0.4542  0.1227
 9211TIP3    H151828   2.982   5.511   1.856  2.1697 -0.0611 -1.2415
 9211TIP3    H251829   3.088   5.427   1.925 -0.3801 -1.6281  0.9540
 9212TIP3   OH251830   4.827   4.952   2.949  0.0541  1.0102 -0.0707
 9212TIP3    H151831   4.873   4.873   2.978  0.9268  1.3094 -0.5748
 9212TIP3    H251832   4.837   5.014   3.022 -0.6730  0.6498  0.3440
 9213TIP3   OH251833   6.758   2.353   3.516  0.3035  0.4107 -0.0094
 9213TIP3    H151834   6.698   2.426   3.531 -0.1869  0.0940 -0.4111
 9213TIP3    H251835   6.748   2.332   3.423 -1.2269 -1.6153  0.5546
 9214TIP3   OH251836   0.702   6.684   0.825  0.0421 -0.6736  0.3259
 9214TIP3    H151837   0.685   6.637   0.744  0.5711  0.0786 -0.2321
 9214TIP3    H251838   0.617   6.721   0.850 -0.0883 -0.7750  0.0344
 9215TIP3   OH251839   3.536   7.670   1.170 -0.1694 -0.0481  0.3240
 9215TIP3    H151840   3.500   7.653   1.257  0.7274  0.6962  0.8664
 9215TIP3    H251841   3.516   7.763   1.153 -0.2664 -0.1662 -0.2288
 9216TIP3   OH251842   3.284   3.383   1.272 -0.2696  0.0837 -0.4969
 9216TIP3    H151843   3.234   3.395   1.353  1.0843  2.0428  0.1176
 9216TIP3    H251844   3.368   3.345   1.301 -0.3238 -0.5983 -1.1851
 9217TIP3   OH251845   0.754   0.234   1.661  0.3045 -0.3341  0.4750
 9217TIP3    H151846   0.748   0.325   1.689  0.3016  0.2818 -1.4063
 9217TIP3    H251847   0.683   0.190   1.709 -1.3844  1.1817 -0.4989
 9218TIP3   OH251848   2.752   1.915   2.086  0.0735 -0.4843 -0.0105
 9218TIP3    H151849   2.842   1.934   2.060  0.0422  1.1501  0.9304
 9218TIP3    H251850   2.724   1.992   2.136 -1.5527 -1.3301  0.4805
 9219TIP3   OH251851   7.182   5.546   2.515 -1.0022 -0.3034 -0.0207
 9219TIP3    H151852   7.187   5.461   2.471 -0.0072 -0.0010 -0.5024
 9219TIP3    H251853   7.179   5.524   2.608 -0.6547 -0.8698 -0.1386
 9220TIP3   OH251854   0.022   4.323   1.641 -0.3644  0.4550 -0.1244
 9220TIP3    H151855  -0.046   4.300   1.704 -0.8814  0.6148 -0.6184
 9220TIP3    H251856   0.053   4.238   1.608 -0.4772  0.3896 -0.0630
 9221TIP3   OH251857   0.671   0.950   0.437 -0.1785 -0.4067  0.2608
 9221TIP3    H151858   0.628   1.005   0.371 -1.3647 -1.3645  0.2000
 9221TIP3    H251859   0.764   0.969   0.427 -0.5649  1.9027  0.5429
 9222TIP3   OH251860   1.377   1.951   2.610  0.2790  0.2659 -0.1180
 9222TIP3    H151861   1.436   1.884   2.645  1.6941  1.3675 -0.2554
 9222TIP3    H251862   1.366   2.014   2.682 -0.5537  0.1923 -0.1730
 9223TIP3   OH251863   3.523   5.669   0.756  0.1066  0.2256  0.4356
 9223TIP3    H151864   3.591   5.678   0.823 -0.3443 -1.2268  1.1281
 9223TIP3    H251865   3.521   5.755   0.713  2.5161  0.2455  0.2346
 9224TIP3   OH251866   5.027   6.104   2.429  0.2611 -0.3034 -0.5025
 9224TIP3    H151867   4.933   6.117   2.433 -0.3578 -2.2615 -3.9940
 9224TIP3    H251868   5.043   6.024   2.480 -0.2245 -0.7285 -1.0008
 9225TIP3   OH251869   7.550   5.091   1.036 -0.2115 -0.1286  0.2102
 9225TIP3    H151870   7.595   5.111   0.954 -1.1347 -0.6348 -0.4347
 9225TIP3    H251871   7.464   5.133   1.028 -0.3124 -0.1863  0.9148
 9226TIP3   OH251872   2.332   2.923   1.715  0.3739  0.0019 -0.8468
 9226TIP3    H151873   2.415   2.913   1.667  1.2978  2.2814  0.1565
 9226TIP3    H251874   2.355   2.976   1.791 -1.6265 -1.1353  0.6407
 9227TIP3   OH251875   0.524   0.340   1.487  0.5317  0.0626  0.0196
 9227TIP3    H151876   0.587   0.393   1.438  2.2452 -0.6293  1.3784
 9227TIP3    H251877   0.536   0.366   1.578 -0.4658 -0.7890  0.4101
 9228TIP3   OH251878   3.776   3.607   2.080  0.0889 -0.4194 -0.2561
 9228TIP3    H151879   3.687   3.598   2.116  1.0257 -0.7360  2.2152
 9228TIP3    H251880   3.812   3.683   2.124  1.3214 -0.7896 -0.5881
 9229TIP3   OH251881   5.147   2.177   2.482 -0.0795  0.2322  0.4204
 9229TIP3    H151882   5.210   2.115   2.519 -0.2174 -0.0412  0.2003
 9229TIP3    H251883   5.153   2.163   2.387 -0.9702 -0.2779  0.4362
 9230TIP3   OH251884   3.825   3.313   2.681  0.0417 -0.3778  0.3404
 9230TIP3    H151885   3.883   3.389   2.671  1.2481 -1.2741  0.2889
 9230TIP3    H251886   3.746   3.348   2.723  0.3424  0.9952 -0.1866
 9231TIP3   OH251887   5.216   1.619   1.788 -0.5283 -0.2255  0.6849
 9231TIP3    H151888   5.253   1.531   1.775 -0.9055 -0.1838 -0.8711
 9231TIP3    H251889   5.292   1.677   1.785 -0.4191 -0.3834  0.3102
 9232TIP3   OH251890   7.474   4.548   2.756  0.1642 -0.4895  0.6106
 9232TIP3    H151891   7.478   4.590   2.842 -0.2061 -0.0973  0.4400
 9232TIP3    H251892   7.406   4.597   2.709 -0.8218 -1.7351  0.6711
 9233TIP3   OH251893   6.320   6.780   2.195  0.2602 -0.0038  0.0236
 9233TIP3    H151894   6.361   6.814   2.275 -0.8571  1.0161  0.1825
 9233TIP3    H251895   6.377   6.809   2.124  1.0728 -0.6201  0.4074
 9234TIP3   OH251896   0.255   4.655   1.664  0.0274 -0.0943  0.0338
 9234TIP3    H151897   0.189   4.599   1.624  0.6089 -0.7181 -0.0622
 9234TIP3    H251898   0.245   4.640   1.758  1.1335 -1.4966 -0.0321
 9235TIP3   OH251899   7.185   2.306   0.958 -0.0793 -0.2416 -0.7951
 9235TIP3    H151900   7.255   2.313   1.023 -1.4110  1.8528  0.5546
 9235TIP3    H251901   7.226   2.332   0.875  0.6633  1.6240  0.0915
 9236TIP3   OH251902   5.349   1.557   0.667 -0.0364  0.1852 -0.4751
 9236TIP3    H151903   5.319   1.536   0.755  0.2443 -0.5293 -0.5449
 9236TIP3    H251904   5.410   1.486   0.645 -0.8220 -0.1611 -1.6158
 9237TIP3   OH251905   5.501   3.926   1.134 -0.0045  0.3776 -0.4218
 9237TIP3    H151906   5.425   3.911   1.078 -0.0203 -0.3639 -0.2199
 9237TIP3    H251907   5.470   3.984   1.203 -1.0155 -1.5968  0.8883
 9238TIP3   OH251908   5.700   0.219   0.954 -0.2674  0.6447 -0.3282
 9238TIP3    H151909   5.606   0.236   0.958 -0.2152  1.1262 -0.8933
 9238TIP3    H251910   5.708   0.125   0.968 -0.9918  0.2847 -2.0489
 9239TIP3   OH251911   2.881   3.218   1.994 -0.1473 -0.5344 -0.1146
 9239TIP3    H151912   2.959   3.162   1.988  0.0367 -0.6134  2.0704
 9239TIP3    H251913   2.813   3.169   1.949  0.5469 -1.4872 -0.1676
 9240TIP3   OH251914   3.737   1.231   0.685  0.6843  0.3416  0.1116
 9240TIP3    H151915   3.784   1.314   0.694  0.7154  0.3311  0.0439
 9240TIP3    H251916   3.745   1.208   0.593 -0.7170  1.0998 -0.2264
 9241TIP3   OH251917   2.294   7.467   2.346 -0.1904  0.3295 -0.6076
 9241TIP3    H151918   2.204   7.456   2.376  0.2614 -0.2198  0.6182
 9241TIP3    H251919   2.289   7.456   2.251 -1.1432 -1.6900 -0.3819
 9242TIP3   OH251920   5.197   7.672   2.407  0.1327  0.1706 -0.1804
 9242TIP3    H151921   5.203   7.633   2.494  0.1129  0.2636 -0.1372
 9242TIP3    H251922   5.272   7.636   2.360 -1.8441 -2.8699 -1.3348
 9243TIP3   OH251923   3.976   0.151   2.243  0.0257  0.1601 -0.2683
 9243TIP3    H151924   3.937   0.110   2.321  0.0999 -0.7170 -0.6784
 9243TIP3    H251925   3.955   0.091   2.172 -1.2043  1.6101 -1.1954
 9244TIP3   OH251926   2.547   7.319   1.610 -0.9106 -0.4161  0.3414
 9244TIP3    H151927   2.621   7.276   1.568 -0.2524  0.0729  0.9830
 9244TIP3    H251928   2.481   7.250   1.620  0.1507 -1.3101  1.4256
 9245TIP3   OH251929   5.308   0.221   2.505  0.0555 -0.4398 -0.6524
 9245TIP3    H151930   5.274   0.308   2.483  0.3598 -0.5754 -1.7518
 9245TIP3    H251931   5.240   0.160   2.475 -1.5312 -0.5509  2.7593
 9246TIP3   OH251932   2.250   4.315   2.639 -0.0854  0.4275 -0.3300
 9246TIP3    H151933   2.216   4.334   2.726  0.8196  1.6277 -0.2156
 9246TIP3    H251934   2.345   4.321   2.649  0.0341  0.3074 -1.3356
 9247TIP3   OH251935   5.199   3.177   0.914  0.1480  0.1277  0.1334
 9247TIP3    H151936   5.236   3.089   0.906 -0.2138 -0.1540  1.3831
 9247TIP3    H251937   5.144   3.187   0.837 -0.5876 -1.1319  0.4737
 9248TIP3   OH251938   3.858   7.096   3.084 -0.3250  0.6964 -0.1488
 9248TIP3    H151939   3.820   7.009   3.069 -0.3550  0.8310 -0.8660
 9248TIP3    H251940   3.801   7.156   3.037 -0.1795  1.0845  0.1677
 9249TIP3   OH251941   4.246   2.579   1.081 -0.2427 -0.0418  0.1708
 9249TIP3    H151942   4.308   2.508   1.096  0.7811  0.9702  0.9462
 9249TIP3    H251943   4.162   2.544   1.109 -0.0809 -1.5224 -1.1236
 9250TIP3   OH251944   6.460   6.217   1.476 -0.0476  1.2291  0.2575
 9250TIP3    H151945   6.441   6.287   1.539  1.3934  2.5301 -0.6987
 9250TIP3    H251946   6.552   6.195   1.491  0.0757  0.9539 -0.8080
 9251TIP3   OH251947   1.290   0.759   1.316  0.2743  0.3287 -0.4528
 9251TIP3    H151948   1.362   0.699   1.296 -0.9846 -1.3508 -0.1780
 9251TIP3    H251949   1.234   0.711   1.376 -2.2731  0.6505 -2.3861
 9252TIP3   OH251950   0.991   5.889   1.806 -0.2616  0.6989 -0.2249
 9252TIP3    H151951   0.930   5.832   1.851 -0.2629  1.2846  0.5262
 9252TIP3    H251952   1.020   5.951   1.872  2.7116 -0.7621  0.0327
 9253TIP3   OH251953   7.444   6.374   1.156 -0.0154  0.2299  0.3741
 9253TIP3    H151954   7.355   6.343   1.169 -0.5969  1.6645 -0.0479
 9253TIP3    H251955   7.485   6.366   1.243 -0.3304 -1.0465  0.4205
 9254TIP3   OH251956   2.870   1.833   1.762  0.3364  0.4552  0.3828
 9254TIP3    H151957   2.776   1.850   1.769  0.2307 -0.5207  1.8428
 9254TIP3    H251958   2.908   1.879   1.837  0.9141  0.1958  0.2543
 9255TIP3   OH251959   1.539   4.808   2.240 -0.2160  0.0816  0.0973
 9255TIP3    H151960   1.566   4.851   2.159 -1.6160 -0.6358 -0.7915
 9255TIP3    H251961   1.526   4.879   2.302  2.8890  0.5087  0.3710
 9256TIP3   OH251962   7.450   5.729   2.114  0.1171  0.2049  0.0324
 9256TIP3    H151963   7.500   5.776   2.048 -1.9549  0.6010 -1.3602
 9256TIP3    H251964   7.416   5.652   2.067 -2.2776  1.0526  0.2555
 9257TIP3   OH251965   6.397   3.992   1.164 -0.1434 -0.2971 -0.1672
 9257TIP3    H151966   6.306   3.976   1.189  0.4046  0.0536  2.2427
 9257TIP3    H251967   6.448   3.944   1.229  1.4202 -0.3078 -1.3547
 9258TIP3   OH251968   4.076   5.671   2.770  0.1549  0.0629  0.4470
 9258TIP3    H151969   4.160   5.715   2.759 -0.6820  1.3647 -1.0916
 9258TIP3    H251970   4.068   5.660   2.865  1.0234  2.0515  0.8165
 9259TIP3   OH251971   3.220   0.345   1.854 -0.0158 -0.2374 -0.1138
 9259TIP3    H151972   3.205   0.422   1.799 -1.4988  1.0150  1.8864
 9259TIP3    H251973   3.161   0.358   1.929  1.3537 -2.2105  1.3903
 9260TIP3   OH251974   4.408   3.369   2.264  0.1612  0.6478 -0.0797
 9260TIP3    H151975   4.342   3.396   2.199 -1.9930 -0.8903  1.3266
 9260TIP3    H251976   4.412   3.274   2.254  0.8505  0.5490  1.0652
 9261TIP3   OH251977   1.498   1.627   0.430  0.1808 -0.8098  0.2924
 9261TIP3    H151978   1.549   1.545   0.429 -1.0090 -1.6003 -1.6685
 9261TIP3    H251979   1.564   1.696   0.429  1.2215 -1.7721  0.2178
 9262TIP3   OH251980   0.529   7.307   2.693 -0.3443  0.7062  0.7758
 9262TIP3    H151981   0.541   7.314   2.788 -0.8862 -0.5531  0.9539
 9262TIP3    H251982   0.439   7.276   2.682  0.0378 -0.1563 -0.1024
 9263TIP3   OH251983   7.636   1.724   1.559  0.0749  0.3118  0.1757
 9263TIP3    H151984   7.573   1.794   1.574 -1.2290 -0.8947  0.5466
 9263TIP3    H251985   7.616   1.659   1.627  1.2626 -0.4141 -0.1419
 9264TIP3   OH251986   0.049   1.686   1.920 -0.2014  0.3984 -0.4019
 9264TIP3    H151987  -0.028   1.692   1.976  0.5128 -0.5676  0.7495
 9264TIP3    H251988   0.028   1.617   1.857  0.7074 -1.9627  1.6993
 9265TIP3   OH251989   0.086   2.985   2.061 -0.1105  0.1912 -0.5231
 9265TIP3    H151990   0.117   3.074   2.076  0.0061 -0.0958  1.1546
 9265TIP3    H251991   0.156   2.943   2.010 -0.3793  1.1712 -1.7278
 9266TIP3   OH251992   6.047   1.719   2.560  0.4111  0.1171 -0.3876
 9266TIP3    H151993   6.141   1.726   2.578  0.4362  1.5810 -0.9092
 9266TIP3    H251994   6.011   1.801   2.595 -0.4556  0.1884 -1.4062
 9267TIP3   OH251995   6.284   4.113   1.383 -0.4854 -0.2802  0.2619
 9267TIP3    H151996   6.360   4.165   1.355 -1.0107  0.2267 -0.2641
 9267TIP3    H251997   6.311   4.074   1.466  0.4318 -0.2886 -0.0298
 9268TIP3   OH251998   1.950   2.620   3.271  0.0347 -0.2699  0.4932
 9268TIP3    H151999   1.875   2.578   3.229  1.5112 -0.5155 -2.0763
 9268TIP3    H252000   1.913   2.693   3.320 -2.0159 -1.3484  0.6735
 9269TIP3   OH252001   7.612   5.780   3.680  0.4314 -0.0703 -0.3760
 9269TIP3    H152002   7.559   5.851   3.645  0.8953 -0.9892 -3.2719
 9269TIP3    H252003   7.562   5.701   3.659  1.4899 -0.7723 -0.3237
 9270TIP3   OH252004   2.195   0.946   1.929  0.3516  0.3847 -0.2332
 9270TIP3    H152005   2.232   1.035   1.930 -0.2474  0.6564 -0.9208
 9270TIP3    H252006   2.253   0.895   1.986  0.9262  1.1272 -0.1335
 9271TIP3   OH252007   3.330   5.148   3.236 -0.1712 -0.2494  0.0966
 9271TIP3    H152008   3.422   5.152   3.261 -0.6077  3.0037  1.7070
 9271TIP3    H252009   3.318   5.222   3.176 -1.6032 -1.0750 -0.6903
 9272TIP3   OH252010   6.638   7.037   1.494 -0.2277  0.6218 -0.3870
 9272TIP3    H152011   6.704   7.003   1.555 -0.4076 -0.9298 -0.9967
 9272TIP3    H252012   6.652   7.132   1.493 -0.2110  0.7060  2.0440
 9273TIP3   OH252013   6.492   2.727   0.907  0.1977  0.3545  0.5196
 9273TIP3    H152014   6.482   2.820   0.928  1.5240  0.7641 -0.4674
 9273TIP3    H252015   6.538   2.690   0.982 -2.5067 -0.1157  2.0678
 9274TIP3   OH252016   6.081   5.584   1.463 -0.7266  0.0801  0.1383
 9274TIP3    H152017   6.149   5.642   1.498  0.3370 -1.7254  1.2223
 9274TIP3    H252018   6.113   5.559   1.376 -0.1897 -0.4221  0.4719
 9275TIP3   OH252019   1.058   0.258   1.912 -0.2096 -0.5345 -0.4868
 9275TIP3    H152020   1.056   0.186   1.975 -2.0864  0.8811  1.1884
 9275TIP3    H252021   1.123   0.319   1.948 -2.8291  1.3181  1.4674
 9276TIP3   OH252022   3.317   0.635   1.970  0.0289  0.0473 -0.0059
 9276TIP3    H152023   3.251   0.603   1.909  0.8064 -1.7603  0.0249
 9276TIP3    H252024   3.321   0.729   1.954 -0.6432 -0.2007 -1.9074
 9277TIP3   OH252025   5.696   6.382   1.103 -0.4396 -0.1431  0.0501
 9277TIP3    H152026   5.764   6.401   1.038  1.0148  0.8957  1.7834
 9277TIP3    H252027   5.698   6.287   1.112  1.3320 -0.1088  0.5574
 9278TIP3   OH252028   3.388   0.488   2.196  0.3856  0.0024  0.0196
 9278TIP3    H152029   3.436   0.407   2.182 -1.5301 -1.1523 -0.1907
 9278TIP3    H252030   3.364   0.518   2.108  0.0838  0.1613  0.1536
 9279TIP3   OH252031   5.745   2.439   0.855 -0.0934  0.2473  0.4067
 9279TIP3    H152032   5.772   2.525   0.823  0.7653 -0.4964 -1.0069
 9279TIP3    H252033   5.677   2.457   0.919  0.4803  2.0020  0.5780
 9280TIP3   OH252034   1.458   2.506   0.867 -0.3468  0.4999 -0.0496
 9280TIP3    H152035   1.467   2.602   0.867  0.6303  0.4157 -0.1071
 9280TIP3    H252036   1.540   2.475   0.906  0.1020 -0.3831 -1.6182
 9281TIP3   OH252037   5.752   5.717   2.796 -0.7542  0.4476  0.1868
 9281TIP3    H152038   5.765   5.650   2.729 -1.7607  2.1408 -1.8135
 9281TIP3    H252039   5.828   5.775   2.788 -0.9789  0.7716  0.3432
 9282TIP3   OH252040   4.004   1.078   3.095 -0.1229 -0.4086  0.1149
 9282TIP3    H152041   4.003   0.984   3.080 -0.9705 -0.3227 -0.4535
 9282TIP3    H252042   4.065   1.112   3.029  1.5759 -0.7144  1.4754
 9283TIP3   OH252043   7.484   1.949   1.599  0.1858 -0.2758 -0.2041
 9283TIP3    H152044   7.400   1.975   1.638 -0.3962 -0.1175 -1.5166
 9283TIP3    H252045   7.545   2.018   1.625 -0.8246  1.3028 -1.7667
 9284TIP3   OH252046   3.553   0.044   2.386 -0.0475 -0.6623 -0.0819
 9284TIP3    H152047   3.495   0.055   2.462 -1.7826 -1.1789 -1.2630
 9284TIP3    H252048   3.532   0.119   2.330  0.9606 -0.4798 -0.2250
 9285TIP3   OH252049   6.485   2.159   2.456  0.1746  0.1412 -0.4397
 9285TIP3    H152050   6.471   2.117   2.541 -2.5551  0.0387 -0.8547
 9285TIP3    H252051   6.461   2.250   2.470  0.2274  0.2360 -0.9696
 9286TIP3   OH252052   0.853   5.268   1.991  0.8110  0.2216 -0.1225
 9286TIP3    H152053   0.777   5.220   1.958 -0.0409  1.5126 -0.1023
 9286TIP3    H252054   0.902   5.203   2.042 -0.3858 -0.5818  0.0424
 9287TIP3   OH252055   4.134   0.977   2.262  0.0454 -0.3845  0.4020
 9287TIP3    H152056   4.053   0.987   2.311 -0.1637 -0.1522  0.0090
 9287TIP3    H252057   4.162   0.887   2.281  1.9030  0.7382  3.8991
 9288TIP3   OH252058   6.909   1.895   0.837 -0.1590  0.1942 -0.2725
 9288TIP3    H152059   6.968   1.958   0.796  0.3316 -0.5333 -0.7059
 9288TIP3    H252060   6.839   1.949   0.875  0.3035  0.9992 -0.5397
 9289TIP3   OH252061   2.554   6.827   3.016 -0.3841  0.0866 -0.4980
 9289TIP3    H152062   2.519   6.915   3.026 -1.8778 -0.6509  1.5602
 9289TIP3    H252063   2.510   6.776   3.084  2.0589 -1.7833 -0.1830
 9290TIP3   OH252064   1.287   4.642   1.099 -0.1317 -0.6215  0.0551
 9290TIP3    H152065   1.231   4.568   1.079  1.1870 -2.1731  1.6987
 9290TIP3    H252066   1.285   4.649   1.194  2.5369 -0.8674  0.2025
 9291TIP3   OH252067   1.154   6.787   1.311  0.2051  0.1382  0.2766
 9291TIP3    H152068   1.187   6.835   1.386 -1.5659  0.6344  0.7914
 9291TIP3    H252069   1.224   6.791   1.246  0.4464  2.6603  0.6286
 9292TIP3   OH252070   3.311   3.684   1.684  0.3367 -0.0976  0.5788
 9292TIP3    H152071   3.321   3.631   1.763 -0.9715 -1.3010 -0.0234
 9292TIP3    H252072   3.219   3.676   1.661  0.6156  0.5359 -0.8796
 9293TIP3   OH252073   1.574   0.049   0.749  0.4659 -0.2322  0.1955
 9293TIP3    H152074   1.537  -0.021   0.802 -0.3263 -0.2168 -0.3118
 9293TIP3    H252075   1.601   0.115   0.812 -1.1572  0.1232  0.5821
 9294TIP3   OH252076   0.138   3.870   0.886 -0.0521 -0.2192  0.1213
 9294TIP3    H152077   0.158   3.883   0.793 -0.7526 -2.6082 -0.4507
 9294TIP3    H252078   0.091   3.786   0.888  2.5955 -1.8213  2.9584
 9295TIP3   OH252079   3.573   3.163   2.961 -0.2017 -0.4641 -0.5611
 9295TIP3    H152080   3.563   3.117   2.877 -1.6662 -1.8795  0.3162
 9295TIP3    H252081   3.491   3.145   3.008  0.5119  0.4149  1.1205
 9296TIP3   OH252082   1.218   5.820   0.660  0.1144 -0.3696 -0.1550
 9296TIP3    H152083   1.153   5.767   0.707 -1.0846 -0.0617 -1.3976
 9296TIP3    H252084   1.174   5.845   0.579  0.7730  2.2239  0.2106
 9297TIP3   OH252085   7.527   6.093   1.716  0.0525  0.4195  0.5079
 9297TIP3    H152086   7.535   6.051   1.630 -2.5920 -0.6127  0.6710
 9297TIP3    H252087   7.583   6.170   1.711  0.1853  0.2232 -2.0500
 9298TIP3   OH252088   1.055   6.075   0.856  0.3472 -0.6535  0.2567
 9298TIP3    H152089   1.024   6.006   0.914 -0.2874  0.7125  1.6046
 9298TIP3    H252090   1.005   6.061   0.775 -1.8305 -0.1747  1.4385
 9299TIP3   OH252091   0.212   7.262   1.212  0.2059 -0.3552 -0.0686
 9299TIP3    H152092   0.292   7.224   1.175 -1.0001 -2.8375 -0.3554
 9299TIP3    H252093   0.159   7.284   1.135 -0.1802 -0.6085  0.1224
 9300TIP3   OH252094   6.565   6.294   2.123  0.2402  0.0765 -0.3021
 9300TIP3    H152095   6.612   6.266   2.201 -0.6928 -1.0108 -0.1138
 9300TIP3    H252096   6.523   6.376   2.148  0.4425  0.0435  0.1459
 9301TIP3   OH252097   3.863   1.483   2.217 -0.6944  0.0126 -0.7758
 9301TIP3    H152098   3.804   1.417   2.180  0.9863 -0.7225 -2.3093
 9301TIP3    H252099   3.851   1.476   2.312 -1.3762 -1.7047 -0.9535
 9302TIP3   OH252100   0.124   1.787   2.395 -0.1075 -0.1011  0.2300
 9302TIP3    H152101   0.208   1.757   2.360  0.6604  0.2090  1.6982
 9302TIP3    H252102   0.082   1.708   2.429  0.4803 -0.0175  1.2124
 9303TIP3   OH252103   1.882   0.631   3.306  0.4700 -0.2369  0.2886
 9303TIP3    H152104   1.886   0.726   3.302  0.3905 -0.2271  0.4393
 9303TIP3    H252105   1.944   0.601   3.239 -1.2387 -0.0746 -1.4584
 9304TIP3   OH252106   1.115   1.377   1.598 -0.2100 -0.7414 -0.0404
 9304TIP3    H152107   1.038   1.331   1.631 -0.1037 -1.1530 -0.3562
 9304TIP3    H252108   1.083   1.426   1.522  0.0703 -1.8631 -0.9112
 9305TIP3   OH252109   5.406   7.443   1.024  0.5328  0.1676 -0.1972
 9305TIP3    H152110   5.327   7.399   1.055  0.6498 -0.0755 -0.2374
 9305TIP3    H252111   5.454   7.374   0.978  0.1036  0.6332 -1.3883
 9306TIP3   OH252112   3.550   3.195   0.885 -0.5296  0.5592 -0.8240
 9306TIP3    H152113   3.626   3.237   0.846  0.4257 -0.2697  0.0845
 9306TIP3    H252114   3.487   3.266   0.898  0.5200  1.4622 -0.5570
 9307TIP3   OH252115   3.484   2.125   2.967  0.2883  0.2592  0.6885
 9307TIP3    H152116   3.499   2.082   2.883 -0.3011  1.1267  0.1181
 9307TIP3    H252117   3.440   2.059   3.021 -1.6909  0.4918 -0.5734
 9308TIP3   OH252118   4.619   0.012   2.082  0.0310  0.0272 -0.2202
 9308TIP3    H152119   4.657   0.087   2.036 -1.0934  1.4252  1.0307
 9308TIP3    H252120   4.682  -0.008   2.151  1.2267 -1.4227 -1.6562
 9309TIP3   OH252121   3.275   3.930   1.355 -0.3479  1.1536 -0.5368
 9309TIP3    H152122   3.320   4.013   1.369  1.6243  0.1065 -0.2402
 9309TIP3    H252123   3.302   3.904   1.267 -1.8602  1.3312 -1.0751
 9310TIP3   OH252124   0.729   5.371   2.985 -0.4804  0.3976  0.2768
 9310TIP3    H152125   0.782   5.444   3.017  2.6038 -1.0848 -1.0357
 9310TIP3    H252126   0.692   5.402   2.903  0.0639  0.7891  0.1755
 9311TIP3   OH252127   5.029   0.261   3.060 -0.3473 -0.3233 -0.6325
 9311TIP3    H152128   5.002   0.171   3.042 -2.2273  0.1760 -0.5512
 9311TIP3    H252129   4.967   0.291   3.127  0.5162  0.9056 -0.3528
 9312TIP3   OH252130   7.500   2.438   1.364 -0.1809 -0.5105  0.2221
 9312TIP3    H152131   7.451   2.520   1.363 -2.0385 -1.5607 -0.7981
 9312TIP3    H252132   7.461   2.387   1.436  0.9662 -0.5184  0.8608
 9313TIP3   OH252133   1.394   2.294   3.460  0.2973  0.4440 -0.0847
 9313TIP3    H152134   1.401   2.388   3.477  1.1770  0.1542  1.4168
 9313TIP3    H252135   1.485   2.265   3.449 -0.0563  0.0381 -2.4102
 9314TIP3   OH252136   5.277   3.127   1.513 -0.0619  0.6196  0.7445
 9314TIP3    H152137   5.370   3.139   1.496  0.0126  0.4009  1.0009
 9314TIP3    H252138   5.263   3.168   1.599 -0.1347  0.3476  0.8623
 9315TIP3   OH252139   1.645   3.721   2.967 -0.0671 -0.3250 -0.7202
 9315TIP3    H152140   1.604   3.768   3.038 -0.2069 -0.5973 -0.6177
 9315TIP3    H252141   1.695   3.651   3.009  0.3568 -0.1106 -0.8536
 9316TIP3   OH252142   3.804   0.713   1.807  0.1357  0.4622 -0.0925
 9316TIP3    H152143   3.811   0.626   1.845 -1.4723 -0.0653 -0.9226
 9316TIP3    H252144   3.735   0.706   1.742 -0.0606  2.3743 -0.1668
 9317TIP3   OH252145   6.840   1.270   1.698 -0.7977 -0.3884 -0.1331
 9317TIP3    H152146   6.874   1.247   1.785  0.0678  0.5995 -0.1950
 9317TIP3    H252147   6.796   1.354   1.711 -2.0836 -1.0067 -0.3365
 9318TIP3   OH252148   4.271   5.620   1.990 -0.5341  0.1725  0.3079
 9318TIP3    H152149   4.322   5.639   1.911 -1.2852  0.2375 -0.1743
 9318TIP3    H252150   4.273   5.701   2.040  2.3375 -0.6761  1.7775
 9319TIP3   OH252151   4.207   0.193   2.432 -0.2432 -0.1153  0.2958
 9319TIP3    H152152   4.147   0.195   2.357  1.0791  1.0100 -0.7929
 9319TIP3    H252153   4.284   0.147   2.399  0.7666  1.2797  0.6084
 9320TIP3   OH252154   4.109   7.015   0.958 -0.0098 -0.1690  0.3316
 9320TIP3    H152155   4.102   6.923   0.983  0.2399 -0.1884  0.3365
 9320TIP3    H252156   4.056   7.061   1.023 -0.5485 -0.3524  0.0315
 9321TIP3   OH252157   0.946   4.217   1.700  0.0581  0.1122 -0.7854
 9321TIP3    H152158   0.968   4.286   1.638  0.3057  0.3874 -0.4005
 9321TIP3    H252159   0.971   4.135   1.656 -0.4649  0.2505 -1.3392
 9322TIP3   OH252160   5.077   1.084   1.716  0.4462  0.0523  0.3681
 9322TIP3    H152161   5.094   1.104   1.808 -0.0623  2.8319 -0.0291
 9322TIP3    H252162   5.005   1.143   1.692 -1.0717 -2.2961 -1.2293
 9323TIP3   OH252163   0.009   1.420   3.583 -0.5232  0.1869 -0.2952
 9323TIP3    H152164  -0.087   1.425   3.586 -0.4484  1.7879  0.3650
 9323TIP3    H252165   0.034   1.484   3.517  0.1425  0.5856  0.3338
 9324TIP3   OH252166   2.706   2.618   1.028  0.3027 -0.1092 -0.2522
 9324TIP3    H152167   2.790   2.601   1.070 -0.4657 -0.6183  1.1691
 9324TIP3    H252168   2.656   2.537   1.042 -0.2918  0.0408 -1.4116
 9325TIP3   OH252169   0.930   5.268   3.292  0.1301  0.1398  0.3828
 9325TIP3    H152170   0.907   5.183   3.254  0.2429  0.5533 -0.6602
 9325TIP3    H252171   1.016   5.253   3.332  0.1828 -0.2214  0.1456
 9326TIP3   OH252172   1.501   3.712   1.219 -0.8200  0.0047 -0.7508
 9326TIP3    H152173   1.499   3.711   1.124 -0.6052  0.7060 -0.7697
 9326TIP3    H252174   1.593   3.695   1.241 -1.0791 -1.3661 -0.6295
 9327TIP3   OH252175   3.216   3.895   1.889  0.3740 -0.4067 -0.0221
 9327TIP3    H152176   3.240   3.864   1.802  0.6354 -0.6776  0.1453
 9327TIP3    H252177   3.129   3.933   1.878  0.4915 -0.2549 -0.4427
 9328TIP3   OH252178   7.053   0.059   1.853 -0.1780  0.2953 -0.1139
 9328TIP3    H152179   7.053  -0.001   1.928  0.6522  0.7072  0.2313
 9328TIP3    H252180   7.044   0.146   1.893 -0.3674  0.4745 -0.5447
 9329TIP3   OH252181   5.634   3.198   2.496  1.0089  0.6185 -0.0536
 9329TIP3    H152182   5.576   3.179   2.422 -0.1176  0.5537  0.8223
 9329TIP3    H252183   5.583   3.174   2.573  2.1223  0.7903  0.7563
 9330TIP3   OH252184   5.937   5.567   2.471 -0.3832  0.4815 -0.1004
 9330TIP3    H152185   6.010   5.581   2.530 -0.3560 -1.1870  0.3049
 9330TIP3    H252186   5.863   5.547   2.528 -0.7166  0.3317 -0.5757
 9331TIP3   OH252187   2.874   4.748   1.116 -0.6897 -0.2744  0.2829
 9331TIP3    H152188   2.899   4.817   1.178 -0.2061 -0.1044 -0.0994
 9331TIP3    H252189   2.877   4.791   1.031 -1.5566 -0.4522  0.1543
 9332TIP3   OH252190   4.075   4.907   2.257 -0.3849  0.0939  0.3873
 9332TIP3    H152191   4.121   4.877   2.178 -0.3082  0.7561  0.1734
 9332TIP3    H252192   4.100   4.844   2.324  0.4469  0.1575  0.1523
 9333TIP3   OH252193   0.210   3.194   1.280  0.1629 -0.2604 -0.3592
 9333TIP3    H152194   0.251   3.108   1.271  1.7133  0.2444  1.1821
 9333TIP3    H252195   0.223   3.217   1.373 -1.9536  0.8072 -0.2611
 9334TIP3   OH252196   4.830   7.093   1.278  0.3529  0.2829  0.1510
 9334TIP3    H152197   4.862   7.097   1.369 -0.2116  0.7288  0.3330
 9334TIP3    H252198   4.784   7.009   1.273  0.0536  0.4332  0.3854
 9335TIP3   OH252199   2.400   7.051   3.071  0.1148  0.0836  0.1799
 9335TIP3    H152200   2.467   7.110   3.106  0.0429 -0.9775  2.3058
 9335TIP3    H252201   2.338   7.040   3.142 -2.1919  0.7228 -1.6163
 9336TIP3   OH252202   6.797   4.948   0.862 -0.4803  0.1520 -1.1780
 9336TIP3    H152203   6.721   4.958   0.919  0.1373  2.0223 -0.6160
 9336TIP3    H252204   6.775   5.000   0.784  0.8343  2.1468 -0.3061
 9337TIP3   OH252205   7.541   4.950   2.887 -0.0164  0.3854 -0.5766
 9337TIP3    H152206   7.624   4.910   2.860 -0.2492 -0.1845 -0.4607
 9337TIP3    H252207   7.560   5.043   2.893  0.9841  0.1081  0.7876
 9338TIP3   OH252208   0.127   1.317   1.110  0.5386 -0.1197  0.1016
 9338TIP3    H152209   0.141   1.255   1.038 -0.4066 -2.3101  1.6855
 9338TIP3    H252210   0.034   1.339   1.105 -0.3230 -2.6695  2.2814
 9339TIP3   OH252211   4.894   5.472   3.303  0.3342 -0.1385  0.4410
 9339TIP3    H152212   4.959   5.402   3.289 -0.4273 -0.5495 -1.3073
 9339TIP3    H252213   4.919   5.540   3.241  0.1729  0.5028  1.0727
 9340TIP3   OH252214   2.120   0.860   1.687 -0.5805  0.1573  0.1158
 9340TIP3    H152215   2.086   0.922   1.623 -1.1425 -0.6475 -0.3836
 9340TIP3    H252216   2.160   0.915   1.755 -1.3858  1.0754 -0.1288
 9341TIP3   OH252217   4.340   1.282   1.478  0.4169 -0.7456 -0.0145
 9341TIP3    H152218   4.402   1.209   1.468 -0.0899 -1.1777 -0.0618
 9341TIP3    H252219   4.267   1.260   1.420 -0.4999 -1.0302  1.1853
 9342TIP3   OH252220   5.487   4.626   0.730  0.6702 -0.4030 -0.1207
 9342TIP3    H152221   5.568   4.646   0.775  0.0832 -0.0285  0.7987
 9342TIP3    H252222   5.510   4.627   0.637  1.6438 -0.0152  0.1152
 9343TIP3   OH252223   2.221   6.741   3.454  0.1701  0.0465 -0.0350
 9343TIP3    H152224   2.153   6.713   3.515  0.0941 -1.7019 -0.8731
 9343TIP3    H252225   2.217   6.837   3.457  0.5571  0.0942  3.0917
 9344TIP3   OH252226   6.868   7.015   2.071 -0.3045 -0.1385 -0.1405
 9344TIP3    H152227   6.893   6.964   1.994  0.4160 -0.8735  0.5583
 9344TIP3    H252228   6.932   7.086   2.075 -1.5245  1.0843 -1.3205
 9345TIP3   OH252229   0.883   5.854   1.303  0.1878  0.6354  0.2521
 9345TIP3    H152230   0.936   5.901   1.238 -0.6090  2.9915  1.2135
 9345TIP3    H252231   0.792   5.873   1.278 -0.1868 -0.4745  0.6783
 9346TIP3   OH252232   7.095   3.552   2.085 -0.1224  0.5258 -0.3414
 9346TIP3    H152233   7.064   3.462   2.073  0.7540 -0.0259  1.1834
 9346TIP3    H252234   7.045   3.604   2.022 -1.4233 -0.8612 -0.4986
 9347TIP3   OH252235   0.782   1.464   2.201 -0.8467  0.7957  0.3166
 9347TIP3    H152236   0.821   1.475   2.288 -0.0575 -1.9222  0.4036
 9347TIP3    H252237   0.829   1.525   2.145  0.1491  1.0548  1.3967
 9348TIP3   OH252238   1.940   3.428   3.059 -0.4955 -0.0307 -0.2851
 9348TIP3    H152239   2.036   3.431   3.061 -0.4509 -1.3418  0.0420
 9348TIP3    H252240   1.913   3.471   3.140 -0.1459 -0.8714  0.2798
 9349TIP3   OH252241   0.545   0.559   2.052  0.1768  0.1873 -0.6557
 9349TIP3    H152242   0.559   0.563   2.146 -1.5017  0.1100 -0.3778
 9349TIP3    H252243   0.628   0.525   2.017  2.0043  3.1491  0.4322
 9350TIP3   OH252244   7.623   1.345   2.653  0.0050 -0.5707  0.4054
 9350TIP3    H152245   7.684   1.286   2.610 -0.0151 -1.2722  1.3238
 9350TIP3    H252246   7.644   1.339   2.746  0.3510  1.2586  0.4942
 9351TIP3   OH252247   7.283   3.804   3.387  0.0046  0.0953  0.6639
 9351TIP3    H152248   7.258   3.818   3.296  1.9910  1.0461  0.2051
 9351TIP3    H252249   7.310   3.712   3.391  3.2528  0.8430 -0.6789
 9352TIP3   OH252250   7.561   1.398   2.014  0.2057  0.1728 -0.1808
 9352TIP3    H152251   7.523   1.378   2.099 -1.0196  0.5081 -0.6266
 9352TIP3    H252252   7.512   1.343   1.952  1.0325 -0.0201 -0.6777
 9353TIP3   OH252253   5.488   0.545   1.369 -0.6565 -0.3366  0.2116
 9353TIP3    H152254   5.580   0.563   1.347 -0.8321  0.8086  0.3774
 9353TIP3    H252255   5.480   0.450   1.358  0.4927 -0.4311 -0.0090
 9354TIP3   OH252256   0.668   3.764   2.493  0.5471 -0.0509 -0.3975
 9354TIP3    H152257   0.755   3.750   2.454 -0.1588 -1.4448 -1.5530
 9354TIP3    H252258   0.607   3.729   2.429 -0.8374  0.0724  0.8041
 9355TIP3   OH252259   6.914   7.571   1.620 -0.0050 -0.2834  0.4003
 9355TIP3    H152260   6.908   7.501   1.684  0.4040 -1.2674 -0.5947
 9355TIP3    H252261   6.919   7.526   1.536  2.2709  0.8482 -0.1501
 9356TIP3   OH252262   6.558   4.899   1.726  0.1005 -0.1831 -1.1034
 9356TIP3    H152263   6.585   4.990   1.710 -0.4294  0.1719 -0.0563
 9356TIP3    H252264   6.551   4.892   1.821 -0.0862 -1.2654 -1.1835
 9357TIP3   OH252265   1.494   1.783   1.650 -0.2570  0.3705  0.1031
 9357TIP3    H152266   1.453   1.697   1.660  0.7440  0.0529  1.9319
 9357TIP3    H252267   1.438   1.829   1.587 -1.8261 -0.9869  0.4246
 9358TIP3   OH252268   5.492   6.146   2.006 -0.2980 -0.2723 -0.0762
 9358TIP3    H152269   5.472   6.204   1.933  1.6286  0.5104 -0.0516
 9358TIP3    H252270   5.423   6.162   2.070 -0.1319  1.6013 -0.3199
 9359TIP3   OH252271   6.095   4.578   0.684 -0.1953 -0.2196  0.0045
 9359TIP3    H152272   6.149   4.499   0.677 -0.5274 -0.5182  0.7429
 9359TIP3    H252273   6.090   4.596   0.778 -0.3601  0.5200 -0.1379
 9360TIP3   OH252274   4.890   0.193   2.677  0.2793 -0.5981 -0.1614
 9360TIP3    H152275   4.970   0.204   2.728 -0.7371  1.6676  1.1013
 9360TIP3    H252276   4.896   0.259   2.608 -0.3025 -0.7049 -0.3215
 9361TIP3   OH252277   1.402   7.645   2.995 -1.1855  0.1416 -0.1374
 9361TIP3    H152278   1.327   7.590   2.972 -2.0771  1.6637 -1.0301
 9361TIP3    H252279   1.444   7.664   2.911 -0.1940 -0.1160  0.2872
 9362TIP3   OH252280   2.004   6.409   2.049  0.0318  0.0108  0.1267
 9362TIP3    H152281   2.011   6.467   2.124 -0.2347 -0.3333  0.4178
 9362TIP3    H252282   2.030   6.323   2.082  0.1363 -0.0983 -0.2299
 9363TIP3   OH252283   7.327   2.904   2.079 -0.3676  0.4208  0.6410
 9363TIP3    H152284   7.354   2.933   1.992 -0.6664  1.8902  1.0133
 9363TIP3    H252285   7.231   2.912   2.078 -0.3746  0.4375  1.0990
 9364TIP3   OH252286   7.650   7.173   3.738 -0.1998 -0.3612 -0.3053
 9364TIP3    H152287   7.660   7.265   3.711  2.4130 -0.3624  0.3815
 9364TIP3    H252288   7.578   7.140   3.684 -0.8713  1.9355 -0.9396
 9365TIP3   OH252289   3.295   7.674   2.879 -0.1985  0.2853 -0.3381
 9365TIP3    H152290   3.339   7.635   2.955 -2.8157 -0.9612  0.6259
 9365TIP3    H252291   3.261   7.757   2.911 -0.9047 -0.0251 -0.2793
 9366TIP3   OH252292   5.052   3.229   1.377 -0.5732  0.6809 -0.1196
 9366TIP3    H152293   5.071   3.260   1.288 -0.0636  1.2756  0.1904
 9366TIP3    H252294   5.134   3.190   1.407 -0.0476  2.4579  0.8925
 9367TIP3   OH252295   3.552   5.488   2.659  0.0676  0.3541 -0.0134
 9367TIP3    H152296   3.636   5.499   2.614 -0.6874 -3.0454 -2.6598
 9367TIP3    H252297   3.507   5.571   2.645  2.4286  1.8300  0.4545
 9368TIP3   OH252298   5.977   1.694   2.033 -0.3911 -0.2500 -0.8488
 9368TIP3    H152299   5.972   1.786   2.058 -0.4017  0.4243 -3.1086
 9368TIP3    H252300   5.888   1.673   2.004 -0.0635 -0.5315 -1.6848
 9369TIP3   OH252301   7.574   0.940   1.072 -0.0728 -0.3113  0.3136
 9369TIP3    H152302   7.483   0.910   1.069 -0.1842 -0.1669  1.5976
 9369TIP3    H252303   7.625   0.862   1.092  0.0103 -0.2696  0.2653
 9370TIP3   OH252304   1.008   0.478   2.715  0.1600 -0.4499  0.1140
 9370TIP3    H152305   0.964   0.529   2.784 -0.9978  0.0878 -0.9734
 9370TIP3    H252306   1.094   0.518   2.708  0.2065 -0.3497  1.0811
 9371TIP3   OH252307   6.657   6.245   2.419  0.4940  0.4141 -0.3561
 9371TIP3    H152308   6.748   6.221   2.437  0.2859  0.7918  1.3801
 9371TIP3    H252309   6.609   6.213   2.496 -0.9017 -0.0769 -1.3942
 9372TIP3   OH252310   3.630   2.961   2.214  0.0922  0.1442 -0.8266
 9372TIP3    H152311   3.676   2.961   2.131  0.0503  2.2376 -0.9146
 9372TIP3    H252312   3.683   3.018   2.271  0.0998 -1.1921  0.5871
 9373TIP3   OH252313   1.023   6.946   3.257  0.4084  0.1736  0.1213
 9373TIP3    H152314   0.984   6.887   3.193 -1.4784 -0.7858  2.0634
 9373TIP3    H252315   1.011   7.034   3.219 -4.6496  0.1086  0.9013
 9374TIP3   OH252316   4.187   5.518   2.408  0.1866 -0.1775 -0.2788
 9374TIP3    H152317   4.230   5.484   2.329 -0.6170 -0.1873 -0.7272
 9374TIP3    H252318   4.239   5.594   2.433  1.5927 -1.2790  0.3148
 9375TIP3   OH252319   2.118   3.009   2.673  0.2616  0.3001  0.3141
 9375TIP3    H152320   2.108   3.076   2.606  1.2102  0.9383  0.8033
 9375TIP3    H252321   2.034   3.009   2.719  0.4081  1.4822  0.6110
 9376TIP3   OH252322   3.848   5.377   0.735  0.2291 -0.3591  0.2461
 9376TIP3    H152323   3.753   5.370   0.737  0.2095 -0.1306  2.1161
 9376TIP3    H252324   3.870   5.381   0.642 -1.6282  0.1967 -0.2127
 9377TIP3   OH252325   4.840   5.739   2.810  0.2319 -0.0347 -0.6791
 9377TIP3    H152326   4.790   5.798   2.754 -0.5738 -0.6938 -0.6631
 9377TIP3    H252327   4.881   5.677   2.749  0.1392 -0.1588 -0.6172
 9378TIP3   OH252328   3.913   3.158   2.905  0.2532 -0.1976 -0.1738
 9378TIP3    H152329   3.914   3.222   2.834 -0.3735  0.8650  0.7287
 9378TIP3    H252330   3.979   3.191   2.967 -2.1363  1.3813  1.7380
 9379TIP3   OH252331   4.272   2.153   1.669  0.3204 -0.3384 -0.5116
 9379TIP3    H152332   4.295   2.061   1.679  0.2568 -0.4152 -1.0365
 9379TIP3    H252333   4.177   2.156   1.679  0.3895 -0.2313  0.1694
 9380TIP3   OH252334   7.662   2.345   3.378  0.2199  0.3727 -0.3036
 9380TIP3    H152335   7.608   2.279   3.421  0.8525 -0.2060 -0.3834
 9380TIP3    H252336   7.670   2.415   3.442  2.1439 -0.9860  1.0449
 9381TIP3   OH252337   4.274   5.058   0.594 -0.1678  0.0290  0.7365
 9381TIP3    H152338   4.299   4.975   0.634  1.3057 -0.7340 -1.5688
 9381TIP3    H252339   4.179   5.064   0.607 -0.3620 -2.2229  0.6453
 9382TIP3   OH252340   1.193   5.836   1.222  0.0062  0.2130  0.0587
 9382TIP3    H152341   1.235   5.794   1.147 -1.8046 -0.1463 -0.7984
 9382TIP3    H252342   1.168   5.763   1.279  2.5163  0.5202  1.7586
 9383TIP3   OH252343   1.486   6.474   2.348 -0.1378 -0.1483 -0.2888
 9383TIP3    H152344   1.541   6.516   2.282 -0.6536  0.4484 -0.3468
 9383TIP3    H252345   1.547   6.444   2.415  0.4714 -1.3757 -1.3488
 9384TIP3   OH252346   3.339   4.149   1.705 -0.4008  0.1805  0.2840
 9384TIP3    H152347   3.318   4.177   1.794 -0.5164 -1.3798  0.7744
 9384TIP3    H252348   3.269   4.089   1.681  0.4011 -0.5430 -0.2979
 9385TIP3   OH252349   2.037   3.750   2.581 -0.4658  0.5163  0.2001
 9385TIP3    H152350   2.112   3.792   2.539 -0.9581  3.3370  1.9258
 9385TIP3    H252351   2.061   3.745   2.673 -1.3201 -1.1209  0.3651
 9386TIP3   OH252352   5.887   5.107   1.167  0.4981  0.2918 -0.7618
 9386TIP3    H152353   5.902   5.174   1.100  0.9826  1.3483  0.3489
 9386TIP3    H252354   5.792   5.105   1.178  0.4866  0.9451 -0.6834
 9387TIP3   OH252355   3.611   7.175   2.214 -0.0579 -0.1542  0.0482
 9387TIP3    H152356   3.696   7.133   2.198  0.6344  0.8900  0.8027
 9387TIP3    H252357   3.632   7.247   2.274 -1.1221  1.4665 -1.4339
 9388TIP3   OH252358   1.075   2.772   3.364 -0.2040  0.0860  0.2218
 9388TIP3    H152359   1.066   2.861   3.396 -0.6687  0.5044 -1.0004
 9388TIP3    H252360   1.075   2.717   3.442 -2.6070  0.9467  0.8906
 9389TIP3   OH252361   2.643   2.332   1.841  0.2809  0.5391  0.4586
 9389TIP3    H152362   2.569   2.384   1.870 -0.8601 -0.8670  0.2026
 9389TIP3    H252363   2.704   2.334   1.914 -1.6376 -1.2560  2.2403
 9390TIP3   OH252364   1.775   2.376   2.166  0.4374  0.1065 -0.0220
 9390TIP3    H152365   1.764   2.375   2.071 -0.7139 -2.7117  0.0351
 9390TIP3    H252366   1.767   2.284   2.192  1.2809  0.7169  2.7617
 9391TIP3   OH252367   6.125   6.358   1.386 -0.3160 -0.2497  0.1411
 9391TIP3    H152368   6.207   6.404   1.403  1.1156 -1.5599 -2.5642
 9391TIP3    H252369   6.105   6.314   1.468  1.6448  0.1605  0.8992
 9392TIP3   OH252370   1.323   5.183   1.678  0.7067 -0.4155 -0.1734
 9392TIP3    H152371   1.350   5.194   1.587 -1.9335  2.5624 -0.7895
 9392TIP3    H252372   1.312   5.272   1.711  0.1384 -1.4158  2.6001
 9393TIP3   OH252373   6.067   5.745   2.309 -0.3360 -0.7739  0.0846
 9393TIP3    H152374   6.008   5.687   2.358 -0.8079 -1.5092 -1.3146
 9393TIP3    H252375   6.048   5.728   2.217  0.7560  0.3497 -0.3879
 9394TIP3   OH252376   1.836   7.451   3.164  0.4424  0.6848  0.3739
 9394TIP3    H152377   1.828   7.539   3.201 -0.6772  0.7101  0.1003
 9394TIP3    H252378   1.748   7.430   3.132  0.8510 -0.2722 -0.1615
 9395TIP3   OH252379   1.330   0.424   0.586 -0.9282 -0.6115  0.0834
 9395TIP3    H152380   1.336   0.425   0.682 -0.0929  0.0385  0.0375
 9395TIP3    H252381   1.320   0.515   0.561  0.0454 -0.6472 -0.5017
 9396TIP3   OH252382   3.663   1.683   1.682  0.1029  0.1579  0.5146
 9396TIP3    H152383   3.702   1.705   1.597 -0.0291 -0.7109  0.2206
 9396TIP3    H252384   3.611   1.759   1.705  0.4262  0.5467 -0.0191
 9397TIP3   OH252385   2.761   0.315   2.400 -0.1273  0.3165 -0.1433
 9397TIP3    H152386   2.705   0.387   2.371  0.6946  0.4807 -1.4088
 9397TIP3    H252387   2.737   0.242   2.344  0.9240  0.4025 -0.7418
 9398TIP3   OH252388   4.345   2.738   0.877  0.1302  0.3489 -0.6382
 9398TIP3    H152389   4.305   2.685   0.946  1.4217 -0.0035 -0.1451
 9398TIP3    H252390   4.409   2.679   0.836  0.3155  0.9728 -1.2602
 9399TIP3   OH252391   4.027   1.294   0.891 -0.3506  0.2401  0.0543
 9399TIP3    H152392   4.018   1.198   0.886 -1.1596  0.0446  3.0472
 9399TIP3    H252393   4.073   1.309   0.975  1.5602  2.4549 -1.2613
 9400TIP3   OH252394   6.978   6.408   2.755  0.1343 -0.4136 -0.1196
 9400TIP3    H152395   6.943   6.439   2.838  0.1370  2.3466 -1.0547
 9400TIP3    H252396   6.901   6.402   2.698  0.2256 -1.6152 -0.1348
 9401TIP3   OH252397   1.139   2.204   3.072 -0.2946 -0.1216  0.3341
 9401TIP3    H152398   1.098   2.268   3.129 -0.6987 -0.2717  0.2182
 9401TIP3    H252399   1.233   2.213   3.088 -0.4024 -0.1300  0.9807
 9402TIP3   OH252400   1.469   1.208   2.118  0.5445 -0.5560 -0.3722
 9402TIP3    H152401   1.525   1.239   2.189  0.3069 -0.1703 -0.3510
 9402TIP3    H252402   1.519   1.229   2.038  1.4383 -2.2227 -0.2974
 9403TIP3   OH252403   7.551   2.967   2.237  0.6201  0.6107 -0.2911
 9403TIP3    H152404   7.611   2.982   2.164  0.2794  0.0533 -0.6961
 9403TIP3    H252405   7.465   2.956   2.196  0.0518  2.3732  0.3513
 9404TIP3   OH252406   5.740   3.568   1.423  0.2678 -0.3542 -0.7786
 9404TIP3    H152407   5.659   3.520   1.405  0.6972 -0.8223 -1.5388
 9404TIP3    H252408   5.768   3.600   1.337  0.5269  0.4009 -0.4240
 9405TIP3   OH252409   3.398   1.668   1.226  0.5176  0.6213 -0.1765
 9405TIP3    H152410   3.390   1.764   1.229  0.3634  0.6840 -1.6992
 9405TIP3    H252411   3.308   1.636   1.223  0.5641  0.5433 -1.4506
 9406TIP3   OH252412   0.632   1.152   1.819 -0.1112 -0.6988 -0.2790
 9406TIP3    H152413   0.717   1.122   1.787  0.6652  0.4292  0.6375
 9406TIP3    H252414   0.595   1.076   1.864  1.6095 -0.5080  1.6170
 9407TIP3   OH252415   1.172   5.297   3.155  0.2743 -0.0342 -0.7322
 9407TIP3    H152416   1.080   5.313   3.133 -0.3498  0.0075  1.6244
 9407TIP3    H252417   1.206   5.244   3.082 -1.2187  1.0874 -2.3009
 9408TIP3   OH252418   0.137   7.636   2.102  0.0297  0.4819 -0.0213
 9408TIP3    H152419   0.119   7.591   2.184  0.8122 -0.5628 -0.3896
 9408TIP3    H252420   0.184   7.571   2.049 -0.4441  1.1288 -1.2888
 9409TIP3   OH252421   3.229   1.380   1.139 -0.0753  0.1235  0.2374
 9409TIP3    H152422   3.196   1.354   1.053 -0.7752 -0.5061  0.6851
 9409TIP3    H252423   3.156   1.364   1.199  1.4846 -2.8760  1.5475
 9410TIP3   OH252424   3.229   5.584   2.548 -1.1950  0.1040  0.2935
 9410TIP3    H152425   3.254   5.654   2.608 -2.3393  1.3398 -0.6410
 9410TIP3    H252426   3.302   5.579   2.486 -0.2815 -0.7859  1.3752
 9411TIP3   OH252427   6.011   6.700   0.727  0.7219  0.2308 -0.1231
 9411TIP3    H152428   6.025   6.626   0.669  0.6196  0.1761 -0.0783
 9411TIP3    H252429   6.044   6.671   0.812  0.0305 -0.0239  0.0668
 9412TIP3   OH252430   4.914   5.623   3.053  0.0587  0.1813 -0.1047
 9412TIP3    H152431   4.878   5.679   2.984  0.9884  0.9963  0.0415
 9412TIP3    H252432   4.964   5.683   3.108  1.9716 -0.9102 -0.5424
 9413TIP3   OH252433   4.939   1.323   1.673 -0.0051 -0.6552 -0.3605
 9413TIP3    H152434   4.849   1.291   1.678 -0.4626  0.1973 -2.2715
 9413TIP3    H252435   4.934   1.414   1.703  0.0596 -0.3849 -1.1344
 9414TIP3   OH252436   0.681   4.650   2.464 -0.2388  0.2577 -0.0558
 9414TIP3    H152437   0.738   4.595   2.411 -0.0576  0.1091  0.2945
 9414TIP3    H252438   0.654   4.595   2.537  0.5506  0.8456  0.7132
 9415TIP3   OH252439   1.165   4.381   0.987 -0.4886 -0.1424  0.2275
 9415TIP3    H152440   1.155   4.370   1.082 -1.6219 -0.3275  0.1059
 9415TIP3    H252441   1.082   4.420   0.959 -1.5586 -3.1359 -1.1500
 9416TIP3   OH252442   2.323   0.315   2.205 -0.1748 -0.7669 -0.0979
 9416TIP3    H152443   2.346   0.371   2.279  1.4395  0.4949 -1.4726
 9416TIP3    H252444   2.228   0.327   2.195 -0.1497  0.2938  0.7570
 9417TIP3   OH252445   1.744   0.386   1.207 -0.3924  0.7391 -0.5569
 9417TIP3    H152446   1.706   0.383   1.294  0.7053  0.3383 -0.0783
 9417TIP3    H252447   1.786   0.472   1.202 -1.0692  1.0561 -0.9707
 9418TIP3   OH252448   4.340   2.241   1.403  0.3018 -0.4286 -0.3581
 9418TIP3    H152449   4.379   2.328   1.412  2.0194 -1.3135  1.1518
 9418TIP3    H252450   4.297   2.225   1.487 -2.0810 -0.1553 -1.4229
 9419TIP3   OH252451   3.750   1.166   2.503 -0.0533 -0.0306 -0.7584
 9419TIP3    H152452   3.802   1.242   2.529  2.5083 -1.6702 -0.7756
 9419TIP3    H252453   3.763   1.159   2.408  0.0899 -0.7183 -0.6934
 9420TIP3   OH252454   1.538   3.754   2.718  0.0263 -0.0819  0.4710
 9420TIP3    H152455   1.539   3.849   2.729 -0.1953  0.2126 -1.7332
 9420TIP3    H252456   1.587   3.721   2.794  2.9223  1.9689 -0.3295
 9421TIP3   OH252457   1.430   3.523   1.862  0.5629 -0.1752  0.5291
 9421TIP3    H152458   1.484   3.445   1.877 -0.9573 -0.8770  2.9858
 9421TIP3    H252459   1.374   3.499   1.788  0.9283 -0.9920  0.5052
 9422TIP3   OH252460   6.976   4.788   2.865 -0.3246  0.1401  0.1187
 9422TIP3    H152461   6.929   4.743   2.936  0.8531 -0.1499  0.7328
 9422TIP3    H252462   7.052   4.827   2.907  0.2605  0.1848 -0.9365
 9423TIP3   OH252463   0.921   1.818   2.522 -0.5082  0.2012  0.3684
 9423TIP3    H152464   1.016   1.832   2.528 -0.5897  0.3090  1.8653
 9423TIP3    H252465   0.903   1.813   2.428  0.8051  1.3911  0.0214
 9424TIP3   OH252466   6.734   0.103   3.356  0.6245  0.3263 -0.0488
 9424TIP3    H152467   6.700   0.054   3.431 -0.5106 -0.3289 -0.9565
 9424TIP3    H252468   6.787   0.172   3.395  1.7610 -1.2234  1.2885
 9425TIP3   OH252469   0.652   3.092   2.387  0.5237  0.5719  0.2738
 9425TIP3    H152470   0.606   3.126   2.464  1.8970  1.1244  0.8854
 9425TIP3    H252471   0.740   3.072   2.418  0.7892 -0.2278 -0.9162
 9426TIP3   OH252472   1.278   0.161   0.969 -0.4169  0.4261  0.6037
 9426TIP3    H152473   1.339   0.220   0.923 -0.9327  0.6296  0.1673
 9426TIP3    H252474   1.191   0.193   0.944 -0.9072 -3.0934 -3.2211
 9427TIP3   OH252475   7.054   3.801   1.358  0.1363 -0.1789 -0.2091
 9427TIP3    H152476   7.099   3.717   1.368 -2.7178 -1.5562  2.6013
 9427TIP3    H252477   7.126   3.864   1.349  2.5970 -2.4614  1.5260
 9428TIP3   OH252478   7.513   1.931   0.959  0.2022 -0.3936  0.5326
 9428TIP3    H152479   7.550   2.019   0.961  2.3020 -1.2095  0.2561
 9428TIP3    H252480   7.588   1.874   0.943 -1.4545 -2.0058 -2.3005
 9429TIP3   OH252481   7.590   3.491   2.236  0.5013 -0.5031 -0.4601
 9429TIP3    H152482   7.519   3.543   2.200  0.1947 -2.2074 -2.5600
 9429TIP3    H252483   7.551   3.405   2.252  1.2898 -0.5313  1.6721
 9430TIP3   OH252484   2.102   1.174   0.808  0.1924 -0.2016  0.0875
 9430TIP3    H152485   2.018   1.194   0.851  1.3230 -0.8376  2.8049
 9430TIP3    H252486   2.143   1.260   0.795  0.1514 -0.0212  1.0586
 9431TIP3   OH252487   3.421   1.531   0.614  0.2771 -0.6492 -0.1959
 9431TIP3    H152488   3.506   1.571   0.637 -0.7454  1.1628  0.6556
 9431TIP3    H252489   3.405   1.468   0.684  0.2918  0.0243  0.4360
 9432TIP3   OH252490   3.877   3.833   2.225  0.1600  0.6586 -0.0411
 9432TIP3    H152491   3.880   3.772   2.298 -1.5711  1.0342  0.3875
 9432TIP3    H252492   3.901   3.918   2.264  0.2976  0.6737 -0.1548
 9433TIP3   OH252493   7.370   2.937   2.533 -0.6114  0.0712 -0.1633
 9433TIP3    H152494   7.459   2.969   2.521 -0.8709  0.9170  0.1424
 9433TIP3    H252495   7.370   2.896   2.620 -0.7935  1.0365  0.3009
 9434TIP3   OH252496   3.425   6.278   2.272 -0.3016 -0.2560  0.0409
 9434TIP3    H152497   3.346   6.243   2.314 -1.0720  0.5202 -0.6832
 9434TIP3    H252498   3.474   6.319   2.343  1.1189 -3.4999  1.0883
 9435TIP3   OH252499   7.247   0.338   2.043 -0.4338  0.1386  0.5042
 9435TIP3    H152500   7.274   0.424   2.075  0.2949  0.3394 -0.5906
 9435TIP3    H252501   7.323   0.305   1.995 -1.0296 -0.7058  0.1131
 9436TIP3   OH252502   7.325   7.673   3.410 -0.1230  0.1735  0.4626
 9436TIP3    H152503   7.311   7.622   3.330  2.6717  1.6747 -1.1720
 9436TIP3    H252504   7.411   7.646   3.441 -1.0294 -0.1683  2.8931
 9437TIP3   OH252505   2.200   6.774   1.612  0.2552 -0.6393 -0.4271
 9437TIP3    H152506   2.139   6.849   1.610  1.7917  0.7361  1.0324
 9437TIP3    H252507   2.199   6.745   1.703  1.2719 -1.0370 -0.5367
 9438TIP3   OH252508   1.862   0.388   2.507 -0.1251  0.1213 -0.1473
 9438TIP3    H152509   1.957   0.394   2.517  0.0454 -0.5297 -1.1565
 9438TIP3    H252510   1.842   0.445   2.432 -0.8580  2.0315  1.3959
 9439TIP3   OH252511   4.338   5.932   1.861 -0.3719 -0.2848  0.4271
 9439TIP3    H152512   4.405   5.961   1.799 -0.9137 -2.2137 -1.1667
 9439TIP3    H252513   4.260   5.917   1.806 -1.3349 -0.5690  1.8244
 9440TIP3   OH252514   3.794   7.643   0.849  0.1406 -0.1397 -0.4888
 9440TIP3    H152515   3.700   7.661   0.851  0.2002  0.2391 -0.9236
 9440TIP3    H252516   3.830   7.707   0.788  0.6825 -0.2916 -0.3392
 9441TIP3   OH252517   6.407   6.957   3.029 -0.3480 -0.0356  0.1141
 9441TIP3    H152518   6.371   6.869   3.040 -0.2862 -0.1269 -0.3917
 9441TIP3    H252519   6.399   6.975   2.935  0.5852  0.0835  0.0399
 9442TIP3   OH252520   0.397   1.370   3.601 -0.4037  0.1578  0.6666
 9442TIP3    H152521   0.377   1.285   3.564  0.6591 -0.9273  2.4085
 9442TIP3    H252522   0.490   1.384   3.583 -0.9588  1.8809 -1.2520
 9443TIP3   OH252523   2.335   5.361   2.353 -1.0818 -0.0921  0.0586
 9443TIP3    H152524   2.412   5.386   2.302 -0.2807  0.4869  1.4659
 9443TIP3    H252525   2.335   5.266   2.352  0.6339 -0.1549  1.3495
 9444TIP3   OH252526   2.490   6.833   1.878  0.2392 -0.0078  0.2521
 9444TIP3    H152527   2.444   6.910   1.844 -1.9674 -1.0910  0.5414
 9444TIP3    H252528   2.529   6.792   1.801  1.3424  1.3171  0.0866
 9445TIP3   OH252529   2.305   3.957   1.601 -0.3241 -0.0782  0.6073
 9445TIP3    H152530   2.381   3.949   1.659 -0.9631 -1.1555  1.3323
 9445TIP3    H252531   2.263   4.038   1.629 -0.3565 -0.3396  1.3500
 9446TIP3   OH252532   6.114   5.529   1.033  0.2518 -0.1304  0.2360
 9446TIP3    H152533   6.158   5.490   1.109 -1.3842 -0.8666  0.8451
 9446TIP3    H252534   6.149   5.618   1.029  1.5964 -0.6018  0.8355
 9447TIP3   OH252535   3.782   2.905   1.992 -0.1860  0.4451 -0.3831
 9447TIP3    H152536   3.812   2.826   1.946  2.7139  1.5406 -0.6034
 9447TIP3    H252537   3.854   2.926   2.053 -1.9334  1.5965  1.4145
 9448TIP3   OH252538   0.979   3.947   1.941 -0.4291  0.1477  0.1162
 9448TIP3    H152539   0.901   3.952   1.996 -0.7746 -1.4270 -0.1870
 9448TIP3    H252540   1.025   4.029   1.957 -1.6726  0.6986  1.0088
 9449TIP3   OH252541   2.468   3.395   1.821 -0.8395 -0.5965 -0.5219
 9449TIP3    H152542   2.507   3.481   1.809 -0.0574 -0.9034 -0.2061
 9449TIP3    H252543   2.462   3.359   1.732 -1.5086 -0.0872 -0.6966
 9450TIP3   OH252544   2.069   3.432   1.366 -0.3366 -0.0507  0.1118
 9450TIP3    H152545   2.059   3.512   1.314  0.2166 -1.6776 -2.7031
 9450TIP3    H252546   2.150   3.446   1.415  0.0794  0.9164 -0.7929
 9451TIP3   OH252547   2.423   1.228   1.405 -0.0521 -0.4682 -0.1037
 9451TIP3    H152548   2.397   1.217   1.497  1.1350  2.3726  0.6970
 9451TIP3    H252549   2.518   1.244   1.409  0.0391 -0.3981 -1.8307
 9452TIP3   OH252550   2.743   3.508   2.546 -0.2167  0.1200  0.0506
 9452TIP3    H152551   2.751   3.603   2.542 -1.2096  0.2112 -3.3962
 9452TIP3    H252552   2.657   3.492   2.585 -0.8518  0.7573 -1.0442
 9453TIP3   OH252553   3.877   1.306   1.888  0.1972  0.3890  0.4691
 9453TIP3    H152554   3.855   1.393   1.853  1.6234  0.6202  0.0972
 9453TIP3    H252555   3.811   1.291   1.956 -0.2023  1.6704  0.4011
 9454TIP3   OH252556   4.579   2.705   3.045 -0.2923  0.4157  0.3434
 9454TIP3    H152557   4.572   2.793   3.081 -0.9936  0.0086  1.2630
 9454TIP3    H252558   4.494   2.665   3.065  0.0302 -0.4757 -0.0318
 9455TIP3   OH252559   7.125   7.296   1.719  0.7157  0.5468 -0.1442
 9455TIP3    H152560   7.035   7.285   1.750  0.4077  0.9184 -0.8779
 9455TIP3    H252561   7.143   7.215   1.671 -0.5898  1.8812 -3.2064
 9456TIP3   OH252562   3.938   3.441   2.949  0.3631  0.2413 -0.0755
 9456TIP3    H152563   3.987   3.396   3.018  0.1793  0.5973  0.2850
 9456TIP3    H252564   3.954   3.534   2.964  0.2328  0.3241 -0.4437
 9457TIP3   OH252565   5.860   3.393   1.606  0.3538 -0.4290 -0.1264
 9457TIP3    H152566   5.818   3.469   1.566 -0.7920 -0.7074  0.4806
 9457TIP3    H252567   5.949   3.394   1.573  0.7029  1.8199  0.7302
 9458TIP3   OH252568   4.500   6.642   0.835  0.3103  0.5429  0.2352
 9458TIP3    H152569   4.524   6.726   0.796  0.7893  0.8764  1.2244
 9458TIP3    H252570   4.475   6.664   0.925 -0.9545 -0.1835  0.0752
 9459TIP3   OH252571   0.964   3.558   1.674 -0.1604 -0.2511  0.7232
 9459TIP3    H152572   0.997   3.560   1.584 -0.4039 -0.5513  0.6263
 9459TIP3    H252573   1.003   3.635   1.715 -2.2729  1.5439 -0.4336
 9460TIP3   OH252574   2.565   5.964   2.026  0.2181  0.5571  0.4242
 9460TIP3    H152575   2.658   5.969   2.048  0.1384  0.3878  0.8263
 9460TIP3    H252576   2.544   6.049   1.988  0.4437  0.7493  0.7213
 9461TIP3   OH252577   7.627   0.893   0.658 -0.7077  0.4713  0.3666
 9461TIP3    H152578   7.577   0.946   0.596  0.0858 -0.4790 -1.1335
 9461TIP3    H252579   7.590   0.806   0.651  1.9551 -0.6424 -1.8865
 9462TIP3   OH252580   4.457   7.618   2.469 -0.3211  0.1744  0.1681
 9462TIP3    H152581   4.491   7.696   2.426  1.4134 -0.3481  0.5040
 9462TIP3    H252582   4.492   7.545   2.417 -1.6066 -0.3973  0.0685
 9463TIP3   OH252583   3.794   2.961   3.082  0.1148 -0.0342 -0.1522
 9463TIP3    H152584   3.777   3.010   3.002  0.8534 -0.8887 -0.8578
 9463TIP3    H252585   3.708   2.929   3.108 -0.0149 -0.6063 -1.1985
 9464TIP3   OH252586   0.770   5.647   2.965 -0.1378 -0.7661 -0.5546
 9464TIP3    H152587   0.753   5.704   3.040 -0.4672 -0.9794 -0.4603
 9464TIP3    H252588   0.693   5.658   2.909  1.2117  1.2935 -2.1005
 9465TIP3   OH252589   5.595   3.864   2.137  0.4681  0.3121 -0.2791
 9465TIP3    H152590   5.656   3.793   2.151  1.8541  1.3460 -0.8613
 9465TIP3    H252591   5.648   3.935   2.100 -0.9779  1.4259 -0.3212
 9466TIP3   OH252592   4.775   6.498   1.500 -0.0879  0.2903  0.1176
 9466TIP3    H152593   4.829   6.573   1.474 -1.0945  0.9505 -0.1377
 9466TIP3    H252594   4.735   6.525   1.583 -1.1554  0.4230 -0.4205
 9467TIP3   OH252595   6.311   3.716   0.643 -0.0105  0.3910  0.1120
 9467TIP3    H152596   6.222   3.684   0.626  0.0366  0.9677 -1.3786
 9467TIP3    H252597   6.298   3.800   0.687 -0.1546 -0.2974  1.4544
 9468TIP3   OH252598   3.005   2.990   1.902 -0.1008 -0.3753 -0.2596
 9468TIP3    H152599   3.002   2.974   1.808 -1.0138 -0.1353 -0.2817
 9468TIP3    H252600   3.027   2.905   1.940  1.9521 -0.1274 -0.7654
 9469TIP3   OH252601   6.238   2.722   0.827 -0.0191  0.2912 -0.1316
 9469TIP3    H152602   6.233   2.764   0.913  0.2104 -0.0404  0.0477
 9469TIP3    H252603   6.326   2.742   0.796  0.1539 -0.1970  0.0313
 9470TIP3   OH252604   5.864   0.653   2.108  0.2475 -0.4674 -0.4590
 9470TIP3    H152605   5.770   0.643   2.124  0.2695 -1.2191 -0.7543
 9470TIP3    H252606   5.877   0.615   2.021  0.8031 -0.2353 -0.4777
 9471TIP3   OH252607   1.557   1.032   1.826 -0.0860  0.7716 -0.1511
 9471TIP3    H152608   1.650   1.042   1.845  0.2831 -0.6907 -1.0302
 9471TIP3    H252609   1.533   0.948   1.866 -0.7627  0.6180 -0.8599
 9472TIP3   OH252610   6.476   4.089   0.910 -0.2156  0.0550 -0.7020
 9472TIP3    H152611   6.484   4.042   0.993  1.6457  1.8141  0.1953
 9472TIP3    H252612   6.415   4.161   0.928  0.1158  0.3873 -0.8964
 9473TIP3   OH252613   3.481   3.549   2.180 -0.2202  0.9873  0.3289
 9473TIP3    H152614   3.394   3.525   2.150 -0.5762  0.0683  1.9720
 9473TIP3    H252615   3.507   3.477   2.237  1.3848  1.5273  0.3306
 9474TIP3   OH252616   0.539   0.312   2.202  0.1213 -0.0587 -0.4152
 9474TIP3    H152617   0.561   0.249   2.271 -0.7144 -0.2436 -0.3008
 9474TIP3    H252618   0.519   0.393   2.249  2.8376  0.8369 -0.6538
 9475TIP3   OH252619   6.491   6.332   1.232 -0.7214 -0.1051 -0.5210
 9475TIP3    H152620   6.454   6.284   1.305 -2.0963 -1.7460 -2.1847
 9475TIP3    H252621   6.444   6.416   1.231 -1.7894 -0.6912 -0.4211
 9476TIP3   OH252622   2.053   3.760   1.476 -0.0566 -0.0408  0.2135
 9476TIP3    H152623   1.971   3.737   1.519 -1.1677  1.2787 -1.0860
 9476TIP3    H252624   2.094   3.824   1.533 -1.3677  1.4671 -0.4581
 9477TIP3   OH252625   0.073   4.285   0.880  0.4908  0.4595 -0.1338
 9477TIP3    H152626   0.049   4.316   0.793 -1.6387 -1.5831 -0.3786
 9477TIP3    H252627   0.156   4.239   0.868 -0.4012 -0.9143 -1.4300
 9478TIP3   OH252628   5.663   0.680   1.742 -0.4086  0.1331 -0.0524
 9478TIP3    H152629   5.623   0.611   1.795 -1.5606  0.2679 -0.6950
 9478TIP3    H252630   5.748   0.696   1.783  0.0234 -1.8592 -0.0620
 9479TIP3   OH252631   3.864   0.233   2.913  0.0528 -0.1403  0.1036
 9479TIP3    H152632   3.772   0.210   2.927  0.2282 -1.4558 -0.7627
 9479TIP3    H252633   3.910   0.149   2.915  1.2455  0.4973  0.5073
 9480TIP3   OH252634   2.586   1.546   2.585  0.3595  0.3847  0.4353
 9480TIP3    H152635   2.584   1.629   2.632  1.0851 -0.7693  2.6651
 9480TIP3    H252636   2.525   1.558   2.512  0.4028  2.8226  0.7258
 9481TIP3   OH252637   2.881   3.438   0.911 -0.1343 -0.3538  0.2892
 9481TIP3    H152638   2.793   3.403   0.924 -1.1944  1.9705 -0.0462
 9481TIP3    H252639   2.891   3.503   0.981  1.2856 -0.5235  0.2648
 9482TIP3   OH252640   7.040   5.629   1.747  0.4627 -0.6205  0.4004
 9482TIP3    H152641   6.961   5.676   1.772  0.4538 -0.9525  1.0098
 9482TIP3    H252642   7.112   5.689   1.767  0.3431 -0.0686 -0.7394
 9483TIP3   OH252643   2.032   7.343   2.428  0.1077  0.3005  0.2399
 9483TIP3    H152644   2.034   7.320   2.521  1.1745 -1.4832 -0.1826
 9483TIP3    H252645   1.971   7.280   2.389 -1.6315  2.0753 -0.0646
 9484TIP3   OH252646   4.021   6.394   2.455 -0.2001 -0.5628  0.4282
 9484TIP3    H152647   4.061   6.469   2.499 -1.2558  0.9429 -1.0700
 9484TIP3    H252648   3.972   6.349   2.525 -1.1590  1.2750  0.9905
 9485TIP3   OH252649   5.926   1.813   0.502  0.2606 -0.1574 -0.0575
 9485TIP3    H152650   5.886   1.897   0.523 -0.4077 -0.7345  1.1139
 9485TIP3    H252651   5.865   1.770   0.442 -1.8469 -1.6683  2.8642
 9486TIP3   OH252652   7.444   3.128   3.301 -0.4991 -0.4656 -0.5064
 9486TIP3    H152653   7.366   3.179   3.276  0.4059  0.8738 -0.7281
 9486TIP3    H252654   7.517   3.187   3.284  0.4722 -1.1176  1.1235
 9487TIP3   OH252655   3.531   7.678   0.900  0.2192  0.0820 -0.2421
 9487TIP3    H152656   3.534   7.657   0.993 -0.4131 -2.7367 -0.7520
 9487TIP3    H252657   3.473   7.753   0.894 -1.3031 -0.8747  1.5007
 9488TIP3   OH252658   7.124   6.614   0.999  0.4227  0.3959  0.0561
 9488TIP3    H152659   7.103   6.706   0.985 -1.5748  0.1166  0.8843
 9488TIP3    H252660   7.173   6.588   0.921 -0.3623  1.7626 -0.9230
 9489TIP3   OH252661   6.677   4.758   2.523 -0.5799 -0.2356  0.3588
 9489TIP3    H152662   6.620   4.805   2.462  0.3830 -0.3732 -0.6728
 9489TIP3    H252663   6.751   4.730   2.470  1.3181  1.4072  2.0063
 9490TIP3   OH252664   4.026   6.732   2.855 -0.0973  0.3201  0.5598
 9490TIP3    H152665   4.018   6.669   2.927  1.2696 -0.5823 -0.0326
 9490TIP3    H252666   4.098   6.789   2.881 -0.0890  0.4528  0.2533
 9491TIP3   OH252667   3.303   3.487   3.069  0.3614  0.1768 -0.1348
 9491TIP3    H152668   3.385   3.503   3.116  0.7497 -0.4053 -0.5925
 9491TIP3    H252669   3.329   3.480   2.977  0.1989 -2.5233 -0.0598
 9492TIP3   OH252670   6.876   5.502   0.893 -0.0645  0.3799  0.4274
 9492TIP3    H152671   6.804   5.513   0.831  1.7265  2.4358 -1.4654
 9492TIP3    H252672   6.857   5.564   0.964 -0.1089  1.0878 -0.1842
 9493TIP3   OH252673   2.959   5.587   2.451 -0.0197 -0.1272 -0.2700
 9493TIP3    H152674   3.044   5.585   2.495  1.1387  2.1467 -2.1633
 9493TIP3    H252675   2.900   5.628   2.514  0.9809  0.7398  0.1292
 9494TIP3   OH252676   7.109   1.687   2.443 -0.1583 -0.1617  0.2444
 9494TIP3    H152677   7.041   1.620   2.452  0.3662 -0.5504  1.5141
 9494TIP3    H252678   7.069   1.767   2.475  0.0416 -0.4506  1.2653
 9495TIP3   OH252679   2.860   3.702   1.890  0.3003  0.4225 -0.0371
 9495TIP3    H152680   2.786   3.684   1.833 -0.4977  1.7811  0.5001
 9495TIP3    H252681   2.890   3.616   1.921 -0.1504 -0.2231 -1.3584
 9496TIP3   OH252682   3.601   4.470   2.311 -0.7234  0.1413 -0.4288
 9496TIP3    H152683   3.549   4.405   2.265 -1.5895  1.4417 -1.3344
 9496TIP3    H252684   3.641   4.523   2.242  0.1050  0.4874  0.2856
 9497TIP3   OH252685   2.782   6.507   2.285  0.6467  0.0723  0.3440
 9497TIP3    H152686   2.708   6.445   2.279  1.8829 -1.4740  0.2798
 9497TIP3    H252687   2.753   6.572   2.348 -2.2504  1.6885 -2.3404
 9498TIP3   OH252688   3.004   2.622   2.197  0.6430  0.2344 -0.0319
 9498TIP3    H152689   3.051   2.541   2.215 -0.2918 -1.0368 -2.7188
 9498TIP3    H252690   3.038   2.651   2.112 -0.5041  1.5361 -0.0881
 9499TIP3   OH252691   2.534   6.501   2.680  0.1305  0.2641  0.1868
 9499TIP3    H152692   2.512   6.506   2.587 -2.6815 -0.7372  0.6983
 9499TIP3    H252693   2.510   6.586   2.716  0.9064  0.5359  0.0823
 9500TIP3   OH252694   0.932   3.263   1.642 -0.2009 -0.4658  0.5487
 9500TIP3    H152695   1.009   3.215   1.674  1.0223  0.3936 -0.9754
 9500TIP3    H252696   0.955   3.355   1.652 -0.3124 -0.1708 -1.4154
 9501TIP3   OH252697   2.667   0.277   1.770 -0.0283 -0.6285 -1.0323
 9501TIP3    H152698   2.601   0.346   1.761 -0.1955 -0.4221  1.2791
 9501TIP3    H252699   2.725   0.307   1.840 -0.0690 -2.7748  0.0000
 9502TIP3   OH252700   2.713   4.578   0.527  0.4119  0.1242 -0.1512
 9502TIP3    H152701   2.658   4.554   0.601  0.1999  2.6363  0.5855
 9502TIP3    H252702   2.664   4.549   0.450  0.9170 -3.0843  0.5874
 9503TIP3   OH252703   3.063   4.469   3.275  0.0719 -0.0392  0.3077
 9503TIP3    H152704   3.051   4.377   3.250  0.0564 -0.1131  0.5852
 9503TIP3    H252705   2.973   4.502   3.285  0.0644  0.2310 -0.6032
 9504TIP3   OH252706   3.877   5.424   0.448 -0.7169  0.0493 -0.5509
 9504TIP3    H152707   3.900   5.331   0.449 -0.5688  0.0606  1.2757
 9504TIP3    H252708   3.788   5.426   0.413 -0.8620 -0.8333 -0.2567
 9505TIP3   OH252709   6.338   5.755   2.458  0.2349 -0.4637  0.6208
 9505TIP3    H152710   6.367   5.843   2.432 -0.2226 -0.4702  0.0612
 9505TIP3    H252711   6.245   5.754   2.437 -0.0225 -0.6876  1.7195
 9506TIP3   OH252712   4.577   3.740   3.135  0.0362  0.4859  1.0036
 9506TIP3    H152713   4.667   3.737   3.167  0.2660 -1.4410  0.2883
 9506TIP3    H252714   4.572   3.670   3.070 -1.9969  0.5319  1.0510
 9507TIP3   OH252715   6.717   7.201   1.190 -0.0739  0.3321  0.1474
 9507TIP3    H152716   6.729   7.294   1.173  1.1367  0.0504 -0.6594
 9507TIP3    H252717   6.684   7.165   1.108  1.9576 -0.3618 -0.4166
 9508TIP3   OH252718   1.914   3.357   0.680 -0.4351 -0.3053  0.2695
 9508TIP3    H152719   1.855   3.432   0.693 -0.5554 -0.4071  0.3118
 9508TIP3    H252720   1.861   3.294   0.631 -1.1752 -1.3996  2.3697
 9509TIP3   OH252721   2.585   3.463   1.043 -0.1477  0.1890  0.3464
 9509TIP3    H152722   2.655   3.432   1.100  0.1767  0.1112 -0.0891
 9509TIP3    H252723   2.516   3.398   1.053  0.2341 -0.2774  0.0137
 9510TIP3   OH252724   0.559   2.404   3.080 -0.0636 -0.3334 -0.4594
 9510TIP3    H152725   0.597   2.444   3.001  0.7797 -0.8451 -0.3287
 9510TIP3    H252726   0.633   2.362   3.123 -0.1517  1.3714  1.5155
 9511TIP3   OH252727   4.566   3.078   3.436 -0.4549  0.5220 -0.5048
 9511TIP3    H152728   4.593   3.011   3.498  0.1103 -0.5420 -1.8345
 9511TIP3    H252729   4.562   3.158   3.487 -2.0296 -0.6515  1.3623
 9512TIP3   OH252730   2.158   2.136   1.664 -0.0940 -0.4664 -0.0982
 9512TIP3    H152731   2.249   2.163   1.680  0.2569 -1.0289 -1.0592
 9512TIP3    H252732   2.110   2.218   1.658  0.3883 -0.1528  0.2185
 9513TIP3   OH252733   7.632   4.901   2.290 -0.1190 -0.1463  0.8270
 9513TIP3    H152734   7.663   4.811   2.282  0.8130  0.1269  1.2033
 9513TIP3    H252735   7.711   4.952   2.309 -0.1709  1.1324 -1.8836
 9514TIP3   OH252736   0.717   6.946   3.782 -0.1901  0.1050  0.5032
 9514TIP3    H152737   0.731   7.011   3.713  1.4511  1.8676  2.3411
 9514TIP3    H252738   0.767   6.869   3.754 -1.2517 -0.0091 -1.1994
 9515TIP3   OH252739   0.467   7.102   0.802 -0.2808 -0.0383  0.0593
 9515TIP3    H152740   0.549   7.072   0.763 -0.6544  0.7910 -1.4576
 9515TIP3    H252741   0.439   7.174   0.746 -0.6759  1.5021  2.1183
 9516TIP3   OH252742   1.259   1.890   0.761 -0.0122  0.1328  0.1398
 9516TIP3    H152743   1.168   1.861   0.757 -0.2710  0.9655 -0.3440
 9516TIP3    H252744   1.255   1.984   0.744  0.9422  0.1722  0.0624
 9517TIP3   OH252745   7.313   2.587   1.603 -0.0096 -0.3961  0.0776
 9517TIP3    H152746   7.270   2.576   1.687  1.2306 -0.2304  0.7682
 9517TIP3    H252747   7.273   2.665   1.565 -0.7277 -0.5975  0.4071
 9518TIP3   OH252748   5.089   4.414   1.813 -0.1831  0.0346  0.6303
 9518TIP3    H152749   5.141   4.355   1.758  0.4439  1.2866 -0.1826
 9518TIP3    H252750   4.999   4.397   1.787 -0.3203 -2.5798  2.4714
 9519TIP3   OH252751   3.597   6.420   2.083  0.0580 -0.1331  0.5506
 9519TIP3    H152752   3.520   6.373   2.117 -0.8206  0.2871 -0.7685
 9519TIP3    H252753   3.627   6.472   2.157 -0.5730 -0.7512  1.2676
 9520TIP3   OH252754   4.842   6.910   0.971  0.1989  0.4165  1.0707
 9520TIP3    H152755   4.860   6.899   0.877  0.6731 -0.5016  1.2586
 9520TIP3    H252756   4.778   6.981   0.974  0.1464  0.4403  0.0456
 9521TIP3   OH252757   0.085   2.854   1.235 -0.4248 -0.1078  0.1416
 9521TIP3    H152758   0.035   2.869   1.315 -2.4642 -1.8282 -0.7403
 9521TIP3    H252759   0.152   2.791   1.261  0.3556  1.0149  0.9617
 9522TIP3   OH252760   3.084   3.087   2.350 -0.5490  0.5779 -0.2661
 9522TIP3    H152761   3.116   3.081   2.260  0.1114  0.4150 -0.0261
 9522TIP3    H252762   2.989   3.100   2.342 -0.4847  0.5935 -0.9815
 9523TIP3   OH252763   0.019   4.926   0.642 -0.0086  0.0150  0.0825
 9523TIP3    H152764   0.040   5.012   0.677  0.8342 -0.0978 -0.1075
 9523TIP3    H252765  -0.050   4.941   0.578 -1.0481  0.3208  1.2560
 9524TIP3   OH252766   3.715   7.031   2.756  0.1654 -0.0549 -0.1154
 9524TIP3    H152767   3.781   7.065   2.696  0.2665  0.2070  0.1377
 9524TIP3    H252768   3.710   7.098   2.825 -0.8644  0.2732 -0.4874
 9525TIP3   OH252769   6.748   5.756   0.626 -0.2092  0.3298 -0.5838
 9525TIP3    H152770   6.658   5.790   0.622 -0.7598 -0.7348  1.3473
 9525TIP3    H252771   6.738   5.661   0.628  0.7772  0.2133  1.7992
 9526TIP3   OH252772   6.996   3.490   2.359  0.0953  0.1550  0.4216
 9526TIP3    H152773   6.987   3.436   2.281 -1.8429  0.3547  0.4621
 9526TIP3    H252774   7.036   3.431   2.424  2.5984  0.2476 -0.8876
 9527TIP3   OH252775   1.246   2.302   1.687 -0.2036 -0.2771  0.6633
 9527TIP3    H152776   1.305   2.376   1.673 -0.2018 -0.4103 -0.0300
 9527TIP3    H252777   1.159   2.342   1.690 -0.6611 -0.5648 -3.5053
 9528TIP3   OH252778   1.326   7.558   0.837 -0.3219  0.3637 -0.2068
 9528TIP3    H152779   1.278   7.483   0.870  0.0634 -0.2976 -1.0858
 9528TIP3    H252780   1.321   7.624   0.906  0.1561 -0.8267  0.9964
 9529TIP3   OH252781   4.682   2.915   0.852 -0.8160  0.6187 -0.5516
 9529TIP3    H152782   4.676   2.863   0.932  1.3835 -0.2064 -0.8590
 9529TIP3    H252783   4.617   2.877   0.793  0.2305 -1.3117 -0.5014
 9530TIP3   OH252784   2.524   0.505   1.804  0.2487  0.6535  0.1220
 9530TIP3    H152785   2.523   0.594   1.771 -0.9883  0.1280 -1.3959
 9530TIP3    H252786   2.468   0.507   1.882  0.5312  1.2632  0.3106
 9531TIP3   OH252787   7.663   2.657   2.317  0.5283 -0.2219 -0.0026
 9531TIP3    H152788   7.642   2.574   2.275  2.2592 -1.2925  1.1388
 9531TIP3    H252789   7.697   2.712   2.246 -2.6666  0.4043 -1.2230
 9532TIP3   OH252790   5.896   5.977   0.836 -0.0493 -0.5019 -0.0951
 9532TIP3    H152791   5.933   5.949   0.919 -0.3095  0.0880  0.2250
 9532TIP3    H252792   5.806   6.002   0.856 -0.6370 -1.8946 -0.8593
 9533TIP3   OH252793   2.993   5.359   2.862  0.4094 -0.5053  0.1117
 9533TIP3    H152794   2.898   5.351   2.859  0.4669 -0.8236 -1.8781
 9533TIP3    H252795   3.009   5.425   2.930 -1.1283 -1.4183  1.4224
 9534TIP3   OH252796   5.196   1.226   2.223 -0.2364 -0.4060 -0.0368
 9534TIP3    H152797   5.183   1.321   2.229 -0.3748 -0.3435 -1.1460
 9534TIP3    H252798   5.285   1.212   2.256 -0.0881  0.1508 -0.1816
 9535TIP3   OH252799   4.423   0.370   2.149 -0.0956  0.1652  0.0143
 9535TIP3    H152800   4.362   0.428   2.195  0.7343  1.5253 -0.5333
 9535TIP3    H252801   4.470   0.428   2.089  1.4008 -0.9228  0.0747
 9536TIP3   OH252802   3.120   0.321   1.293  0.6390  0.4646 -0.0406
 9536TIP3    H152803   3.069   0.400   1.274  1.4494  1.2019  0.7917
 9536TIP3    H252804   3.140   0.284   1.207 -0.1189  0.9120 -0.4227
 9537TIP3   OH252805   0.503   1.651   3.453  0.1674  0.2847  0.9129
 9537TIP3    H152806   0.431   1.692   3.406 -0.6756 -1.5700  0.4977
 9537TIP3    H252807   0.465   1.622   3.536  0.3210 -0.9636  0.5711
 9538TIP3   OH252808   3.830   6.612   0.855 -0.2080  0.1433 -0.1403
 9538TIP3    H152809   3.826   6.534   0.910 -1.5378  1.1352  1.2732
 9538TIP3    H252810   3.898   6.593   0.790  0.3327 -1.6950  0.8980
 9539TIP3   OH252811   2.394   1.358   2.645 -0.7898 -0.0138  0.0412
 9539TIP3    H152812   2.350   1.402   2.571 -1.5702 -1.5533 -0.4570
 9539TIP3    H252813   2.476   1.406   2.656 -0.7286  0.3684 -1.7319
 9540TIP3   OH252814   6.976   0.828   2.508 -0.0166  0.2753  0.7611
 9540TIP3    H152815   7.055   0.840   2.455 -0.1391 -1.2627  0.1695
 9540TIP3    H252816   6.934   0.751   2.470 -0.1348 -0.8722  3.0580
 9541TIP3   OH252817   7.186   2.883   0.795 -0.4036 -0.2562 -0.3129
 9541TIP3    H152818   7.273   2.870   0.757 -1.4028 -1.5563 -2.3454
 9541TIP3    H252819   7.155   2.795   0.816 -0.9222  0.2531  1.1552
 9542TIP3   OH252820   4.941   6.186   1.269 -0.4263  0.7072  0.1843
 9542TIP3    H152821   4.950   6.279   1.291 -0.9256  0.6112  0.8371
 9542TIP3    H252822   4.941   6.142   1.354  0.2338  0.0646 -0.1338
 9543TIP3   OH252823   1.667   0.861   3.072  0.2063  0.0659  0.7495
 9543TIP3    H152824   1.595   0.923   3.086 -0.1544  0.2879 -1.7223
 9543TIP3    H252825   1.642   0.784   3.122 -1.1328  0.6029  0.9583
 9544TIP3   OH252826   3.956   5.789   2.530 -0.0444  0.1146 -0.1988
 9544TIP3    H152827   3.863   5.779   2.548  0.0943 -1.6340 -0.3621
 9544TIP3    H252828   3.998   5.788   2.616 -0.1554  0.9023 -0.1251
 9545TIP3   OH252829   5.748   4.595   0.823  0.5234  0.1710 -0.7514
 9545TIP3    H152830   5.781   4.649   0.894  2.4006 -0.0815 -1.3756
 9545TIP3    H252831   5.825   4.577   0.769 -0.1758 -2.4652 -1.0018
 9546TIP3   OH252832   0.003   5.112   1.764  0.1172 -0.1795  0.1316
 9546TIP3    H152833   0.096   5.122   1.744 -0.4417 -0.6689 -3.3192
 9546TIP3    H252834  -0.006   5.021   1.792  0.6787 -0.0797  0.6538
 9547TIP3   OH252835   6.498   2.806   2.812  0.6649 -0.2281  0.6915
 9547TIP3    H152836   6.589   2.811   2.782  0.0068  0.9781 -1.3103
 9547TIP3    H252837   6.487   2.882   2.869  1.0319 -0.6648  1.3544
 9548TIP3   OH252838   5.523   5.366   1.276  0.5331 -0.4054 -0.6104
 9548TIP3    H152839   5.539   5.440   1.335 -0.4534 -0.3632 -0.3813
 9548TIP3    H252840   5.459   5.312   1.322  1.3207 -1.4667 -0.7281
 9549TIP3   OH252841   2.233   5.221   1.335 -0.4653  0.2854  0.1889
 9549TIP3    H152842   2.221   5.194   1.243 -0.4853  0.5633  0.1104
 9549TIP3    H252843   2.146   5.217   1.373 -0.3321 -0.6468  0.4204
 9550TIP3   OH252844   6.332   6.618   0.608 -0.0400 -0.0957 -0.0389
 9550TIP3    H152845   6.271   6.675   0.560 -1.3438 -0.9523  0.5419
 9550TIP3    H252846   6.407   6.674   0.627 -1.2233  1.4192  0.3889
 9551TIP3   OH252847   6.077   7.383   2.409 -0.1274 -0.0122 -0.1740
 9551TIP3    H152848   6.164   7.405   2.440 -1.0322  0.9959  1.8174
 9551TIP3    H252849   6.091   7.345   2.322  2.2655  0.0769  0.1246
 9552TIP3   OH252850   6.101   0.224   0.946 -0.6919 -0.2761  0.1409
 9552TIP3    H152851   6.172   0.225   1.010  0.6007 -0.5900 -1.2374
 9552TIP3    H252852   6.110   0.140   0.902 -1.2088  0.1589 -0.8199
 9553TIP3   OH252853   7.460   0.631   1.631 -0.3594  0.4494  0.0509
 9553TIP3    H152854   7.486   0.719   1.656  0.2423 -0.1022  1.4904
 9553TIP3    H252855   7.542   0.582   1.626 -0.8241 -0.7267  2.2679
 9554TIP3   OH252856   0.830   4.331   3.113  0.2148  0.8109 -0.1686
 9554TIP3    H152857   0.867   4.256   3.068  1.5982  2.1048 -1.3188
 9554TIP3    H252858   0.901   4.361   3.171 -0.6699  0.6434  1.0339
 9555TIP3   OH252859   4.046   1.982   1.437 -0.1150  0.4020 -0.0874
 9555TIP3    H152860   4.086   1.992   1.351 -3.7509  0.4337 -1.9539
 9555TIP3    H252861   4.044   2.071   1.473  1.8501  0.3215  0.3477
 9556TIP3   OH252862   5.089   1.984   0.518 -0.1054 -0.0636 -0.0405
 9556TIP3    H152863   5.134   1.903   0.495  0.2961  0.2703 -0.4265
 9556TIP3    H252864   5.002   1.975   0.478  0.6475  0.6075 -1.9366
 9557TIP3   OH252865   0.190   2.373   1.882 -0.2331  0.3532 -0.3305
 9557TIP3    H152866   0.165   2.329   1.963  1.4173  0.7680  0.4489
 9557TIP3    H252867   0.152   2.460   1.889  1.5995  1.1315  1.0466
 9558TIP3   OH252868   0.962   0.748   0.587 -0.3150 -0.0228  0.0337
 9558TIP3    H152869   0.871   0.736   0.615  0.1776 -0.7779  1.3875
 9558TIP3    H252870   0.996   0.817   0.643  0.6963 -1.5857  1.4634
 9559TIP3   OH252871   0.247   6.280   2.867 -0.2205  0.0210  0.2605
 9559TIP3    H152872   0.213   6.278   2.956 -0.4175 -1.8968  0.1819
 9559TIP3    H252873   0.338   6.249   2.876 -0.0073  0.5218 -0.1217
 9560TIP3   OH252874   1.689   2.410   0.671  0.0797 -0.0628  0.0532
 9560TIP3    H152875   1.665   2.500   0.650  0.4708  0.2661  0.9299
 9560TIP3    H252876   1.784   2.408   0.664 -0.0230 -0.8736 -1.6081
 9561TIP3   OH252877   1.016   6.545   2.085  0.1595  0.1964  0.3640
 9561TIP3    H152878   1.098   6.497   2.077 -0.3313 -0.4708 -0.8577
 9561TIP3    H252879   0.996   6.575   1.996 -1.1728 -0.0720  0.5499
 9562TIP3   OH252880   1.060   4.005   1.549  0.2553 -0.0432  0.2392
 9562TIP3    H152881   1.111   3.999   1.468 -1.7807 -0.6998 -1.0790
 9562TIP3    H252882   1.098   3.938   1.606  1.2356 -0.0888 -0.4396
 9563TIP3   OH252883   0.814   7.165   1.033  0.0812  0.0100 -0.2909
 9563TIP3    H152884   0.816   7.140   1.125 -0.6084 -2.3740 -0.8481
 9563TIP3    H252885   0.840   7.086   0.986  2.1803  1.6595 -2.1223
 9564TIP3   OH252886   3.874   6.359   0.952  0.2987  0.3256 -0.0705
 9564TIP3    H152887   3.943   6.301   0.920  0.2549  0.2800 -0.0826
 9564TIP3    H252888   3.841   6.315   1.031 -1.2304 -0.7846 -1.2691
 9565TIP3   OH252889   3.590   7.473   2.719 -0.2299  0.4472 -0.5053
 9565TIP3    H152890   3.572   7.449   2.810  0.2050  0.2681 -0.4646
 9565TIP3    H252891   3.546   7.405   2.667 -0.0311  0.2534 -0.4194
 9566TIP3   OH252892   1.281   0.549   2.715  0.1668  0.2749  0.0407
 9566TIP3    H152893   1.302   0.546   2.621 -0.1401 -0.7445 -0.0046
 9566TIP3    H252894   1.284   0.643   2.737  0.8976  0.4731 -0.8298
 9567TIP3   OH252895   1.428   7.464   1.647 -0.0680  0.4408 -0.2333
 9567TIP3    H152896   1.490   7.440   1.716 -1.0857 -0.1404  0.5223
 9567TIP3    H252897   1.381   7.540   1.683 -2.7019 -1.6672  1.1290
 9568TIP3   OH252898   1.255   4.972   1.333  0.0704  0.2448 -0.5540
 9568TIP3    H152899   1.183   4.937   1.279  0.4100 -0.5025 -0.5391
 9568TIP3    H252900   1.334   4.954   1.282  0.5185 -1.5633  0.6830
 9569TIP3   OH252901   0.437   4.666   0.599 -0.1109  0.2173 -0.0493
 9569TIP3    H152902   0.347   4.644   0.620  0.7083 -0.9035  2.7737
 9569TIP3    H252903   0.489   4.598   0.642  2.1769  2.5140  1.0585
 9570TIP3   OH252904   0.822   0.712   2.250  0.0796 -0.0749 -0.4607
 9570TIP3    H152905   0.861   0.627   2.268  1.6008  0.7271  0.2115
 9570TIP3    H252906   0.896   0.772   2.244 -0.9802  1.2923 -0.4972
 9571TIP3   OH252907   2.163   2.734   1.103  0.2002 -0.2536 -0.6230
 9571TIP3    H152908   2.254   2.706   1.099 -0.2788 -1.7583 -1.7428
 9571TIP3    H252909   2.130   2.724   1.014 -1.4148 -1.0021  0.0119
 9572TIP3   OH252910   5.246   3.698   1.574 -0.0637 -0.2620  0.3204
 9572TIP3    H152911   5.210   3.781   1.542  1.3536  0.9340  1.6744
 9572TIP3    H252912   5.172   3.637   1.569 -0.5949  0.4609 -2.6807
 9573TIP3   OH252913   0.395   5.779   0.805  0.3416 -0.3963 -0.6570
 9573TIP3    H152914   0.344   5.712   0.851  1.7280 -1.6740 -0.8651
 9573TIP3    H252915   0.332   5.822   0.748 -0.2514 -3.2246 -2.3801
 9574TIP3   OH252916   0.358   2.056   2.264  0.1247  0.1937  0.0016
 9574TIP3    H152917   0.385   2.142   2.295 -4.8472  0.9580  3.3999
 9574TIP3    H252918   0.337   2.070   2.171  0.7963  2.2130  0.1035
 9575TIP3   OH252919   5.805   7.501   2.795  0.1332  0.2502 -0.1264
 9575TIP3    H152920   5.896   7.529   2.808  0.7991 -1.1057 -1.5332
 9575TIP3    H252921   5.767   7.568   2.739  0.5722  0.3088 -0.3601
 9576TIP3   OH252922   2.156   6.317   1.422  0.1705 -0.2646 -0.7195
 9576TIP3    H152923   2.202   6.398   1.446 -0.5886  0.2747 -1.0571
 9576TIP3    H252924   2.221   6.266   1.376  1.1720 -0.5889  0.9570
 9577TIP3   OH252925   3.785   5.541   2.498 -0.2456 -0.0679  0.3359
 9577TIP3    H152926   3.752   5.610   2.440 -1.5418 -0.7742  0.2052
 9577TIP3    H252927   3.865   5.511   2.455 -0.0769  0.8205 -0.0004
 9578TIP3   OH252928   2.123   4.326   0.447 -0.2044  0.0729  0.0924
 9578TIP3    H152929   2.150   4.369   0.529  0.5538 -1.4396  0.6754
 9578TIP3    H252930   2.042   4.281   0.469  0.6046 -1.2925  0.3646
 9579TIP3   OH252931   2.433   6.461   3.097 -0.3587 -0.0821  0.2335
 9579TIP3    H152932   2.470   6.513   3.168 -0.1692 -0.8514  0.7075
 9579TIP3    H252933   2.478   6.376   3.103  0.1144  0.0259 -1.1761
 9580TIP3   OH252934   1.989   0.468   3.491  0.6203 -0.4029  0.4762
 9580TIP3    H152935   1.949   0.534   3.434  0.6971 -0.4897  0.3203
 9580TIP3    H252936   2.035   0.519   3.558 -0.0099 -0.3089  0.8403
 9581TIP3   OH252937   6.804   5.053   1.182 -0.3906 -0.2754 -0.0805
 9581TIP3    H152938   6.835   5.091   1.100  1.8347 -0.9662  0.3712
 9581TIP3    H252939   6.723   5.100   1.201 -0.7324  0.2172 -2.4160
 9582TIP3   OH252940   2.423   5.868   1.008  0.1414 -0.7803 -0.2285
 9582TIP3    H152941   2.427   5.906   1.096  0.5499 -1.0454 -0.1319
 9582TIP3    H252942   2.376   5.933   0.956  0.2800 -0.4285  0.0835
 9583TIP3   OH252943   0.690   0.685   2.797  0.4256  0.0094 -0.9023
 9583TIP3    H152944   0.717   0.648   2.881 -2.2935  0.3166  0.2093
 9583TIP3    H252945   0.736   0.768   2.791  1.5552 -0.5459 -0.3120
 9584TIP3   OH252946   0.955   0.147   2.180 -0.2620  0.1261 -0.3372
 9584TIP3    H152947   0.908   0.098   2.248  1.0151  1.2017  1.4348
 9584TIP3    H252948   1.044   0.113   2.184  0.5552  2.2218  0.6623
 9585TIP3   OH252949   1.754   5.396   2.730  0.4083 -0.2277 -0.6456
 9585TIP3    H152950   1.748   5.310   2.771  1.2806 -0.0258 -0.0753
 9585TIP3    H252951   1.745   5.458   2.802  2.1564  0.1265 -0.7030
 9586TIP3   OH252952   6.201   6.900   0.799  0.2424 -0.6689  0.0706
 9586TIP3    H152953   6.152   6.976   0.768  1.5518  0.8830  1.5798
 9586TIP3    H252954   6.169   6.827   0.745 -1.0314  0.9304 -1.4692
 9587TIP3   OH252955   2.515   1.933   1.132  0.3827  0.1148  0.0894
 9587TIP3    H152956   2.424   1.911   1.116  0.0414  0.7178  1.1081
 9587TIP3    H252957   2.523   1.937   1.228  2.0780 -2.3819  0.1366
 9588TIP3   OH252958   2.729   2.833   1.975 -0.2620 -0.3608  0.5655
 9588TIP3    H152959   2.705   2.780   1.899 -0.6977  1.0138 -0.3075
 9588TIP3    H252960   2.820   2.858   1.959 -0.3288 -0.1396  0.5157
 9589TIP3   OH252961   4.426   2.623   2.234 -0.3138  0.3680 -0.4018
 9589TIP3    H152962   4.520   2.623   2.248 -0.3727 -0.9916  0.1661
 9589TIP3    H252963   4.414   2.665   2.149  0.8035  0.4874 -0.5130
 9590TIP3   OH252964   4.600   0.190   2.564  0.2722  0.2564 -0.3621
 9590TIP3    H152965   4.563   0.191   2.475  0.4649  2.7165 -0.4680
 9590TIP3    H252966   4.675   0.249   2.559 -0.1246  0.9844  1.6042
 9591TIP3   OH252967   4.861   1.754   1.223 -0.1705  0.4459 -0.1901
 9591TIP3    H152968   4.877   1.839   1.183  0.4678  0.9470  1.0889
 9591TIP3    H252969   4.936   1.739   1.279 -1.4794  0.2419  1.5936
 9592TIP3   OH252970   0.266   7.205   1.686  0.3619 -0.7583  0.5401
 9592TIP3    H152971   0.221   7.250   1.614 -0.4262 -2.4481 -0.0740
 9592TIP3    H252972   0.248   7.259   1.763  1.4910  1.2613 -0.5467
 9593TIP3   OH252973   2.632   5.402   1.387  0.1419 -0.1960 -0.2165
 9593TIP3    H152974   2.704   5.347   1.418  0.1790  0.2219  0.4764
 9593TIP3    H252975   2.675   5.474   1.341  0.2215  0.3630  0.6919
 9594TIP3   OH252976   4.800   0.454   1.690 -0.2759  0.2377  0.0383
 9594TIP3    H152977   4.801   0.358   1.693 -0.3984  0.2143 -0.4702
 9594TIP3    H252978   4.841   0.481   1.772  0.7229 -0.2626 -0.2743
 9595TIP3   OH252979   7.001   3.405   1.766  0.2575  0.0288  0.0131
 9595TIP3    H152980   7.001   3.500   1.768 -1.2191  0.1059 -1.5660
 9595TIP3    H252981   7.081   3.381   1.719  0.5027  0.4762  0.1980
 9596TIP3   OH252982   5.294   3.965   2.592  0.0490 -0.1076  0.2695
 9596TIP3    H152983   5.329   3.895   2.647  0.0652 -1.3173 -1.2337
 9596TIP3    H252984   5.226   4.006   2.645  0.6053 -0.7027  1.4827
 9597TIP3   OH252985   6.339   2.546   2.122  0.3586  0.2513  0.2320
 9597TIP3    H152986   6.272   2.611   2.100 -0.7217 -1.5239 -2.1996
 9597TIP3    H252987   6.405   2.556   2.053  1.0114 -0.1477  0.7939
 9598TIP3   OH252988   5.389   7.331   2.644  0.2489 -0.2900  0.2345
 9598TIP3    H152989   5.399   7.391   2.570 -2.9144 -1.3756 -1.2488
 9598TIP3    H252990   5.389   7.388   2.721 -2.3424  1.6954 -1.0791
 9599TIP3   OH252991   5.247   4.067   1.258 -0.4163  0.0497 -0.0410
 9599TIP3    H152992   5.329   4.092   1.299  0.2830 -1.5049 -0.4278
 9599TIP3    H252993   5.191   4.144   1.267  0.6013  0.6477  1.4562
 9600TIP3   OH252994   6.303   1.134   1.244  0.3492  0.0767 -0.3118
 9600TIP3    H152995   6.237   1.175   1.187  0.5492  0.1465 -0.4948
 9600TIP3    H252996   6.364   1.205   1.264  1.6026 -0.4843 -1.9460
 9601TIP3   OH252997   3.504   0.447   0.695  0.0526  0.5619  0.2912
 9601TIP3    H152998   3.549   0.366   0.720 -0.9666 -0.1945 -0.2949
 9601TIP3    H252999   3.576   0.507   0.673  0.7979 -0.9331 -1.5991
 9602TIP3   OH253000   4.697   3.450   2.603  0.4854  0.0688 -0.5755
 9602TIP3    H153001   4.743   3.502   2.669  0.7491  0.7102 -1.2507
 9602TIP3    H253002   4.641   3.391   2.654 -1.5385  2.5231  0.2386
 9603TIP3   OH253003   1.874   1.192   2.198 -0.2573 -0.0029  0.4128
 9603TIP3    H153004   1.954   1.239   2.224  0.8386  0.3628 -3.0694
 9603TIP3    H253005   1.803   1.252   2.220  0.4453  0.0991  2.6594
 9604TIP3   OH253006   2.045   0.731   2.734 -0.3508  0.1331 -0.5637
 9604TIP3    H153007   2.005   0.806   2.778  0.6515  1.1877 -1.3783
 9604TIP3    H253008   2.108   0.696   2.797 -0.7268  0.0556 -0.2284
 9605TIP3   OH253009   6.937   6.776   1.782 -0.6117  0.1914  0.1818
 9605TIP3    H153010   7.012   6.831   1.757 -0.0761 -1.0191 -0.9669
 9605TIP3    H253011   6.960   6.744   1.869  1.5854 -2.3528 -1.1853
 9606TIP3   OH253012   6.914   5.723   2.731  0.5601  0.2649  0.0722
 9606TIP3    H153013   6.872   5.649   2.773  0.9925 -0.8900 -1.4383
 9606TIP3    H253014   6.910   5.703   2.637  0.9333  2.0217 -0.3569
 9607TIP3   OH253015   0.604   4.872   1.661  0.4568  0.1573  0.1014
 9607TIP3    H153016   0.661   4.827   1.724 -0.3235  1.8660  2.1450
 9607TIP3    H253017   0.621   4.965   1.676 -1.0342  0.6503 -1.0279
 9608TIP3   OH253018   7.162   1.465   2.932  0.2732  0.5192 -0.5013
 9608TIP3    H153019   7.095   1.446   2.866  1.2067 -0.0265 -1.3239
 9608TIP3    H253020   7.142   1.553   2.963 -0.2371  0.7448 -1.4584
 9609TIP3   OH253021   7.086   5.691   1.189  0.3393 -0.0282  0.2320
 9609TIP3    H153022   7.139   5.711   1.112 -1.4594 -0.4164 -1.1902
 9609TIP3    H253023   6.999   5.671   1.154 -0.9157  1.0228  2.4601
 9610TIP3   OH253024   6.422   6.524   2.212  0.1055 -0.2323  0.1936
 9610TIP3    H153025   6.369   6.477   2.277 -1.8888  1.2871 -0.2206
 9610TIP3    H253026   6.381   6.610   2.207  2.9155  1.2056  0.1086
 9611TIP3   OH253027   1.582   4.005   1.344 -0.1795  0.2966 -0.0950
 9611TIP3    H153028   1.606   4.050   1.264  0.0393  0.3059 -0.0240
 9611TIP3    H253029   1.544   3.922   1.315 -0.3527  0.4175 -0.2157
 9612TIP3   OH253030   5.893   0.712   1.417  0.1037  0.1891 -0.2418
 9612TIP3    H153031   5.938   0.780   1.368  0.1742 -1.1324 -2.1276
 9612TIP3    H253032   5.815   0.754   1.452  1.7668  2.0365  1.4677
 9613TIP3   OH253033   5.442   0.270   1.290  0.1268 -0.1358  0.3330
 9613TIP3    H153034   5.483   0.187   1.316 -0.4332 -0.3077  0.6945
 9613TIP3    H253035   5.349   0.255   1.305 -0.1079  0.1253 -0.8157
 9614TIP3   OH253036   1.720   4.164   1.149  0.2444 -0.2247 -0.2263
 9614TIP3    H153037   1.742   4.078   1.115  0.6396 -0.1956 -0.0464
 9614TIP3    H253038   1.713   4.220   1.072 -4.1203 -1.2390 -0.8660
 9615TIP3   OH253039   6.866   1.069   1.971 -0.0226 -0.0458 -0.5168
 9615TIP3    H153040   6.885   0.983   1.934  0.8045  0.0189 -0.2746
 9615TIP3    H253041   6.788   1.099   1.925 -0.9576 -1.3836  0.1501
 9616TIP3   OH253042   2.238   6.264   2.985 -0.3052 -0.0079 -0.9067
 9616TIP3    H153043   2.327   6.295   2.970 -0.1352 -0.9087 -1.8157
 9616TIP3    H253044   2.213   6.220   2.904 -1.9252  1.0176 -1.0362
 9617TIP3   OH253045   4.085   3.036   0.896  0.9466 -0.0553  0.0218
 9617TIP3    H153046   4.077   3.000   0.984  2.0879  0.5916  0.4098
 9617TIP3    H253047   4.071   3.130   0.907  0.5448 -0.0377 -0.5793
 9618TIP3   OH253048   0.740   3.249   3.132  0.6846 -0.3058 -0.2695
 9618TIP3    H153049   0.682   3.289   3.067 -0.9409 -0.5948  0.9437
 9618TIP3    H253050   0.762   3.321   3.192  0.1332 -0.5684  0.2588
 9619TIP3   OH253051   3.856   4.846   0.706 -0.2479  0.4036 -0.2512
 9619TIP3    H153052   3.936   4.841   0.759  1.2369 -0.0951 -2.3820
 9619TIP3    H253053   3.790   4.882   0.765  1.5148  0.7349  1.6407
 9620TIP3   OH253054   7.148   7.089   3.208  0.1011 -0.0445  0.1074
 9620TIP3    H153055   7.153   7.180   3.179 -0.0383  0.8735  2.7366
 9620TIP3    H253056   7.060   7.060   3.182  0.1661  0.5308 -0.7871
 9621TIP3   OH253057   1.852   4.663   0.655  0.6404 -0.3046  0.3413
 9621TIP3    H153058   1.894   4.657   0.569  0.9690  0.5866  0.4291
 9621TIP3    H253059   1.820   4.575   0.672 -0.0074 -0.3486 -0.9876
 9622TIP3   OH253060   1.356   0.032   2.688  0.4637  0.0127  0.1633
 9622TIP3    H153061   1.433  -0.024   2.683  0.7236  0.4505 -0.8430
 9622TIP3    H253062   1.369   0.098   2.621  0.1037  1.2172  1.2334
 9623TIP3   OH253063   5.776   6.820   0.833  0.2002 -0.2764  0.0972
 9623TIP3    H153064   5.816   6.904   0.854  0.6167 -0.3185 -0.5214
 9623TIP3    H253065   5.842   6.773   0.783 -0.0312 -0.9752  0.4342
 9624TIP3   OH253066   6.944   4.364   2.484  0.1665 -0.2235 -0.2461
 9624TIP3    H153067   6.899   4.416   2.417 -1.6895 -1.5814 -0.1215
 9624TIP3    H253068   6.996   4.429   2.533  2.0159  0.7584 -3.2265
 9625TIP3   OH253069   0.351   4.796   1.940  0.7690 -0.3319 -0.0222
 9625TIP3    H153070   0.432   4.755   1.971  0.9901 -0.3474 -0.6036
 9625TIP3    H253071   0.286   4.725   1.943  0.4527 -0.0194  1.6113
 9626TIP3   OH253072   1.551   2.666   0.562  0.1057  0.2670 -0.5438
 9626TIP3    H153073   1.526   2.612   0.487  1.3108  2.6368 -2.8163
 9626TIP3    H253074   1.469   2.705   0.592 -0.4025 -0.7573 -0.5714
 9627TIP3   OH253075   0.844   1.035   1.693 -0.4204  0.1161  0.3217
 9627TIP3    H153076   0.836   1.047   1.599 -1.2781 -0.5813  0.2901
 9627TIP3    H253077   0.852   0.940   1.704 -1.0737  0.1245  0.9873
 9628TIP3   OH253078   4.225   1.306   1.740  0.4216  0.3326  0.4090
 9628TIP3    H153079   4.283   1.342   1.807  0.7581 -1.2060  0.9870
 9628TIP3    H253080   4.281   1.296   1.662  1.0007 -1.2361  0.9921
 9629TIP3   OH253081   6.684   3.004   3.161 -0.1515  0.1480 -0.3233
 9629TIP3    H153082   6.629   2.926   3.167 -0.6207  0.5138  0.2718
 9629TIP3    H253083   6.753   2.990   3.226 -0.1607  0.1682 -0.3093
 9630TIP3   OH253084   1.125   7.282   1.362  0.0873  0.0892 -0.0176
 9630TIP3    H153085   1.060   7.218   1.336 -0.9904  0.3540  1.8348
 9630TIP3    H253086   1.075   7.362   1.379  0.8698  0.3428  1.2934
 9631TIP3   OH253087   2.905   1.607   1.427  0.2947  0.0193 -0.6807
 9631TIP3    H153088   2.895   1.589   1.521  0.4155 -0.7899 -0.8154
 9631TIP3    H253089   2.952   1.531   1.393  0.8259  0.6012 -1.2873
 9632TIP3   OH253090   3.413   1.315   2.795  0.0757  0.2093  0.6016
 9632TIP3    H153091   3.454   1.271   2.868  1.1311  0.1388 -0.0157
 9632TIP3    H253092   3.475   1.307   2.723 -0.9983  0.1372 -0.3581
 9633TIP3   OH253093   2.085   0.912   1.322  0.0178  0.3840 -0.1951
 9633TIP3    H153094   2.104   0.995   1.368  0.1612  0.6439 -0.7200
 9633TIP3    H253095   2.005   0.929   1.274  1.3734  1.0608 -2.3317
 9634TIP3   OH253096   4.416   5.173   2.128  0.0211  0.5011 -0.3176
 9634TIP3    H153097   4.339   5.133   2.087 -0.7284  0.4024  1.1395
 9634TIP3    H253098   4.459   5.101   2.174  0.0217  0.8945  0.3036
 9635TIP3   OH253099   1.423   4.267   2.714 -0.2005 -0.0046  0.2389
 9635TIP3    H153100   1.493   4.325   2.686 -0.7337  0.5926  0.1318
 9635TIP3    H253101   1.436   4.258   2.809  0.0273  0.0841  0.2176
 9636TIP3   OH253102   7.647   5.900   0.830 -0.1084  0.3994 -0.1877
 9636TIP3    H153103   7.643   5.963   0.758 -0.7969  0.3837 -0.1760
 9636TIP3    H253104   7.557   5.897   0.863  0.1557  0.2276  0.5186
 9637TIP3   OH253105   0.487   3.111   2.702 -0.6108  0.0162 -0.2138
 9637TIP3    H153106   0.405   3.155   2.676 -1.5411 -1.8787 -0.6980
 9637TIP3    H253107   0.459   3.025   2.732  0.9828  0.2561  2.2302
 9638TIP3   OH253108   1.564   4.519   2.561  0.2227 -0.3067  0.4370
 9638TIP3    H153109   1.637   4.458   2.559  1.3244  0.9586 -1.0974
 9638TIP3    H253110   1.592   4.589   2.620  0.3932  0.3043 -0.3453
 9639TIP3   OH253111   6.935   0.260   1.234 -0.2242  0.1266 -0.0453
 9639TIP3    H153112   6.845   0.242   1.208 -0.4799  0.5679  0.4940
 9639TIP3    H253113   6.937   0.355   1.247  0.2879  0.1036  0.0690
 9640TIP3   OH253114   4.822   6.979   2.560 -0.0397  0.3435  0.8226
 9640TIP3    H153115   4.832   6.887   2.583 -0.7084 -0.0361 -0.3324
 9640TIP3    H253116   4.895   6.997   2.500  1.8578  1.3971  3.2558
 9641TIP3   OH253117   1.565   4.019   2.462 -0.3472  0.5804 -0.3336
 9641TIP3    H153118   1.641   3.971   2.494 -2.0729 -0.7392  2.0566
 9641TIP3    H253119   1.590   4.111   2.471  2.3183  0.3472 -3.2465
 9642TIP3   OH253120   2.897   2.095   0.360  0.5400  0.0918 -0.3869
 9642TIP3    H153121   2.938   2.134   0.283  0.0280  2.1765  0.3373
 9642TIP3    H253122   2.834   2.160   0.390  2.4768  0.5417  3.2640
 9643TIP3   OH253123   5.533   4.581   1.343 -0.9097 -0.2743  0.1450
 9643TIP3    H153124   5.439   4.596   1.330 -1.1436 -1.5735  0.1851
 9643TIP3    H253125   5.540   4.551   1.433 -0.2103  1.5127  0.7230
 9644TIP3   OH253126   3.201   2.699   0.725 -0.1793  0.0502  0.3035
 9644TIP3    H153127   3.292   2.671   0.734 -0.0683 -0.1064 -1.0368
 9644TIP3    H253128   3.206   2.788   0.692 -0.5210  0.1212  0.4368
 9645TIP3   OH253129   2.455   4.317   1.372 -0.0803 -0.1358  0.0117
 9645TIP3    H153130   2.455   4.271   1.456 -0.9665  1.5104  0.9435
 9645TIP3    H253131   2.501   4.399   1.389  0.9834 -0.3667 -1.4964
 9646TIP3   OH253132   1.619   3.269   1.346  0.4896 -0.2986  0.1339
 9646TIP3    H153133   1.690   3.301   1.402  0.1657 -2.3125  1.8119
 9646TIP3    H253134   1.659   3.260   1.259  1.4059  1.5079  0.3116
 9647TIP3   OH253135   4.971   4.190   0.900  0.7557 -0.2325  0.2153
 9647TIP3    H153136   5.054   4.220   0.862  1.7216 -0.2794  2.1604
 9647TIP3    H253137   4.959   4.101   0.864  0.9872  0.1610 -0.8783
 9648TIP3   OH253138   4.996   3.681   2.491 -0.3377 -0.1634 -0.2867
 9648TIP3    H153139   5.072   3.638   2.453 -0.4217 -0.1020 -0.5242
 9648TIP3    H253140   5.019   3.693   2.584 -0.4514 -1.0363 -0.1388
 9649TIP3   OH253141   7.347   3.229   1.946 -0.1454  0.1759 -0.2407
 9649TIP3    H153142   7.371   3.321   1.944 -0.6160  0.3520  1.2836
 9649TIP3    H253143   7.428   3.183   1.965 -0.3421  0.4965  1.4974
 9650TIP3   OH253144   0.526   2.902   1.799  0.0077  0.3291  0.1019
 9650TIP3    H153145   0.589   2.829   1.802 -0.0877  0.2713  1.2460
 9650TIP3    H253146   0.580   2.980   1.797  0.1084  0.2522 -0.6711
 9651TIP3   OH253147   0.973   5.007   1.729  0.1235  0.0715 -0.1991
 9651TIP3    H153148   1.032   4.967   1.666 -0.4427  1.3328 -1.6103
 9651TIP3    H253149   1.025   5.019   1.808  0.7134 -1.9941 -0.2353
 9652TIP3   OH253150   6.069   4.874   0.942 -0.2016 -0.3396 -0.3724
 9652TIP3    H153151   6.157   4.839   0.932 -0.8410 -2.3250  0.5481
 9652TIP3    H253152   6.059   4.889   1.036 -0.4664  0.9744 -0.5911
 9653TIP3   OH253153   6.540   6.196   3.528  0.6449  0.2224 -0.2538
 9653TIP3    H153154   6.585   6.241   3.456  0.2152  0.5411 -0.3275
 9653TIP3    H253155   6.602   6.128   3.555  0.9245  0.2676 -0.7479
 9654TIP3   OH253156   1.840   2.905   1.849 -0.0053  0.1182 -0.2941
 9654TIP3    H153157   1.917   2.950   1.815  1.1819  0.1657  2.2248
 9654TIP3    H253158   1.793   2.972   1.898  0.2921 -0.6609  1.1331
 9655TIP3   OH253159   1.862   0.639   1.471  0.1347 -0.5570 -0.3858
 9655TIP3    H153160   1.820   0.630   1.385  0.2711 -0.7646 -0.4302
 9655TIP3    H253161   1.956   0.638   1.453  0.1655  0.0527 -0.3002
 9656TIP3   OH253162   3.314   1.044   0.305  0.4327  0.4532  0.2248
 9656TIP3    H153163   3.253   1.082   0.369  0.3123  1.1259 -0.2753
 9656TIP3    H253164   3.260   1.026   0.228  1.1434  2.8403 -0.9422
 9657TIP3   OH253165   6.862   7.292   1.742 -0.2145  0.0431 -0.5293
 9657TIP3    H153166   6.857   7.233   1.667 -0.5365  0.9251 -1.2132
 9657TIP3    H253167   6.793   7.262   1.801 -1.1784  0.4668 -1.4159
 9658TIP3   OH253168   2.647   1.274   2.458 -0.2127 -0.2791 -0.1162
 9658TIP3    H153169   2.644   1.366   2.483 -0.0231 -0.4672  0.6135
 9658TIP3    H253170   2.668   1.276   2.364 -0.4010  0.4204 -0.1500
 9659TIP3   OH253171   5.160   7.096   3.110 -0.1937 -0.1128  0.2157
 9659TIP3    H153172   5.115   7.011   3.114  2.0028 -1.3641 -0.3226
 9659TIP3    H253173   5.110   7.153   3.169 -2.6486 -1.2961 -0.5811
 9660TIP3   OH253174   3.559   1.020   1.396  0.1884 -0.1992  0.2829
 9660TIP3    H153175   3.589   0.939   1.437  1.2481  0.4408  0.8210
 9660TIP3    H253176   3.628   1.083   1.415 -0.2902  0.6563 -0.7289
 9661TIP3   OH253177   1.195   5.440   2.326  0.2718 -0.1112 -0.1043
 9661TIP3    H153178   1.237   5.523   2.304  0.3514 -0.2677 -0.5637
 9661TIP3    H253179   1.102   5.457   2.316  0.3515 -0.6299 -2.3144
 9662TIP3   OH253180   5.918   1.186   1.819  0.5547  0.1747  0.1146
 9662TIP3    H153181   5.933   1.157   1.909 -0.2810  2.5706  1.1065
 9662TIP3    H253182   5.973   1.264   1.811 -0.4690  0.8051 -0.9629
 9663TIP3   OH253183   1.873   1.658   3.010  0.7845 -0.4192 -0.1057
 9663TIP3    H153184   1.863   1.609   3.091 -0.3241 -0.4961 -0.2639
 9663TIP3    H253185   1.919   1.738   3.036  0.4048 -0.4225  0.6128
 9664TIP3   OH253186   6.387   5.892   3.303 -0.5040 -0.5035 -0.4317
 9664TIP3    H153187   6.373   5.951   3.376 -0.2537 -1.6301  0.5544
 9664TIP3    H253188   6.303   5.890   3.257 -0.6711  0.1767 -0.1593
 9665TIP3   OH253189   6.515   3.384   1.495 -0.3763 -0.5789 -0.7389
 9665TIP3    H153190   6.446   3.427   1.444 -1.2462 -0.7679  0.2439
 9665TIP3    H253191   6.567   3.457   1.529 -1.0871 -0.3358 -0.1299
 9666TIP3   OH253192   1.103   7.632   0.635  0.3590 -0.2311 -0.3891
 9666TIP3    H153193   1.169   7.589   0.689 -0.1215  0.2876  0.6230
 9666TIP3    H253194   1.154   7.684   0.572  0.9291  0.3941  0.5726
 9667TIP3   OH253195   0.203   3.827   0.602  0.4678 -0.6383 -0.0077
 9667TIP3    H153196   0.290   3.798   0.630  0.6724 -0.4383 -0.4076
 9667TIP3    H253197   0.166   3.752   0.556  0.8967 -0.3647 -0.8285
 9668TIP3   OH253198   6.441   3.324   0.746  0.2072 -0.0583 -0.1642
 9668TIP3    H153199   6.498   3.269   0.801  1.7796  2.0262  0.4303
 9668TIP3    H253200   6.498   3.355   0.676 -0.2801  1.7254  0.1743
 9669TIP3   OH253201   2.577   6.563   3.343 -0.0599  0.5284  0.4305
 9669TIP3    H153202   2.661   6.604   3.321  0.8836 -1.6615 -0.3255
 9669TIP3    H253203   2.595   6.512   3.422 -0.6183 -0.0779  0.1731
 9670TIP3   OH253204   2.769   6.759   1.078 -0.4055  0.0032  0.1983
 9670TIP3    H153205   2.865   6.756   1.074 -0.3340 -1.5908  1.7266
 9670TIP3    H253206   2.742   6.800   0.996  1.5300 -0.7161 -0.8425
 9671TIP3   OH253207   3.762   6.831   0.979 -0.3085 -0.7954  0.2399
 9671TIP3    H153208   3.782   6.765   0.913 -0.6634 -0.7204  0.0513
 9671TIP3    H253209   3.728   6.781   1.054 -0.5595 -0.8314  0.1040
 9672TIP3   OH253210   3.690   5.922   3.432 -0.7783  0.3276  0.1642
 9672TIP3    H153211   3.683   6.016   3.452  0.9253  0.2881  1.0787
 9672TIP3    H253212   3.604   5.886   3.457 -1.7497  1.7285 -0.9550
 9673TIP3   OH253213   7.080   2.106   0.799 -0.5364 -0.2381 -0.0055
 9673TIP3    H153214   7.018   2.161   0.750 -0.8188 -0.7991 -0.2903
 9673TIP3    H253215   7.120   2.165   0.862  0.2127  0.6357 -1.2478
 9674TIP3   OH253216   2.179   2.429   1.767 -0.0147 -0.1850  0.1577
 9674TIP3    H153217   2.232   2.415   1.689 -0.1499  2.0127 -0.3984
 9674TIP3    H253218   2.098   2.469   1.734  0.6750  2.5657  1.5101
 9675TIP3   OH253219   0.357   5.271   0.755  0.3484  0.4371 -0.3162
 9675TIP3    H153220   0.384   5.359   0.781 -0.6253  0.8838 -0.7577
 9675TIP3    H253221   0.364   5.219   0.835  0.4112  1.0453  0.0798
 9676TIP3   OH253222   7.058   6.325   1.444  0.2419 -0.4696  0.4641
 9676TIP3    H153223   6.978   6.323   1.390  1.2674  0.1987 -1.1535
 9676TIP3    H253224   7.126   6.291   1.387  1.4027  0.3305  1.3258
 9677TIP3   OH253225   0.368   4.573   1.362  0.3593  0.4415 -0.3079
 9677TIP3    H153226   0.288   4.563   1.412  1.4015 -1.8259  1.0383
 9677TIP3    H253227   0.344   4.550   1.272 -1.2057  3.1823 -0.6981
 9678TIP3   OH253228   3.280   3.907   2.146 -0.3471  0.5852 -0.3942
 9678TIP3    H153229   3.282   3.886   2.052 -1.4154 -1.8998  0.0464
 9678TIP3    H253230   3.197   3.953   2.159  0.2098  1.7289 -0.7754
 9679TIP3   OH253231   0.573   3.737   3.089  0.4982  0.2966 -0.5165
 9679TIP3    H153232   0.631   3.697   3.154 -1.0764 -1.5578 -0.1290
 9679TIP3    H253233   0.630   3.759   3.016  2.1346  1.3881  1.0301
 9680TIP3   OH253234   5.142   4.822   1.902  0.8704  0.1759 -0.4382
 9680TIP3    H153235   5.075   4.813   1.834 -0.2056 -1.2206  0.7475
 9680TIP3    H253236   5.107   4.887   1.962  1.3554  0.6537 -0.6596
 9681TIP3   OH253237   2.018   2.752   2.023  0.6897 -0.4094 -0.3557
 9681TIP3    H153238   2.087   2.740   1.958  1.2757  1.9081 -0.2579
 9681TIP3    H253239   1.946   2.793   1.975  1.3662  1.9226  0.5032
 9682TIP3   OH253240   1.654   6.413   1.769 -0.4710 -0.9080 -0.0843
 9682TIP3    H153241   1.744   6.407   1.735 -1.1188 -0.8317 -1.9480
 9682TIP3    H253242   1.637   6.326   1.806  0.4388 -0.8400  0.5286
 9683TIP3   OH253243   2.976   6.946   2.673 -0.3015  0.0076 -0.0869
 9683TIP3    H153244   3.034   6.975   2.743 -0.3435 -1.4135  0.5687
 9683TIP3    H253245   2.911   6.891   2.717 -0.5406 -0.6214 -1.1952
 9684TIP3   OH253246   5.453   2.331   0.908  0.2829 -0.4248  0.0471
 9684TIP3    H153247   5.421   2.355   0.821  1.2200 -0.7401 -0.3928
 9684TIP3    H253248   5.449   2.236   0.909  1.0394 -0.4610  0.0446
 9685TIP3   OH253249   6.406   6.220   2.694  0.4677 -0.2892 -0.6268
 9685TIP3    H153250   6.342   6.165   2.648 -0.5977 -0.6643  1.1792
 9685TIP3    H253251   6.403   6.304   2.648 -0.8331 -0.5298 -1.0349
 9686TIP3   OH253252   3.825   5.922   2.730 -0.0519 -0.2085 -0.6065
 9686TIP3    H153253   3.745   5.953   2.688  0.1694  0.5404 -0.4810
 9686TIP3    H253254   3.896   5.972   2.690  0.1449  0.7046  0.8058
 9687TIP3   OH253255   5.317   0.564   2.042 -0.4219 -0.5126 -0.4839
 9687TIP3    H153256   5.375   0.620   2.093 -1.3359 -0.9321  1.0872
 9687TIP3    H253257   5.243   0.620   2.020 -0.2583 -0.4698 -0.9270
 9688TIP3   OH253258   1.926   4.887   2.109  0.3082  0.1068  0.4064
 9688TIP3    H153259   1.831   4.890   2.094  0.5744  0.4398 -1.3789
 9688TIP3    H253260   1.964   4.928   2.032  1.9090  0.4264  1.3245
 9689TIP3   OH253261   6.558   1.812   0.402  0.1284 -0.2477 -0.0082
 9689TIP3    H153262   6.532   1.890   0.353 -0.4750 -1.8506 -2.4117
 9689TIP3    H253263   6.497   1.809   0.476  0.4142  1.7261  0.3527
 9690TIP3   OH253264   1.920   3.750   0.711  0.2703  0.0488 -0.2597
 9690TIP3    H153265   1.882   3.695   0.642  1.6648 -1.1770 -0.0922
 9690TIP3    H253266   1.980   3.693   0.757  0.7547  1.3685  0.8151
 9691TIP3   OH253267   2.887   1.338   1.886  0.0632  0.1319 -0.6791
 9691TIP3    H153268   2.922   1.340   1.797 -1.0543  1.0324 -1.1252
 9691TIP3    H253269   2.964   1.324   1.942  1.0571  1.4173 -1.6511
 9692TIP3   OH253270   3.161   0.227   3.026  0.7458  0.3735 -0.5903
 9692TIP3    H153271   3.207   0.302   3.063  1.8583 -0.7887  0.4938
 9692TIP3    H253272   3.073   0.260   3.005  1.8036  2.4558 -1.9964
 9693TIP3   OH253273   1.484   5.741   1.976 -0.6525 -0.3377  0.4200
 9693TIP3    H153274   1.490   5.731   1.881  0.2177  2.6388  0.0500
 9693TIP3    H253275   1.456   5.832   1.988  0.2298 -0.3419  3.0415
 9694TIP3   OH253276   5.897   2.853   0.976 -0.3631  0.3231 -0.0435
 9694TIP3    H153277   5.854   2.817   1.054 -1.4912 -0.1937 -0.8817
 9694TIP3    H253278   5.990   2.837   0.992 -0.6863 -1.2539  0.4813
 9695TIP3   OH253279   1.756   4.257   1.406  0.2057 -0.8019  0.3157
 9695TIP3    H153280   1.738   4.213   1.322  1.4936 -0.0687 -0.3659
 9695TIP3    H253281   1.805   4.192   1.456  0.9398 -0.6265 -0.1692
 9696TIP3   OH253282   0.538   5.012   3.136 -0.5740 -0.5963 -0.0655
 9696TIP3    H153283   0.488   4.969   3.206  0.5977  0.1556  1.2972
 9696TIP3    H253284   0.575   4.940   3.085 -0.5545 -1.1907  0.7654
 9697TIP3   OH253285   6.442   7.487   1.381  0.0669 -0.3854  0.3870
 9697TIP3    H153286   6.419   7.428   1.310 -0.8768  0.5426 -0.1038
 9697TIP3    H253287   6.500   7.435   1.437  1.4228 -0.9072 -1.4033
 9698TIP3   OH253288   4.762   4.465   1.420 -0.1457 -0.6529  0.6869
 9698TIP3    H153289   4.749   4.452   1.514 -0.2306  0.0698  0.7798
 9698TIP3    H253290   4.856   4.480   1.411  0.0811 -2.0176  0.4838
 9699TIP3   OH253291   4.678   4.967   2.481 -0.1921 -0.0830 -0.3087
 9699TIP3    H153292   4.651   5.043   2.429 -1.4236 -0.0361  0.3789
 9699TIP3    H253293   4.598   4.918   2.496 -0.0710  0.3731  2.3121
 9700TIP3   OH253294   2.887   3.434   3.441  0.2896  0.3105  0.0247
 9700TIP3    H153295   2.948   3.459   3.511  2.0959 -1.7360 -0.7178
 9700TIP3    H253296   2.891   3.508   3.380 -0.4053  1.5887  1.4318
 9701TIP3   OH253297   1.919   3.718   1.864  0.0732  0.3841 -0.0617
 9701TIP3    H153298   1.881   3.661   1.931  1.4624  1.1280  1.4178
 9701TIP3    H253299   2.006   3.739   1.897  0.8318  0.7598 -2.1403
 9702TIP3   OH253300   4.333   6.252   1.169 -0.3262 -0.3700 -0.0714
 9702TIP3    H153301   4.317   6.314   1.098 -0.4136 -0.6707 -0.3119
 9702TIP3    H253302   4.373   6.176   1.126 -0.4376 -0.5773  0.1913
 9703TIP3   OH253303   1.641   3.550   3.217 -0.1502  0.0732  0.4654
 9703TIP3    H153304   1.635   3.466   3.263  0.8537  0.2746  1.0033
 9703TIP3    H253305   1.718   3.592   3.255 -1.2076  1.6842  0.9220
 9704TIP3   OH253306   5.904   1.323   2.205 -0.2350 -0.2803 -0.0525
 9704TIP3    H153307   5.866   1.274   2.278  0.5910  0.0029  0.5782
 9704TIP3    H253308   5.986   1.358   2.239 -0.6345  1.2694 -0.6052
 9705TIP3   OH253309   0.725   3.487   2.769 -0.1267  0.1248  0.3789
 9705TIP3    H153310   0.769   3.545   2.706 -1.2507 -0.5835 -1.1289
 9705TIP3    H253311   0.651   3.538   2.802  0.1154  0.2848  0.6794
 9706TIP3   OH253312   6.517   0.485   2.270  0.1593 -1.0302  0.0819
 9706TIP3    H153313   6.540   0.537   2.193  0.1111  1.1794  1.4748
 9706TIP3    H253314   6.600   0.473   2.317 -0.2110  0.0413  1.0553
 9707TIP3   OH253315   6.391   6.589   1.271  0.3694 -0.5777 -0.0661
 9707TIP3    H153316   6.419   6.654   1.207  0.4483  0.4075  0.9490
 9707TIP3    H253317   6.423   6.622   1.355 -1.8527 -0.5516  0.8440
 9708TIP3   OH253318   0.809   0.808   0.944  0.0208 -0.5811  0.4636
 9708TIP3    H153319   0.771   0.776   0.862 -0.4004  0.5454  0.2084
 9708TIP3    H253320   0.741   0.862   0.983  0.0093 -1.5415  1.8535
 9709TIP3   OH253321   5.613   5.928   1.839 -0.1214  0.1789 -0.3113
 9709TIP3    H153322   5.535   5.872   1.835  0.0074 -0.2485  1.9744
 9709TIP3    H253323   5.582   6.010   1.877  0.7974 -0.6816  2.5406
 9710TIP3   OH253324   6.433   4.075   2.912  0.1674  0.4964  0.0811
 9710TIP3    H153325   6.508   4.044   2.964  1.6728 -0.4165 -2.4145
 9710TIP3    H253326   6.398   3.996   2.871  0.3142  1.3337 -1.7893
 9711TIP3   OH253327   6.298   0.086   1.738  0.4966 -0.1381  0.4619
 9711TIP3    H153328   6.248   0.155   1.694  0.9354 -0.0161  0.1354
 9711TIP3    H253329   6.265   0.005   1.700 -1.0252 -0.2129  1.8879
 9712TIP3   OH253330   5.526   4.861   3.245 -0.2711 -0.2155 -0.3916
 9712TIP3    H153331   5.542   4.934   3.185  0.1463 -0.0959 -0.1378
 9712TIP3    H253332   5.489   4.793   3.189  0.2888 -0.1743 -0.8296
 9713TIP3   OH253333   1.901   3.871   3.280  0.0763  0.3939 -0.6852
 9713TIP3    H153334   1.988   3.911   3.275  0.0493  0.5929  0.2617
 9713TIP3    H253335   1.866   3.900   3.365  0.3145 -2.1418  0.3722
 9714TIP3   OH253336   3.581   4.386   1.588  0.3182 -0.2125 -0.2334
 9714TIP3    H153337   3.581   4.454   1.656  0.0359  0.8799 -1.2847
 9714TIP3    H253338   3.521   4.419   1.521  0.7884 -1.1314 -1.1360
 9715TIP3   OH253339   6.899   0.307   3.417 -0.5377  0.1098  0.2717
 9715TIP3    H153340   6.968   0.257   3.459 -0.4829  0.3706  0.4880
 9715TIP3    H253341   6.941   0.386   3.386 -1.1856  1.3867  2.4604
 9716TIP3   OH253342   1.684   3.315   1.879 -0.3604  0.2810  0.1784
 9716TIP3    H153343   1.663   3.276   1.794  0.7816  0.9540 -0.4466
 9716TIP3    H253344   1.707   3.240   1.934 -0.3549 -0.1155 -0.3488
 9717TIP3   OH253345   2.081   6.195   1.011  0.1894 -0.3740  0.1068
 9717TIP3    H153346   2.082   6.121   0.950  3.6301  0.6440 -1.2765
 9717TIP3    H253347   2.021   6.258   0.971  0.6794 -0.6322 -1.0660
 9718TIP3   OH253348   3.867   5.084   2.186  0.1044  0.5075 -0.1184
 9718TIP3    H153349   3.927   5.018   2.222 -2.2469 -0.9684  1.3855
 9718TIP3    H253350   3.846   5.141   2.259 -0.6346  0.7511 -0.5072
 9719TIP3   OH253351   6.920   3.091   2.992  0.0876 -0.6955  0.3677
 9719TIP3    H153352   6.891   3.181   2.976  1.5075 -0.0630  1.2010
 9719TIP3    H253353   6.856   3.056   3.055 -0.4836 -0.2984  0.0226
 9720TIP3   OH253354   0.115   0.741   0.824  0.0813  0.1542  0.2447
 9720TIP3    H153355   0.050   0.778   0.764  1.6285  0.4200 -1.3704
 9720TIP3    H253356   0.089   0.650   0.834 -1.0541  0.4795  0.3821
 9721TIP3   OH253357   1.749   6.314   2.208 -0.1992 -0.2564  0.2711
 9721TIP3    H153358   1.788   6.275   2.287 -1.3215 -1.3973  0.2921
 9721TIP3    H253359   1.800   6.276   2.136  0.8428  0.8035  0.4150
 9722TIP3   OH253360   5.206   5.608   2.217 -0.0560 -0.4314  0.0566
 9722TIP3    H153361   5.169   5.691   2.189 -0.8937 -0.7916  0.0469
 9722TIP3    H253362   5.197   5.550   2.141 -1.9678 -1.2900  0.8446
 9723TIP3   OH253363   7.126   4.946   2.480  0.9499  0.2846 -0.3147
 9723TIP3    H153364   7.179   4.945   2.560  1.7004 -0.2729 -0.8031
 9723TIP3    H253365   7.065   4.873   2.492  1.4838 -0.2051 -0.5148
 9724TIP3   OH253366   7.214   5.968   1.604  0.2478 -0.5878  0.0607
 9724TIP3    H153367   7.236   5.894   1.662 -0.6855 -0.8695  0.0821
 9724TIP3    H253368   7.155   5.930   1.538 -0.4476  0.1756  0.2192
 9725TIP3   OH253369   1.235   7.530   2.317  0.0978 -0.2149 -0.4093
 9725TIP3    H153370   1.165   7.504   2.377  1.1673  0.1937  1.0823
 9725TIP3    H253371   1.315   7.520   2.368  1.0106  0.7845 -1.5720
 9726TIP3   OH253372   6.556   4.511   0.766  0.4034 -0.3538  0.3050
 9726TIP3    H153373   6.615   4.584   0.749  1.4634 -0.9360  1.3261
 9726TIP3    H253374   6.613   4.435   0.776 -0.6285 -1.2056 -0.0658
 9727TIP3   OH253375   6.432   3.441   1.046 -0.2136 -0.0446  0.1512
 9727TIP3    H153376   6.472   3.483   1.123  0.2416 -0.8001  0.3338
 9727TIP3    H253377   6.439   3.508   0.977 -3.1218  1.7361  1.4062
 9728TIP3   OH253378   0.998   5.462   1.842  0.1671  0.0942 -0.4667
 9728TIP3    H153379   0.997   5.557   1.856 -1.5231  0.2517 -1.3764
 9728TIP3    H253380   1.018   5.425   1.928 -1.7921  1.2338  0.5616
 9729TIP3   OH253381   0.711   4.093   1.225  0.0555  0.8024  0.2415
 9729TIP3    H153382   0.806   4.101   1.233  0.3277 -0.4866 -1.2286
 9729TIP3    H253383   0.680   4.083   1.315  1.4888 -0.2503  0.6523
 9730TIP3   OH253384   5.106   3.882   1.397  0.7637 -0.8579 -0.3186
 9730TIP3    H153385   5.151   3.961   1.367  0.0185 -0.5580 -0.6700
 9730TIP3    H253386   5.079   3.903   1.487 -3.1331  0.9807 -1.7238
 9731TIP3   OH253387   5.648   6.748   1.082  0.2449  0.4336 -0.1685
 9731TIP3    H153388   5.699   6.752   1.002  1.4434 -0.2952  0.5269
 9731TIP3    H253389   5.645   6.839   1.114  0.0394  0.6701 -0.8488
 9732TIP3   OH253390   1.711   3.562   0.726 -0.0945  0.6669  0.1909
 9732TIP3    H153391   1.697   3.587   0.635  1.1426  0.2334 -0.1344
 9732TIP3    H253392   1.632   3.591   0.771 -1.6889 -0.9421 -1.3635
 9733TIP3   OH253393   5.085   1.662   1.366  0.3682  0.6791  0.0874
 9733TIP3    H153394   5.111   1.572   1.383 -0.2298  0.5472  0.3051
 9733TIP3    H253395   5.084   1.704   1.452 -3.2492 -0.1440  0.5905
 9734TIP3   OH253396   7.557   6.006   2.041 -0.3357  0.3408  0.3769
 9734TIP3    H153397   7.509   6.015   1.959 -1.0264  0.8013  0.8236
 9734TIP3    H253398   7.608   6.087   2.048 -0.3005  0.3155  0.4134
 9735TIP3   OH253399   0.996   4.641   1.278 -0.2502  0.4048  0.7256
 9735TIP3    H153400   0.941   4.564   1.291  1.8561 -1.1469  1.0671
 9735TIP3    H253401   0.942   4.702   1.228 -1.6336 -1.7535 -0.5662
 9736TIP3   OH253402   4.193   4.001   0.917 -0.4537  0.0134  0.8473
 9736TIP3    H153403   4.264   3.977   0.977  1.1150 -0.8585 -1.2447
 9736TIP3    H253404   4.194   4.097   0.916  0.4575  0.0171  1.1199
 9737TIP3   OH253405   1.352   2.596   2.312 -0.3676  0.0449  0.1960
 9737TIP3    H153406   1.345   2.508   2.350  1.2183 -0.1834  0.0100
 9737TIP3    H253407   1.378   2.652   2.385 -0.4606  0.1944  0.1155
 9738TIP3   OH253408   2.048   4.728   1.206 -0.3415  0.1366  0.3308
 9738TIP3    H153409   2.111   4.656   1.215 -0.2159  0.4002  1.9411
 9738TIP3    H253410   2.102   4.807   1.200 -0.4848  0.1467 -1.1564
 9739TIP3   OH253411   4.905   2.009   1.525  0.0164 -0.1810  0.0302
 9739TIP3    H153412   4.843   1.961   1.580 -0.8314 -1.0540 -1.6022
 9739TIP3    H253413   4.895   1.970   1.438  0.8602  1.5526 -0.8949
 9740TIP3   OH253414   0.179   1.678   0.656  0.0205  0.3898  0.3763
 9740TIP3    H153415   0.100   1.688   0.602 -1.3036 -0.3650  2.0988
 9740TIP3    H253416   0.246   1.648   0.594 -1.1360  0.6161 -1.0480
 9741TIP3   OH253417   2.026   1.631   1.901  0.3508 -0.6178 -0.2303
 9741TIP3    H153418   2.043   1.628   1.995  0.2933 -1.8644 -0.2357
 9741TIP3    H253419   2.018   1.724   1.880 -0.5588 -0.3561  1.1700
 9742TIP3   OH253420   7.303   1.627   2.259  0.0280 -0.0906 -0.5143
 9742TIP3    H153421   7.251   1.670   2.327 -0.9464  1.1239 -1.9830
 9742TIP3    H253422   7.253   1.638   2.179  2.0148  0.1700 -1.7989
 9743TIP3   OH253423   5.309   6.424   1.595  0.1408 -0.6848 -0.2774
 9743TIP3    H153424   5.241   6.442   1.530  0.3577 -1.8705 -0.8388
 9743TIP3    H253425   5.315   6.329   1.599 -0.4306 -0.7062  2.0692
 9744TIP3   OH253426   3.119   2.817   1.694 -0.5261  0.0091 -0.1790
 9744TIP3    H153427   3.063   2.740   1.682  2.4380 -2.4129  0.3472
 9744TIP3    H253428   3.189   2.807   1.630  1.1885  1.0148  1.4147
 9745TIP3   OH253429   3.810   5.411   1.432 -0.0236 -0.1135 -0.2760
 9745TIP3    H153430   3.729   5.429   1.481 -0.1835  2.0630 -1.2338
 9745TIP3    H253431   3.827   5.319   1.448 -2.0701 -0.3549  0.9007
 9746TIP3   OH253432   0.151   0.134   1.867  0.4997  0.1915 -0.0024
 9746TIP3    H153433   0.094   0.208   1.844 -0.0152 -0.2261 -0.0741
 9746TIP3    H253434   0.127   0.112   1.957  0.6884  0.1484  0.0364
 9747TIP3   OH253435   5.228   4.055   1.892 -0.0909  0.2741  0.2856
 9747TIP3    H153436   5.297   4.103   1.846 -1.8081  2.3890 -0.2327
 9747TIP3    H253437   5.274   4.013   1.966  2.3776 -1.6258 -2.1197
 9748TIP3   OH253438   3.676   0.490   2.694 -0.6869  0.0890  0.3992
 9748TIP3    H153439   3.703   0.570   2.738  0.1630 -0.0606  0.1651
 9748TIP3    H253440   3.715   0.496   2.606 -1.3049 -0.1999  0.0957
 9749TIP3   OH253441   3.401   5.957   2.499  0.0985  0.4708 -0.3639
 9749TIP3    H153442   3.369   5.867   2.503  0.3461  0.3900 -0.2463
 9749TIP3    H253443   3.407   5.976   2.406 -2.7995  1.3618 -0.4934
 9750TIP3   OH253444   6.240   0.509   2.244 -0.5195 -0.0592 -0.0838
 9750TIP3    H153445   6.330   0.490   2.271 -1.6457 -1.1903  3.4346
 9750TIP3    H253446   6.221   0.444   2.177  0.8991 -0.6148  0.0135
 9751TIP3   OH253447   0.952   0.458   1.727  0.0583 -0.0473  0.0473
 9751TIP3    H153448   0.978   0.369   1.752 -0.5917 -0.6039 -1.1973
 9751TIP3    H253449   0.898   0.447   1.649  0.0352  1.4526 -0.1853
 9752TIP3   OH253450   6.316   5.537   2.189 -0.7593  0.0066  0.4454
 9752TIP3    H153451   6.238   5.533   2.134  0.1882  0.2728 -0.9698
 9752TIP3    H253452   6.324   5.630   2.212 -0.8605 -0.0186  0.5809
 9753TIP3   OH253453   7.434   5.590   3.606 -0.0971  0.0247 -0.0210
 9753TIP3    H153454   7.403   5.620   3.521  0.8856 -0.4444 -0.5686
 9753TIP3    H253455   7.361   5.542   3.644 -0.4168 -0.0892 -0.7732
 9754TIP3   OH253456   3.892   7.024   1.126 -0.1182 -0.1570 -0.5808
 9754TIP3    H153457   3.832   7.035   1.199  0.5228  0.4549 -0.1260
 9754TIP3    H253458   3.847   6.966   1.065 -1.2052  0.3866 -0.3110
 9755TIP3   OH253459   3.843   2.599   0.879 -0.0510  0.4424  0.3254
 9755TIP3    H153460   3.796   2.627   0.958 -0.1721  2.6994 -0.4762
 9755TIP3    H253461   3.851   2.679   0.827 -1.3313 -1.2553 -2.6955
 9756TIP3   OH253462   3.545   3.472   3.160 -0.5712 -0.3137 -0.1014
 9756TIP3    H153463   3.572   3.384   3.187 -3.5082 -0.8472  1.5322
 9756TIP3    H253464   3.626   3.524   3.161  0.9030 -2.4858  0.9933
 9757TIP3   OH253465   6.332   3.993   0.704 -0.2414  1.0321  0.1064
 9757TIP3    H153466   6.374   4.032   0.780 -0.7612  0.4651  0.7028
 9757TIP3    H253467   6.257   4.050   0.686 -0.3564  0.9366  0.2808
 9758TIP3   OH253468   7.072   6.812   1.335  0.0716 -0.2673  0.1785
 9758TIP3    H153469   7.033   6.757   1.403  1.9824 -0.4804  1.1810
 9758TIP3    H253470   6.998   6.847   1.286 -1.3146 -1.0958  1.6097
 9759TIP3   OH253471   3.160   2.721   0.986  0.0414  0.2108 -0.1443
 9759TIP3    H153472   3.155   2.801   0.934  0.5679  0.1700 -0.2596
 9759TIP3    H253473   3.155   2.650   0.922  0.9654  0.1616 -0.1733
 9760TIP3   OH253474   0.145   1.552   2.848  0.2052  0.3820 -0.2242
 9760TIP3    H153475   0.125   1.462   2.875 -0.8392  0.0285 -2.0415
 9760TIP3    H253476   0.095   1.606   2.908 -1.5842 -0.3637 -0.9725
 9761TIP3   OH253477   6.810   5.798   1.870  0.0643  0.0108  0.1575
 9761TIP3    H153478   6.806   5.718   1.922  2.4573 -0.8152 -0.8073
 9761TIP3    H253479   6.725   5.840   1.884  0.5553 -0.0197  4.8728
 9762TIP3   OH253480   2.975   0.309   3.355  0.0995  0.4810  0.6562
 9762TIP3    H153481   3.018   0.254   3.421 -1.0513  0.0852  1.0937
 9762TIP3    H253482   3.042   0.374   3.331  0.5323  0.6525  2.2263
 9763TIP3   OH253483   3.369   1.958   1.572 -0.0165 -0.2265  0.0932
 9763TIP3    H153484   3.420   1.888   1.614 -0.9770  0.0330  1.7750
 9763TIP3    H253485   3.424   2.035   1.578  0.5773 -0.5769 -0.7355
 9764TIP3   OH253486   5.266   2.885   1.815  0.2536 -0.1831  0.4646
 9764TIP3    H153487   5.212   2.834   1.754  1.0213  0.5857 -0.8957
 9764TIP3    H253488   5.353   2.844   1.810  0.4477  0.2036  0.6632
 9765TIP3   OH253489   3.127   1.462   1.709 -0.0256 -0.6115  0.3433
 9765TIP3    H153490   3.141   1.556   1.694 -1.4024 -0.5598 -0.7412
 9765TIP3    H253491   3.190   1.419   1.651  1.1801 -0.4075  1.4253
 9766TIP3   OH253492   0.254   2.615   1.267  0.0675  0.1222  0.0226
 9766TIP3    H153493   0.273   2.644   1.356 -2.4841  1.6400  0.1696
 9766TIP3    H253494   0.202   2.536   1.278 -0.5112  0.4804 -0.0742
 9767TIP3   OH253495   5.050   6.027   3.032 -0.0264 -0.3163 -0.1168
 9767TIP3    H153496   5.110   6.027   2.957 -1.1515  0.9843 -1.0743
 9767TIP3    H253497   5.098   6.075   3.100  0.3848 -0.0802 -0.5628
 9768TIP3   OH253498   7.126   5.489   0.719  0.1742 -0.4686  0.7994
 9768TIP3    H153499   7.044   5.523   0.756  0.6559  0.3549  1.1396
 9768TIP3    H253500   7.174   5.455   0.795  0.4175 -0.3713  0.6892
 9769TIP3   OH253501   0.627   5.096   0.853 -0.1441 -0.3006  0.1827
 9769TIP3    H153502   0.697   5.032   0.860 -0.0954 -0.8858 -3.7584
 9769TIP3    H253503   0.556   5.050   0.808 -1.5404  1.4140  0.4988
 9770TIP3   OH253504   2.912   1.016   0.396  0.5176  0.0828  0.4909
 9770TIP3    H153505   2.996   1.062   0.390  0.3006  0.3474 -0.8402
 9770TIP3    H253506   2.849   1.084   0.419  0.5039  0.1014  0.4019
 9771TIP3   OH253507   1.963   4.033   0.838 -0.1709 -0.4415  0.0108
 9771TIP3    H153508   1.930   3.944   0.823  0.7984 -0.7766 -0.2048
 9771TIP3    H253509   1.991   4.033   0.929 -1.9721  0.2584  0.6144
 9772TIP3   OH253510   4.560   3.547   2.401 -0.1947  0.0975 -0.1682
 9772TIP3    H153511   4.502   3.486   2.355  0.0842  0.6829 -1.3447
 9772TIP3    H253512   4.602   3.494   2.468  0.1417 -1.0576 -1.2431
 9773TIP3   OH253513   6.740   0.533   2.453 -0.6696 -0.2802 -0.0439
 9773TIP3    H153514   6.758   0.593   2.525 -0.7526  1.6870 -1.5501
 9773TIP3    H253515   6.822   0.486   2.440 -0.0679  0.6834  0.1637
 9774TIP3   OH253516   2.734   5.672   0.544  0.6563 -0.4058  0.0084
 9774TIP3    H153517   2.705   5.586   0.512 -2.7118  0.5431  0.0890
 9774TIP3    H253518   2.673   5.692   0.615  1.0661  2.2374 -0.3145
 9775TIP3   OH253519   7.415   2.702   1.306 -0.2878  0.5431 -0.0349
 9775TIP3    H153520   7.342   2.706   1.244 -0.8336  0.2528  0.5783
 9775TIP3    H253521   7.487   2.746   1.261 -0.4867 -0.1915 -1.1288
 9776TIP3   OH253522   4.070   7.104   1.501 -0.3065 -0.5123 -0.1264
 9776TIP3    H153523   4.113   7.172   1.450  1.3470 -1.2625  0.2149
 9776TIP3    H253524   4.036   7.043   1.436  0.7448 -0.8424 -0.3809
 9777TIP3   OH253525   0.009   1.270   0.556 -0.2464  0.0323 -0.0942
 9777TIP3    H153526  -0.021   1.360   0.553 -2.7344 -0.7160 -3.7708
 9777TIP3    H253527   0.101   1.274   0.529 -0.2677  1.4580 -0.0033
 9778TIP3   OH253528   2.395   0.496   2.456 -0.3978 -0.3835 -0.4693
 9778TIP3    H153529   2.344   0.577   2.449  0.2597  0.0755 -0.0321
 9778TIP3    H253530   2.394   0.475   2.549 -3.0557 -2.5308 -0.8512
 9779TIP3   OH253531   4.814   1.225   2.627 -0.3277  0.1818 -0.0829
 9779TIP3    H153532   4.786   1.315   2.645 -0.7651 -0.1593  1.0785
 9779TIP3    H253533   4.806   1.181   2.712  0.1773 -0.8770 -0.5695
 9780TIP3   OH253534   7.322   0.578   2.154 -0.0932 -0.1162  0.0829
 9780TIP3    H153535   7.280   0.637   2.091 -1.8057 -1.0631  0.2748
 9780TIP3    H253536   7.402   0.623   2.179  0.0892  0.7838 -1.9435
 9781TIP3   OH253537   4.073   2.256   3.328  0.5539  0.5951  0.1166
 9781TIP3    H153538   4.066   2.344   3.290 -3.4457  1.7399  2.8504
 9781TIP3    H253539   4.071   2.197   3.253 -1.5748  2.8026 -1.7387
 9782TIP3   OH253540   4.963   5.691   0.657  0.2304  0.4997 -0.6072
 9782TIP3    H153541   5.047   5.736   0.672 -0.3491  2.0616 -1.7728
 9782TIP3    H253542   4.982   5.599   0.675  2.2681  0.7703 -1.0583
 9783TIP3   OH253543   2.067   5.445   1.721 -0.1337 -0.0720  0.1755
 9783TIP3    H153544   2.050   5.404   1.806 -0.3430 -1.2260 -0.4065
 9783TIP3    H253545   1.985   5.437   1.673 -0.3680  1.5839  0.2407
 9784TIP3   OH253546   3.458   7.253   1.212 -0.2012  0.2175 -0.2999
 9784TIP3    H153547   3.456   7.307   1.133 -1.5875 -0.8732 -1.0551
 9784TIP3    H253548   3.366   7.245   1.238  0.0650 -0.9234  0.3745
 9785TIP3   OH253549   5.188   1.147   1.971  0.0989  0.5197 -0.0305
 9785TIP3    H153550   5.279   1.122   1.955  0.0869 -0.1156  0.7848
 9785TIP3    H253551   5.183   1.158   2.066 -0.5440  1.0978 -0.1255
 9786TIP3   OH253552   2.929   0.524   1.272  0.3100 -0.2121 -0.1453
 9786TIP3    H153553   2.861   0.533   1.205 -0.3820 -1.0417  0.4266
 9786TIP3    H253554   2.891   0.564   1.350  0.3112 -1.0247  0.2821
 9787TIP3   OH253555   3.233   0.177   2.462  0.1997  0.1909 -0.1361
 9787TIP3    H153556   3.154   0.169   2.515  0.5737 -0.2399  0.3634
 9787TIP3    H253557   3.304   0.147   2.519  0.8940  1.6991 -0.1529
 9788TIP3   OH253558   1.371   3.433   1.133  0.0581 -0.5150 -0.1124
 9788TIP3    H153559   1.416   3.478   1.205  0.7917 -2.5139  0.7439
 9788TIP3    H253560   1.407   3.344   1.134 -0.1564 -0.7089 -2.7628
 9789TIP3   OH253561   2.544   3.348   2.085 -0.0864  0.1203  0.0247
 9789TIP3    H153562   2.585   3.349   1.999  0.5326 -1.2025  0.2860
 9789TIP3    H253563   2.617   3.350   2.146 -0.3346 -2.4865  0.4998
 9790TIP3   OH253564   4.590   5.341   1.993  0.3969 -0.4528  0.2419
 9790TIP3    H153565   4.629   5.377   2.072  0.1556  0.7706 -0.1809
 9790TIP3    H253566   4.544   5.263   2.023 -1.2125  0.9524  1.6585
 9791TIP3   OH253567   2.110   4.698   1.841  0.0054 -0.3396 -0.7013
 9791TIP3    H153568   2.180   4.688   1.777  0.9985  2.1231 -0.1311
 9791TIP3    H253569   2.037   4.733   1.791 -1.0442 -3.1689 -1.3512
 9792TIP3   OH253570   7.557   6.672   2.685 -0.3478 -0.0085  0.2909
 9792TIP3    H153571   7.566   6.577   2.687 -0.8996 -0.0740 -0.0947
 9792TIP3    H253572   7.495   6.692   2.754  1.3564  0.2859  1.8116
 9793TIP3   OH253573   1.619   6.043   1.087 -0.2977 -0.2726  0.2285
 9793TIP3    H153574   1.668   6.052   1.169 -0.0372 -0.2408  0.0724
 9793TIP3    H253575   1.660   5.968   1.043  1.0869  1.0813 -0.9078
 9794TIP3   OH253576   1.614   1.353   1.897 -0.3130  0.0734 -0.0257
 9794TIP3    H153577   1.530   1.362   1.852 -1.5389 -2.7937  1.4942
 9794TIP3    H253578   1.678   1.343   1.826 -1.1788  2.1748 -1.2001
 9795TIP3   OH253579   3.079   4.801   2.337  0.2049  0.3470  0.3667
 9795TIP3    H153580   3.145   4.870   2.338 -0.0066  0.5640 -0.0602
 9795TIP3    H253581   3.091   4.755   2.420  0.2027  1.0388  0.7678
 9796TIP3   OH253582   7.134   6.203   1.688  0.5006 -0.3731 -0.0686
 9796TIP3    H153583   7.174   6.122   1.658  0.4203 -0.3282 -0.2980
 9796TIP3    H253584   7.104   6.247   1.608 -1.9307 -1.3838  0.1794
 9797TIP3   OH253585   7.261   6.076   1.936 -0.3002  0.2298  0.3196
 9797TIP3    H153586   7.284   6.079   1.843  1.9602 -2.3496  0.6718
 9797TIP3    H253587   7.178   6.029   1.939 -0.1811 -0.0306 -0.3912
 9798TIP3   OH253588   5.714   5.035   0.858 -0.1493 -0.1635  0.2946
 9798TIP3    H153589   5.685   5.093   0.929 -0.1503 -0.2362  0.3545
 9798TIP3    H253590   5.734   4.952   0.902 -1.6698 -0.7235  0.0137
 9799TIP3   OH253591   3.561   2.091   0.458  0.3227 -0.1363 -0.3601
 9799TIP3    H153592   3.528   2.024   0.519 -1.7489  2.0503  1.1088
 9799TIP3    H253593   3.490   2.104   0.396  0.8872  0.4042 -0.9086
 9800TIP3   OH253594   4.659   0.462   2.017 -0.3299  0.3223 -0.3300
 9800TIP3    H153595   4.752   0.482   2.031  0.2555 -1.6374 -1.1766
 9800TIP3    H253596   4.659   0.388   1.957 -2.4616  0.2086 -0.2511
 9801TIP3   OH253597   2.543   4.381   1.897  0.4852  0.4400  0.7776
 9801TIP3    H153598   2.593   4.339   1.967  0.9602 -0.1926  0.0710
 9801TIP3    H253599   2.606   4.391   1.826 -0.4161 -0.4923 -0.1807
 9802TIP3   OH253600   6.354   4.333   0.968 -0.7361  0.4404 -0.0807
 9802TIP3    H153601   6.364   4.307   1.059 -1.3381 -0.1878 -0.1821
 9802TIP3    H253602   6.290   4.404   0.970 -0.7462  0.4294 -0.0110
 9803TIP3   OH253603   3.156   4.842   2.069 -0.4353 -0.1958  0.0185
 9803TIP3    H153604   3.245   4.861   2.041 -0.7126  0.1332 -0.6659
 9803TIP3    H253605   3.160   4.840   2.164 -0.0496  1.5899  0.0720
 9804TIP3   OH253606   5.633   7.608   1.015  0.1447 -0.0338  0.2246
 9804TIP3    H153607   5.574   7.533   1.011  0.5014 -0.2959 -0.2871
 9804TIP3    H253608   5.635   7.633   1.107  0.6014 -1.1293  0.5205
 9805TIP3   OH253609   1.911   3.578   3.298 -0.3565 -0.1804 -0.1252
 9805TIP3    H153610   1.908   3.673   3.290  0.0518 -0.0203  1.2615
 9805TIP3    H253611   2.003   3.559   3.318 -0.4445 -0.8632 -0.3475
 9806TIP3   OH253612   3.990   2.217   0.672  0.2366  0.2788  0.4376
 9806TIP3    H153613   3.979   2.255   0.759 -1.4857  1.0811 -0.0822
 9806TIP3    H253614   4.065   2.264   0.634  0.0329  1.0104  0.9312
 9807TIP3   OH253615   0.183   0.095   0.938 -0.5469  0.0268  0.1390
 9807TIP3    H153616   0.090   0.117   0.925 -0.3214  1.4025  0.6187
 9807TIP3    H253617   0.228   0.179   0.929  0.4673 -0.3315  1.5110
 9808TIP3   OH253618   6.076   5.436   0.768 -0.0339  0.5490  0.1510
 9808TIP3    H153619   6.138   5.378   0.725 -0.0489  1.6135 -1.4035
 9808TIP3    H253620   6.117   5.459   0.852  3.0165  3.2730 -1.8458
 9809TIP3   OH253621   2.201   6.577   2.700  0.3942  0.6740 -0.0087
 9809TIP3    H153622   2.270   6.636   2.730 -0.2823  1.1210  0.7207
 9809TIP3    H253623   2.120   6.619   2.729 -0.1783  0.0630 -0.6776
 9810TIP3   OH253624   4.246   5.658   3.071  0.4354  0.9053  0.3644
 9810TIP3    H153625   4.189   5.581   3.074 -0.3623  1.3333 -1.6904
 9810TIP3    H253626   4.332   5.623   3.051 -0.4580  0.5647 -3.8749
 9811TIP3   OH253627   0.310   4.171   0.589 -0.0441 -0.3924 -0.2907
 9811TIP3    H153628   0.322   4.131   0.675  1.3471  0.5485 -0.0041
 9811TIP3    H253629   0.363   4.118   0.530 -1.0607 -1.0850 -0.6171
 9812TIP3   OH253630   7.571   2.706   1.019 -0.1318  0.1864 -0.0965
 9812TIP3    H153631   7.539   2.796   1.016  0.1644  0.2892 -2.4273
 9812TIP3    H253632   7.663   2.712   0.990  0.9377 -0.5370  2.8076
 9813TIP3   OH253633   5.852   4.549   1.521 -0.1094  0.3683 -0.2096
 9813TIP3    H153634   5.763   4.532   1.550 -0.0772  1.0726  0.3251
 9813TIP3    H253635   5.907   4.500   1.582 -0.0829  1.0500  0.3287
 9814TIP3   OH253636   7.518   6.660   1.091 -0.3627 -0.2754 -0.0377
 9814TIP3    H153637   7.546   6.574   1.123  1.2106 -0.0379 -0.6664
 9814TIP3    H253638   7.435   6.677   1.135  0.3179 -1.2140  1.6941
 9815TIP3   OH253639   4.075   4.822   0.891 -0.3632  0.1553  0.6200
 9815TIP3    H153640   4.017   4.781   0.955 -0.7795  2.1568  1.6429
 9815TIP3    H253641   4.160   4.828   0.936  0.1028 -0.9029 -0.0875
 9816TIP3   OH253642   0.713   1.749   1.070 -0.0096 -0.0647 -0.4825
 9816TIP3    H153643   0.626   1.773   1.038 -0.2570  0.0947  0.3083
 9816TIP3    H253644   0.696   1.685   1.139  0.4926  0.2067 -0.1073
 9817TIP3   OH253645   5.016   2.224   1.622 -0.0026  0.0000 -0.1432
 9817TIP3    H153646   4.989   2.137   1.596  0.0458 -0.2898  0.7361
 9817TIP3    H253647   5.029   2.271   1.540 -0.0175 -0.8186 -0.6218
 9818TIP3   OH253648   1.321   3.830   2.102  0.1946 -0.1770 -0.0589
 9818TIP3    H153649   1.406   3.786   2.093  2.0504  2.9906  0.2959
 9818TIP3    H253650   1.313   3.883   2.023 -0.7746  0.6142  0.5411
 9819TIP3   OH253651   0.934   0.616   2.973 -0.0017 -0.0538  0.4856
 9819TIP3    H153652   0.858   0.670   2.994 -0.6060 -0.5951 -0.2475
 9819TIP3    H253653   0.951   0.566   3.053  0.6067  1.2466  1.1926
 9820TIP3   OH253654   0.718   6.712   2.802 -0.5636  0.6885  0.6346
 9820TIP3    H153655   0.737   6.645   2.736  1.1613  0.9726  0.7977
 9820TIP3    H253656   0.622   6.718   2.803 -0.7547 -1.5012  0.3627
 9821TIP3   OH253657   1.837   1.151   3.200 -0.2621  0.2143  0.3616
 9821TIP3    H153658   1.849   1.166   3.106 -0.8458  0.5688  0.3341
 9821TIP3    H253659   1.893   1.216   3.242  1.8960 -1.5164  0.2980
 9822TIP3   OH253660   3.736   1.953   3.742 -0.2515 -0.1642  0.4502
 9822TIP3    H153661   3.675   1.883   3.722 -0.6824  0.7233 -1.6034
 9822TIP3    H253662   3.820   1.923   3.708 -0.4986  0.3896 -0.7070
 9823TIP3   OH253663   5.807   0.213   1.413  0.2733 -0.2995  0.4021
 9823TIP3    H153664   5.746   0.150   1.374  1.8005 -0.8527 -1.2499
 9823TIP3    H253665   5.878   0.220   1.349  1.3301  1.2847  1.6641
 9824TIP3   OH253666   1.310   5.666   2.177  0.0481  0.1511  0.0914
 9824TIP3    H153667   1.255   5.741   2.200 -1.5010 -0.9121  0.0465
 9824TIP3    H253668   1.359   5.694   2.100  1.4067  1.9580  1.5150
 9825TIP3   OH253669   7.576   5.466   0.765 -0.2367 -0.3514 -0.3152
 9825TIP3    H153670   7.650   5.500   0.714  0.0990 -1.0378 -0.3028
 9825TIP3    H253671   7.498   5.492   0.716 -0.0623  1.3695  0.2495
 9826TIP3   OH253672   3.113   5.292   1.598 -0.0097 -0.3234 -0.3922
 9826TIP3    H153673   3.056   5.338   1.659 -0.2852  1.2928 -1.8120
 9826TIP3    H253674   3.192   5.345   1.594  1.6854 -2.4953  1.5075
 9827TIP3   OH253675   7.649   4.391   0.620 -0.4419  0.3833 -0.5738
 9827TIP3    H153676   7.565   4.437   0.619 -2.0658 -2.0715  2.7569
 9827TIP3    H253677   7.626   4.299   0.607  1.7217 -0.3686  0.3464
 9828TIP3   OH253678   3.858   4.078   1.028 -0.1866 -0.1030 -0.6001
 9828TIP3    H153679   3.942   4.092   1.073 -0.0766  0.7737 -1.0603
 9828TIP3    H253680   3.804   4.152   1.055 -0.7798 -0.6074 -0.3934
 9829TIP3   OH253681   4.889   1.768   2.711  0.3756  0.0413 -0.3337
 9829TIP3    H153682   4.917   1.709   2.781  1.1834  0.7045 -0.0830
 9829TIP3    H253683   4.936   1.736   2.633  1.3849  0.7640 -0.0473
 9830TIP3   OH253684   2.158   3.679   3.257 -0.2754 -0.4492  0.7962
 9830TIP3    H153685   2.245   3.640   3.257 -0.2989 -0.5117  1.3848
 9830TIP3    H253686   2.150   3.719   3.170  0.0841 -0.9955  0.5081
 9831TIP3   OH253687   4.626   7.166   2.609  0.0643 -0.5333 -0.1119
 9831TIP3    H153688   4.699   7.106   2.621 -0.9924 -1.8054  0.1619
 9831TIP3    H253689   4.571   7.125   2.542  0.5848  1.3852 -1.8108
 9832TIP3   OH253690   6.715   4.286   1.330 -0.6512 -0.0723 -0.2591
 9832TIP3    H153691   6.738   4.227   1.258  0.4333  2.3755 -2.0649
 9832TIP3    H253692   6.794   4.290   1.384 -0.4679  0.2490 -0.5454
 9833TIP3   OH253693   2.513   7.134   2.807 -0.7152  0.5885  0.5387
 9833TIP3    H153694   2.543   7.126   2.897  1.2263 -1.1178 -0.1804
 9833TIP3    H253695   2.553   7.216   2.776 -0.8879  0.8652  1.0389
 9834TIP3   OH253696   6.505   3.368   2.170  0.0152 -0.0011 -0.5711
 9834TIP3    H153697   6.458   3.380   2.253 -0.7215 -0.9413 -0.8321
 9834TIP3    H253698   6.463   3.429   2.110  0.0903  0.1925 -0.4267
 9835TIP3   OH253699   2.543   7.342   3.456 -0.0105  0.1178  0.1181
 9835TIP3    H153700   2.571   7.428   3.424  0.6104  0.1061  0.6000
 9835TIP3    H253701   2.474   7.361   3.519 -1.1452  0.1491 -1.0872
 9836TIP3   OH253702   1.040   6.005   1.500  0.2356 -0.0722  0.2580
 9836TIP3    H153703   1.098   5.931   1.482 -1.0511 -0.8926 -0.6642
 9836TIP3    H253704   0.999   6.026   1.416 -0.2836  0.9514  0.7377
 9837TIP3   OH253705   4.475   2.499   1.362 -0.4541 -0.3628 -0.2684
 9837TIP3    H153706   4.461   2.588   1.393  0.1900  0.6357 -2.6508
 9837TIP3    H253707   4.467   2.505   1.267  0.3801 -2.7054 -0.5482
 9838TIP3   OH253708   2.260   3.806   1.000 -0.4911 -0.1037 -0.3741
 9838TIP3    H153709   2.344   3.778   1.037 -0.8276 -2.0928 -0.9853
 9838TIP3    H253710   2.283   3.855   0.921  0.1336  1.8719  0.9400
 9839TIP3   OH253711   4.627   6.409   2.265 -0.5959  0.7231 -0.0240
 9839TIP3    H153712   4.620   6.463   2.344  1.8390  0.2017  0.6398
 9839TIP3    H253713   4.680   6.461   2.205 -2.2287  1.0063 -1.2726
 9840TIP3   OH253714   0.783   7.127   2.185 -0.0882  0.0522 -0.0704
 9840TIP3    H153715   0.714   7.159   2.127  0.3443  1.5396  0.1906
 9840TIP3    H253716   0.787   7.191   2.256 -0.7211 -1.8165  1.7408
 9841TIP3   OH253717   0.867   1.896   1.756 -0.0351  0.1585  0.8470
 9841TIP3    H153718   0.936   1.842   1.795 -0.4323  1.4000  3.4939
 9841TIP3    H253719   0.834   1.843   1.684  2.4035 -1.2719  0.6396
 9842TIP3   OH253720   0.029   2.429   2.584 -0.0293  0.4569 -0.1306
 9842TIP3    H153721  -0.051   2.454   2.631 -0.2233 -2.3570  1.2456
 9842TIP3    H253722   0.097   2.487   2.619 -0.8618  0.7409  1.0639
 9843TIP3   OH253723   7.500   6.895   1.445  0.3102 -0.4879  0.0195
 9843TIP3    H153724   7.584   6.931   1.416  0.7798 -0.2661  1.5651
 9843TIP3    H253725   7.517   6.801   1.455 -0.0220 -0.6590 -0.9849
 9844TIP3   OH253726   6.343   2.425   2.420 -0.1880  0.2156  0.6524
 9844TIP3    H153727   6.335   2.493   2.354 -1.4007  0.7485  1.3139
 9844TIP3    H253728   6.257   2.382   2.420  0.3689 -0.9387  0.6498
 9845TIP3   OH253729   0.632   4.519   0.718  0.2035 -0.4418 -0.1167
 9845TIP3    H153730   0.726   4.537   0.720 -0.0042  0.6313  2.0137
 9845TIP3    H253731   0.621   4.441   0.773 -0.2512 -0.0213  0.3911
 9846TIP3   OH253732   0.947   6.351   1.204  0.4917 -0.0734 -0.1355
 9846TIP3    H153733   0.924   6.393   1.121  0.7805  2.1218  0.8166
 9846TIP3    H253734   0.917   6.413   1.271  1.8786 -0.9268  1.3418
 9847TIP3   OH253735   6.610   7.201   3.114 -0.7121 -0.2723 -0.1748
 9847TIP3    H153736   6.571   7.287   3.129 -1.4168 -0.3821 -1.3003
 9847TIP3    H253737   6.541   7.138   3.137 -1.1917 -0.4704 -2.0261
 9848TIP3   OH253738   2.857   1.569   1.690 -0.2831 -0.1270 -0.4650
 9848TIP3    H153739   2.899   1.518   1.759 -1.1537 -0.1816  0.0372
 9848TIP3    H253740   2.862   1.659   1.721  3.0612  0.4831 -2.2513
 9849TIP3   OH253741   1.439   1.251   1.667 -0.4264  0.3127 -0.0006
 9849TIP3    H153742   1.494   1.180   1.699 -0.2868  1.1103  1.5892
 9849TIP3    H253743   1.353   1.211   1.655  0.1368 -0.6100 -1.1783
 9850TIP3   OH253744   1.272   4.022   1.361 -0.5936 -0.3669  0.0304
 9850TIP3    H153745   1.351   4.035   1.412  0.4146  1.0518 -1.7470
 9850TIP3    H253746   1.261   4.105   1.313 -3.0019 -0.6256  0.0012
 9851TIP3   OH253747   6.474   7.473   3.122 -0.0775  0.4029  0.0621
 9851TIP3    H153748   6.529   7.551   3.117 -0.1876  0.4288 -0.9009
 9851TIP3    H253749   6.418   7.478   3.044  1.5723 -1.8691 -1.4065
 9852TIP3   OH253750   5.310   7.382   2.091  0.1579  0.0179 -0.4025
 9852TIP3    H153751   5.219   7.366   2.116  0.5972 -0.0829  1.2524
 9852TIP3    H253752   5.308   7.467   2.046 -0.7505  0.0344 -0.3381
 9853TIP3   OH253753   2.268   6.173   0.558  0.1973  0.2754 -0.1517
 9853TIP3    H153754   2.351   6.221   0.558 -0.3984  1.3264  0.7705
 9853TIP3    H253755   2.201   6.240   0.545 -0.4662 -0.7105 -2.2993
 9854TIP3   OH253756   7.351   0.021   2.260 -0.1892 -0.0213  0.2665
 9854TIP3    H153757   7.411   0.090   2.232 -0.7151  0.2638 -0.1823
 9854TIP3    H253758   7.269   0.067   2.281 -0.5416 -0.5060 -0.0177
 9855TIP3   OH253759   2.499   0.083   1.694 -0.0497  0.5920 -0.2977
 9855TIP3    H153760   2.575   0.129   1.730 -0.2796 -0.5352  1.8135
 9855TIP3    H253761   2.535   0.027   1.626  0.8512  0.8164 -0.0216
 9856TIP3   OH253762   2.075   5.297   0.803 -0.2255 -0.2093  0.4127
 9856TIP3    H153763   2.160   5.254   0.791 -0.9423 -2.5806  2.8182
 9856TIP3    H253764   2.025   5.271   0.726  0.2803 -1.4297  0.4659
 9857TIP3   OH253765   1.983   7.510   0.946  0.1239 -0.2930 -0.6016
 9857TIP3    H153766   1.913   7.449   0.970 -0.5347  0.2307 -1.1585
 9857TIP3    H253767   2.026   7.469   0.872  1.4230 -1.3612  0.6981
 9858TIP3   OH253768   4.752   4.666   1.891  0.1647 -0.4382  0.2663
 9858TIP3    H153769   4.746   4.574   1.915  1.7598 -0.6579 -0.0845
 9858TIP3    H253770   4.787   4.709   1.969  0.0723 -0.2359  0.1975
 9859TIP3   OH253771   4.085   6.162   2.323  0.4418  0.3055 -0.3589
 9859TIP3    H153772   4.050   6.246   2.353  0.5697 -0.0802  0.9322
 9859TIP3    H253773   4.077   6.165   2.228  0.0233  1.5917 -0.2975
 9860TIP3   OH253774   6.292   5.855   2.045 -0.0762 -0.1840 -0.2011
 9860TIP3    H153775   6.241   5.936   2.053  0.7865  0.5267 -1.5903
 9860TIP3    H253776   6.371   5.871   2.095 -0.4990 -0.7085  0.6630
 9861TIP3   OH253777   6.730   3.723   2.978  0.0596  0.0989 -0.0554
 9861TIP3    H153778   6.775   3.804   2.954 -1.7601  1.0875 -0.2751
 9861TIP3    H253779   6.754   3.709   3.070  1.4869  0.0980 -0.4032
 9862TIP3   OH253780   5.328   0.166   1.681 -0.1538  0.4088 -0.5044
 9862TIP3    H153781   5.316   0.260   1.691  3.3480  0.9415  0.0879
 9862TIP3    H253782   5.322   0.132   1.770  0.5700  0.4293 -0.4370
 9863TIP3   OH253783   1.939   0.858   2.953 -0.1480  0.2659  0.2947
 9863TIP3    H153784   1.854   0.868   2.994  0.4506  0.6568  1.5007
 9863TIP3    H253785   1.979   0.784   2.999  0.9158  1.3126  1.1041
 9864TIP3   OH253786   4.072   5.970   0.524  0.1391  0.0212  0.5450
 9864TIP3    H153787   4.030   5.928   0.449  2.8393  0.4575 -1.3280
 9864TIP3    H253788   4.039   5.921   0.600 -1.2949 -1.6209 -1.0289
 9865TIP3   OH253789   4.147   3.320   2.100 -0.7921 -0.7034 -0.4035
 9865TIP3    H153790   4.082   3.339   2.032 -1.4590 -0.5988  0.2551
 9865TIP3    H253791   4.163   3.226   2.092 -0.3032 -0.5728 -1.1830
 9866TIP3   OH253792   3.919   5.197   3.566  0.1928  0.8284  0.2667
 9866TIP3    H153793   4.011   5.197   3.540 -0.5702 -0.1477 -3.0008
 9866TIP3    H253794   3.910   5.123   3.625  1.2297 -0.2233 -0.8259
 9867TIP3   OH253795   5.212   0.337   1.937 -0.4580 -0.2268  0.0008
 9867TIP3    H153796   5.177   0.389   1.865  1.3385 -0.6140 -1.2181
 9867TIP3    H253797   5.268   0.397   1.986 -0.6478 -0.2973  0.3111
 9868TIP3   OH253798   7.462   2.217   2.290  0.1179  0.4246 -0.1051
 9868TIP3    H153799   7.442   2.311   2.293 -0.5319  0.3867 -2.0633
 9868TIP3    H253800   7.507   2.200   2.373  0.0651  2.4161  0.3904
 9869TIP3   OH253801   6.241   1.247   2.055  0.2575 -0.2324  0.1266
 9869TIP3    H153802   6.215   1.334   2.024  1.5009 -0.0007 -0.3504
 9869TIP3    H253803   6.164   1.193   2.042 -0.9295  1.0394  1.5224
 9870TIP3   OH253804   2.778   6.238   0.616 -0.5840 -0.0113 -0.1199
 9870TIP3    H153805   2.816   6.208   0.699  0.9131  2.1837  0.1021
 9870TIP3    H253806   2.725   6.165   0.585  0.4558 -1.6573  1.7571
 9871TIP3   OH253807   2.699   0.856   1.949  0.1104 -0.3160  0.2321
 9871TIP3    H153808   2.738   0.936   1.913 -0.9131  0.7153  1.3364
 9871TIP3    H253809   2.618   0.844   1.898 -0.6023  0.3313  1.1848
 9872TIP3   OH253810   3.747   5.869   1.693  0.2179 -0.0520  0.0402
 9872TIP3    H153811   3.673   5.926   1.714 -0.6952 -1.2783  0.2106
 9872TIP3    H253812   3.720   5.782   1.720  2.3047 -0.3336  1.5015
 9873TIP3   OH253813   5.281   6.436   1.299  0.7022  0.2364  0.2156
 9873TIP3    H153814   5.214   6.397   1.356  0.3878 -0.5909 -0.6902
 9873TIP3    H253815   5.271   6.530   1.310 -1.6383  0.1986 -1.0102
 9874TIP3   OH253816   5.520   7.540   2.524 -0.0935  0.0697 -0.1012
 9874TIP3    H153817   5.513   7.599   2.600  1.8918  2.0402 -1.3283
 9874TIP3    H253818   5.601   7.567   2.481 -0.6258 -1.6927 -2.3668
 9875TIP3   OH253819   2.485   2.321   1.391  0.3954  0.1098  0.0289
 9875TIP3    H153820   2.501   2.396   1.333  0.3669 -0.7250 -1.0883
 9875TIP3    H253821   2.401   2.340   1.432 -0.2096  0.1187 -1.1825
 9876TIP3   OH253822   6.086   5.239   1.747  0.1823  0.3949  0.4124
 9876TIP3    H153823   6.032   5.270   1.674  0.5387 -0.5154 -0.2705
 9876TIP3    H253824   6.028   5.182   1.798  0.5131 -0.7273 -0.4222
 9877TIP3   OH253825   1.933   2.757   2.291  0.2774  0.6534  0.5189
 9877TIP3    H153826   1.994   2.728   2.359 -0.4497  0.1577  0.9761
 9877TIP3    H253827   1.971   2.723   2.210  0.8659  0.7740  0.7378
 9878TIP3   OH253828   5.574   1.916   0.484 -0.0301  0.2189 -1.0463
 9878TIP3    H153829   5.661   1.955   0.498 -0.2519  0.8624 -1.4574
 9878TIP3    H253830   5.521   1.987   0.449 -0.6357 -0.2688 -1.1270
 9879TIP3   OH253831   6.228   4.196   2.666 -0.0172 -0.0523  0.3853
 9879TIP3    H153832   6.198   4.124   2.722 -1.0517  0.6816  0.8104
 9879TIP3    H253833   6.193   4.274   2.707  1.3103  0.7354  0.0699
 9880TIP3   OH253834   0.564   3.360   1.248 -0.4581  0.2170  0.2152
 9880TIP3    H153835   0.477   3.400   1.238  0.1115  1.0452 -2.0670
 9880TIP3    H253836   0.614   3.423   1.300 -0.3300  1.2813 -1.1621
 9881TIP3   OH253837   2.612   3.068   3.004 -0.6178 -0.1450 -0.1814
 9881TIP3    H153838   2.664   3.135   3.049 -0.6004  0.6072 -1.3012
 9881TIP3    H253839   2.616   2.993   3.063  3.2856 -0.8052 -0.9995
 9882TIP3   OH253840   2.727   4.586   2.582 -0.5270 -0.6071 -0.3835
 9882TIP3    H153841   2.677   4.587   2.501 -0.2701 -0.2671 -0.5403
 9882TIP3    H253842   2.817   4.569   2.554 -0.4743 -0.7157 -0.1504
 9883TIP3   OH253843   1.338   6.037   0.829 -0.0687 -0.0831 -0.5193
 9883TIP3    H153844   1.292   5.957   0.802 -0.9504 -1.0416  3.2153
 9883TIP3    H253845   1.269   6.104   0.834  0.0455  0.0337 -0.5071
 9884TIP3   OH253846   5.767   1.641   1.223  0.2346  0.1645 -0.0771
 9884TIP3    H153847   5.676   1.672   1.219 -0.4631 -1.6817  0.5836
 9884TIP3    H253848   5.763   1.552   1.191  1.6145 -0.3424  1.0655
 9885TIP3   OH253849   1.162   5.653   0.376 -0.1178  0.1793  0.0687
 9885TIP3    H153850   1.117   5.737   0.389 -0.2614  0.0142  0.6721
 9885TIP3    H253851   1.133   5.599   0.450  1.5590  0.2827  0.8513
 9886TIP3   OH253852   4.860   5.696   1.167 -0.3776 -0.2911  0.1279
 9886TIP3    H153853   4.789   5.634   1.151  1.2467 -2.2848  0.3246
 9886TIP3    H253854   4.850   5.762   1.099 -1.0492 -1.7843 -1.2766
 9887TIP3   OH253855   3.712   6.490   2.824  0.0789  0.6160 -0.3122
 9887TIP3    H153856   3.796   6.451   2.803 -0.8502 -0.5769 -2.0629
 9887TIP3    H253857   3.717   6.580   2.793  0.2628  0.1521 -1.6545
 9888TIP3   OH253858   5.449   1.804   0.737 -0.1895  0.6573  0.5797
 9888TIP3    H153859   5.484   1.833   0.653 -0.0192 -0.4400  0.2599
 9888TIP3    H253860   5.393   1.730   0.716  1.4890 -0.9959  1.5976
 9889TIP3   OH253861   1.559   2.520   1.997 -0.2538 -0.1763 -0.0681
 9889TIP3    H153862   1.541   2.464   2.072 -1.5553 -0.8837 -0.8582
 9889TIP3    H253863   1.608   2.594   2.032 -0.4291 -0.7221  1.3745
 9890TIP3   OH253864   0.320   1.167   3.444  0.1850 -0.3343  0.1129
 9890TIP3    H153865   0.261   1.100   3.480 -2.4733 -0.0078 -3.2009
 9890TIP3    H253866   0.371   1.121   3.377  2.4380 -0.1352  1.5612
 9891TIP3   OH253867   7.070   3.876   2.140 -0.0575  0.0296 -0.0092
 9891TIP3    H153868   7.089   3.811   2.208 -0.9496 -0.6282 -0.3697
 9891TIP3    H253869   6.974   3.882   2.140 -0.0398  0.3665 -0.8847
 9892TIP3   OH253870   5.114   2.124   1.909  0.2316  0.1542 -0.2860
 9892TIP3    H153871   5.181   2.055   1.904  0.1932 -0.0983  1.6783
 9892TIP3    H253872   5.085   2.136   1.819  0.5516 -2.1109 -0.7591
 9893TIP3   OH253873   0.397   0.278   0.627  0.1599 -0.1832 -0.3411
 9893TIP3    H153874   0.452   0.201   0.645 -1.4240 -1.2868 -0.0645
 9893TIP3    H253875   0.390   0.280   0.531  1.6457  0.6954 -0.4623
 9894TIP3   OH253876   1.290   7.137   1.771  0.4700 -0.2308 -0.5816
 9894TIP3    H153877   1.333   7.083   1.837  2.1831  1.7575  0.0748
 9894TIP3    H253878   1.358   7.154   1.706 -0.7662 -0.9296 -2.1243
 9895TIP3   OH253879   0.984   0.614   0.884  0.2848 -0.4019  0.1183
 9895TIP3    H153880   0.933   0.689   0.915  1.0362 -0.0688  0.5822
 9895TIP3    H253881   1.022   0.644   0.801  1.4701  0.1487  0.8332
 9896TIP3   OH253882   6.416   6.855   2.436 -0.5759  0.0201 -0.1752
 9896TIP3    H153883   6.455   6.890   2.516 -0.8948 -0.0576  0.0179
 9896TIP3    H253884   6.349   6.918   2.412  1.2177  1.4099 -1.8506
 9897TIP3   OH253885   4.464   3.988   2.226 -0.0269  0.0210 -0.1389
 9897TIP3    H153886   4.558   4.003   2.220 -0.0238 -0.0037 -0.1508
 9897TIP3    H253887   4.454   3.893   2.228 -0.0450  0.0249 -0.0375
 9898TIP3   OH253888   4.385   4.423   0.767 -0.1027  0.4117 -0.1527
 9898TIP3    H153889   4.315   4.483   0.741  0.4548  1.2008  0.1354
 9898TIP3    H253890   4.381   4.352   0.703 -0.1112  1.2609 -1.1153
 9899TIP3   OH253891   0.050   4.372   2.012 -0.2345  0.1143  0.5782
 9899TIP3    H153892  -0.032   4.330   2.039 -0.4007 -0.6143 -0.9077
 9899TIP3    H253893   0.106   4.368   2.090 -0.8298 -1.4395  0.9786
 9900TIP3   OH253894   2.362   6.079   0.831 -0.4668  0.2374  0.4896
 9900TIP3    H153895   2.367   6.172   0.850 -1.3363  0.2007  0.9187
 9900TIP3    H253896   2.315   6.074   0.747  1.7301  0.2948 -0.8390
 9901TIP3   OH253897   6.811   6.205   0.798 -0.4956 -0.0970  0.2614
 9901TIP3    H153898   6.863   6.283   0.815 -1.1324  0.6988 -1.2311
 9901TIP3    H253899   6.753   6.197   0.874 -1.3132  1.6476 -0.1304
 9902TIP3   OH253900   0.585   5.110   2.003 -0.5213  0.0329 -0.3014
 9902TIP3    H153901   0.611   5.021   1.976 -1.7262 -0.5475  0.3284
 9902TIP3    H253902   0.562   5.101   2.095 -1.3878  0.8247 -0.4274
 9903TIP3   OH253903   1.625   2.637   2.716  0.2657 -0.2590 -0.0336
 9903TIP3    H153904   1.652   2.719   2.757 -0.4209 -0.8315  1.6680
 9903TIP3    H253905   1.560   2.662   2.651 -0.2545  0.5314  0.7671
 9904TIP3   OH253906   7.580   6.191   2.992  0.0426  0.5856 -0.2453
 9904TIP3    H153907   7.537   6.274   2.972 -0.9604  0.7479  2.2417
 9904TIP3    H253908   7.658   6.217   3.042 -2.0030  0.1055  3.5759
 9905TIP3   OH253909   7.626   5.136   2.576  0.0716  0.0024 -0.1200
 9905TIP3    H153910   7.636   5.143   2.670 -0.0604 -1.1092 -0.0010
 9905TIP3    H253911   7.710   5.164   2.540  0.7363 -1.1868  0.4315
 9906TIP3   OH253912   6.799   1.417   0.607  0.1452 -0.6474 -0.2452
 9906TIP3    H153913   6.820   1.506   0.579  0.4973 -1.4823 -2.9196
 9906TIP3    H253914   6.715   1.398   0.565 -1.3059 -0.7281  2.4688
 9907TIP3   OH253915   4.936   0.485   2.936  0.7136  0.0046  0.3130
 9907TIP3    H153916   4.846   0.501   2.963  1.2119  1.1714  1.4055
 9907TIP3    H253917   4.961   0.404   2.982  0.5436  0.2502  0.8491
 9908TIP3   OH253918   6.563   0.818   0.655  0.5999 -0.2517 -0.0981
 9908TIP3    H153919   6.519   0.881   0.711  2.3828  0.5045  0.5518
 9908TIP3    H253920   6.536   0.732   0.689 -0.8492  0.1534 -0.1754
 9909TIP3   OH253921   6.591   2.633   1.184 -0.2178 -0.8429 -0.4192
 9909TIP3    H153922   6.668   2.657   1.236 -0.7882 -0.7121  0.3920
 9909TIP3    H253923   6.597   2.538   1.175  0.3013 -0.7796 -0.7988
 9910TIP3   OH253924   3.549   1.774   2.838 -0.1391  0.1469  0.0759
 9910TIP3    H153925   3.571   1.699   2.894  0.3501  0.9906  1.0598
 9910TIP3    H253926   3.453   1.772   2.834 -0.1410 -0.4390  0.2204
 9911TIP3   OH253927   2.543   0.158   2.123  0.2776  0.1522 -0.7179
 9911TIP3    H153928   2.580   0.104   2.192  1.0096  1.1401 -0.3208
 9911TIP3    H253929   2.462   0.194   2.160 -0.1400 -0.5359 -0.9363
 9912TIP3   OH253930   5.519   3.368   2.234 -0.5631 -0.0274  0.4914
 9912TIP3    H153931   5.431   3.336   2.252 -0.6894  0.0759  0.0721
 9912TIP3    H253932   5.510   3.419   2.154 -0.3564  1.0334  1.1323
 9913TIP3   OH253933   3.988   1.137   1.683 -0.1370  0.8020 -0.2899
 9913TIP3    H153934   3.966   1.188   1.761  0.5710  0.0255  0.4543
 9913TIP3    H253935   4.083   1.145   1.675  0.3505 -2.0670  1.1513
 9914TIP3   OH253936   7.089   2.644   0.910 -0.0171 -0.5539 -0.0231
 9914TIP3    H153937   7.043   2.681   0.986  0.1663 -1.1505  0.3904
 9914TIP3    H253938   7.176   2.621   0.945  1.6661  3.0004 -1.3763
 9915TIP3   OH253939   4.702   6.624   1.064 -0.1128 -0.4834 -0.3379
 9915TIP3    H153940   4.677   6.618   0.972 -0.5238 -0.7071 -0.2122
 9915TIP3    H253941   4.666   6.545   1.105 -0.0181 -0.3383  0.0380
 9916TIP3   OH253942   1.277   3.469   2.125 -0.6762  0.1238  0.4781
 9916TIP3    H153943   1.346   3.527   2.092  0.0789  0.0321  1.8166
 9916TIP3    H253944   1.209   3.471   2.057  0.1845  1.0421 -0.3875
 9917TIP3   OH253945   1.578   3.865   3.195  0.3912  0.1152 -0.0600
 9917TIP3    H153946   1.578   3.946   3.247  0.8764  0.2768 -0.3079
 9917TIP3    H253947   1.499   3.819   3.224  0.7568  0.1014  0.9784
 9918TIP3   OH253948   0.920   4.458   0.922  0.4696  0.1751 -0.0715
 9918TIP3    H153949   0.906   4.544   0.882  0.7150  0.5388  0.6097
 9918TIP3    H253950   0.855   4.401   0.880  0.4947  0.6200 -0.7373
 9919TIP3   OH253951   6.780   0.260   0.798 -1.0450 -0.1986 -0.4167
 9919TIP3    H153952   6.716   0.198   0.832 -0.1623 -1.2359 -0.5696
 9919TIP3    H253953   6.752   0.277   0.708 -0.0357 -2.2337 -1.1770
 9920TIP3   OH253954   6.488   6.728   1.482  0.6020  0.2542  0.2760
 9920TIP3    H153955   6.473   6.743   1.576  0.2144 -1.5758  0.5533
 9920TIP3    H253956   6.436   6.795   1.438 -0.2724  0.3257  1.3736
 9921TIP3   OH253957   4.157   3.314   2.755  0.1966 -0.7112  0.2357
 9921TIP3    H153958   4.163   3.318   2.850  2.1903 -1.7240  0.1983
 9921TIP3    H253959   4.224   3.374   2.724 -1.5772  0.9596 -0.6161
 9922TIP3   OH253960   3.207   3.590   2.090 -0.0490 -0.4038  0.1113
 9922TIP3    H153961   3.267   3.615   2.020 -0.2206 -1.1973 -0.3248
 9922TIP3    H253962   3.120   3.590   2.050 -0.3485  0.6037  0.7063
 9923TIP3   OH253963   1.526   0.441   2.825  0.1768  0.1046 -0.1757
 9923TIP3    H153964   1.580   0.519   2.813  0.4574  0.0592  0.7035
 9923TIP3    H253965   1.491   0.423   2.738  0.4659  0.9462 -0.4837
 9924TIP3   OH253966   3.748   1.789   1.218 -0.3286  0.1491  0.5473
 9924TIP3    H153967   3.722   1.702   1.247 -1.4744  0.6973  1.2071
 9924TIP3    H253968   3.766   1.778   1.124  0.4496 -0.9792  0.8088
 9925TIP3   OH253969   6.324   7.493   2.508  0.1113  0.8221 -0.3676
 9925TIP3    H153970   6.351   7.513   2.598 -1.1086 -0.3268  0.2972
 9925TIP3    H253971   6.334   7.575   2.461  1.0567  1.3751  0.7478
 9926TIP3   OH253972   0.965   7.543   1.852 -0.1449 -0.1399 -0.2143
 9926TIP3    H153973   1.054   7.526   1.821 -0.0310  1.3068 -0.7552
 9926TIP3    H253974   0.965   7.509   1.942  0.7881 -0.6314 -0.3830
 9927TIP3   OH253975   4.665   3.815   1.647 -0.2530  0.1675 -0.4751
 9927TIP3    H153976   4.718   3.890   1.619 -0.9894  0.0992 -2.1772
 9927TIP3    H253977   4.626   3.843   1.730  2.2522  0.2730  0.7499
 9928TIP3   OH253978   3.828   1.486   0.835  0.0303 -0.2148  0.3042
 9928TIP3    H153979   3.895   1.421   0.859 -1.7965 -1.7707  1.5057
 9928TIP3    H253980   3.774   1.495   0.913 -1.1411  1.0458 -0.6049
 9929TIP3   OH253981   5.809   6.812   1.676 -0.1441  0.1161 -0.4114
 9929TIP3    H153982   5.870   6.750   1.716 -0.0860  0.9252  0.8279
 9929TIP3    H253983   5.854   6.844   1.598  0.1508 -0.8110 -0.6278
 9930TIP3   OH253984   5.570   6.480   1.318  0.0445 -0.2712 -0.0374
 9930TIP3    H153985   5.484   6.439   1.311  0.0641 -0.3253  0.0328
 9930TIP3    H253986   5.623   6.435   1.252  0.6336 -1.8096  1.4228
 9931TIP3   OH253987   0.048   0.448   3.369  0.2887  0.1461  0.8777
 9931TIP3    H153988   0.040   0.481   3.459 -1.0678  1.5536  0.2807
 9931TIP3    H253989   0.142   0.456   3.350  0.6352 -0.3397  2.1968
 9932TIP3   OH253990   2.715   2.661   0.750 -0.7165  0.8230  0.0553
 9932TIP3    H153991   2.675   2.747   0.739 -1.0309  1.1009  2.7017
 9932TIP3    H253992   2.710   2.644   0.844  4.3286  0.3522  0.4985
 9933TIP3   OH253993   1.502   4.919   1.231 -0.3542  0.4156  0.7088
 9933TIP3    H153994   1.585   4.887   1.265 -0.3312 -0.2766  0.0274
 9933TIP3    H253995   1.519   5.011   1.208  0.6607 -0.1130 -0.7851
 9934TIP3   OH253996   4.580   2.095   1.333 -0.0810 -0.1875 -0.4201
 9934TIP3    H153997   4.493   2.122   1.360 -0.1499 -1.0594  0.2678
 9934TIP3    H253998   4.626   2.177   1.315 -0.7093  0.3192  0.2404
 9935TIP3   OH253999   1.546   0.325   2.574  0.3421  0.0887 -0.2668
 9935TIP3    H154000   1.474   0.284   2.526  0.4325 -1.0933  0.5590
 9935TIP3    H254001   1.609   0.254   2.588  0.8980  0.7086  0.4752
 9936TIP3   OH254002   7.543   5.725   1.843  0.7191 -0.1639 -0.4265
 9936TIP3    H154003   7.562   5.642   1.799 -0.1155 -0.8764  0.4961
 9936TIP3    H254004   7.629   5.759   1.868  1.0028 -1.6331  0.7156
 9937TIP3   OH254005   4.843   1.604   0.803 -0.4996  0.7635  0.0742
 9937TIP3    H154006   4.759   1.617   0.846  0.3164  2.0048  1.4140
 9937TIP3    H254007   4.896   1.557   0.867  0.6589  2.4073  0.4134
 9938TIP3   OH254008   2.180   5.224   0.380 -0.1355  0.1710 -0.2863
 9938TIP3    H154009   2.222   5.307   0.400 -2.5895  1.2856  0.6459
 9938TIP3    H254010   2.087   5.244   0.377 -0.8956 -2.6704  0.6733
 9939TIP3   OH254011   6.742   0.060   2.219  0.3062  0.5963 -0.0531
 9939TIP3    H154012   6.765   0.061   2.312 -1.5721 -0.6015  0.4876
 9939TIP3    H254013   6.729   0.153   2.196  1.7652  0.9801  0.5817
 9940TIP3   OH254014   2.247   6.621   1.263  0.2260  0.2217 -0.3585
 9940TIP3    H154015   2.236   6.594   1.354 -0.9914  0.1119 -0.5295
 9940TIP3    H254016   2.198   6.703   1.256 -0.9731 -0.5592 -1.2873
 9941TIP3   OH254017   5.384   6.234   2.912 -0.0522  0.3022  0.7947
 9941TIP3    H154018   5.401   6.224   3.005 -0.8844  1.4976  1.0923
 9941TIP3    H254019   5.403   6.326   2.893 -0.1843  0.1453 -0.1479
 9942TIP3   OH254020   5.058   7.599   1.168  0.5828  0.3224 -0.0243
 9942TIP3    H154021   5.115   7.530   1.203  1.7653  0.7941 -0.9439
 9942TIP3    H254022   5.118   7.666   1.136 -0.5299  2.0715  1.3360
 9943TIP3   OH254023   3.572   6.766   1.658  0.4365  0.1839  0.1844
 9943TIP3    H154024   3.483   6.783   1.688  0.6828 -1.8218  2.3611
 9943TIP3    H254025   3.580   6.815   1.576 -1.8040  2.4629  1.2031
 9944TIP3   OH254026   2.371   0.060   1.929  0.4406  0.4492  0.3615
 9944TIP3    H154027   2.432   0.107   1.986  2.8572 -0.3167 -1.3946
 9944TIP3    H254028   2.423   0.037   1.852 -1.7155 -1.5558 -0.6410
 9945TIP3   OH254029   6.781   4.074   1.726 -0.2195  0.1793 -0.8398
 9945TIP3    H154030   6.841   4.133   1.772  1.0102 -0.7407 -1.2127
 9945TIP3    H254031   6.695   4.093   1.764  0.7834 -0.9500  2.3396
 9946TIP3   OH254032   2.333   1.172   1.957  0.1991 -0.4337  0.1315
 9946TIP3    H154033   2.347   1.189   2.050 -1.6195  2.8959 -0.0229
 9946TIP3    H254034   2.418   1.189   1.916  0.4863  0.2909  0.9953
 9947TIP3   OH254035   2.904   1.598   2.653  0.4439 -0.2034  0.2261
 9947TIP3    H154036   2.814   1.628   2.663 -0.6478 -1.6616 -3.3560
 9947TIP3    H254037   2.898   1.502   2.658  1.4266 -0.4215 -1.6019
 9948TIP3   OH254038   7.426   1.131   1.193 -0.3585  0.0288 -0.2230
 9948TIP3    H154039   7.488   1.151   1.262 -0.6031 -1.0571  0.3379
 9948TIP3    H254040   7.468   1.061   1.143 -1.0392 -0.5893  0.0537
 9949TIP3   OH254041   6.657   6.011   2.661 -0.5825  0.4483 -0.1603
 9949TIP3    H154042   6.715   5.939   2.636  0.2245  1.6204 -1.8148
 9949TIP3    H254043   6.702   6.054   2.734  0.0941  0.6650 -0.6951
 9950TIP3   OH254044   4.050   4.300   3.079  0.7220  0.5902 -0.1945
 9950TIP3    H154045   3.976   4.241   3.064  1.6265 -0.2400 -1.5534
 9950TIP3    H254046   4.017   4.386   3.051  0.8708 -0.1273 -2.7888
 9951TIP3   OH254047   6.775   6.081   2.085 -0.0729 -0.3635 -0.2098
 9951TIP3    H154048   6.789   6.059   2.177  2.7215 -1.7718 -0.8610
 9951TIP3    H254049   6.852   6.133   2.061  1.0541 -2.8454 -2.5049
 9952TIP3   OH254050   2.833   1.284   0.991 -0.7314  0.5370  0.0525
 9952TIP3    H154051   2.927   1.288   0.970 -0.3233 -0.1638  1.6586
 9952TIP3    H254052   2.815   1.369   1.031 -1.2585  1.4306 -1.9485
 9953TIP3   OH254053   3.201   4.254   0.786 -0.2515  0.0852  0.0820
 9953TIP3    H154054   3.201   4.179   0.845 -3.3342  1.2043  1.7861
 9953TIP3    H254055   3.136   4.231   0.719 -1.8415  1.4367  1.0829
 9954TIP3   OH254056   2.669   3.953   1.017  0.2102  0.2023 -0.0773
 9954TIP3    H154057   2.591   4.009   1.011 -0.7075 -0.5461  2.8665
 9954TIP3    H254058   2.634   3.866   1.039  1.8188 -0.4370  0.0972
 9955TIP3   OH254059   0.430   5.198   2.234 -0.7051 -0.0599 -1.1870
 9955TIP3    H154060   0.382   5.260   2.179  0.3093  0.1654 -1.8380
 9955TIP3    H254061   0.484   5.254   2.290 -0.3804 -0.3381 -1.2236
 9956TIP3   OH254062   6.149   3.871   1.083 -0.2718 -0.0126 -0.5395
 9956TIP3    H154063   6.103   3.929   1.023 -1.8734  0.0905  0.7359
 9956TIP3    H254064   6.116   3.784   1.062 -1.0199  0.0493  0.3084
 9957TIP3   OH254065   0.311   3.827   3.072 -0.7462 -0.3308 -0.3516
 9957TIP3    H154066   0.401   3.806   3.099 -0.9096  0.4810  0.8960
 9957TIP3    H254067   0.320   3.853   2.980  0.1882 -0.8965 -0.4392
 9958TIP3   OH254068   1.895   1.547   3.244 -0.2130  0.2229  0.0352
 9958TIP3    H154069   1.959   1.478   3.263 -0.2450  0.2759  0.3445
 9958TIP3    H254070   1.841   1.552   3.323 -1.6475 -0.9583 -0.8272
 9959TIP3   OH254071   0.829   5.765   3.211 -0.0545  0.2674 -0.1082
 9959TIP3    H154072   0.919   5.778   3.240 -0.5099  2.1028  0.6397
 9959TIP3    H254073   0.784   5.845   3.237 -1.7603 -0.3326 -1.0589
 9960TIP3   OH254074   6.611   6.119   1.089 -0.0698  0.0013 -0.2903
 9960TIP3    H154075   6.598   6.178   1.164 -2.1070 -1.0579  0.2719
 9960TIP3    H254076   6.556   6.155   1.020 -0.0662 -0.3461 -0.4760
 9961TIP3   OH254077   2.205   1.315   0.527  0.2900  0.4444  0.0054
 9961TIP3    H154078   2.228   1.353   0.612  1.8133  1.3682 -0.7889
 9961TIP3    H254079   2.111   1.333   0.517  0.2579  0.9941  1.1479
 9962TIP3   OH254080   0.613   6.138   2.520 -0.4000 -0.8825 -0.7031
 9962TIP3    H154081   0.671   6.186   2.579 -0.3071 -0.7852 -0.8739
 9962TIP3    H254082   0.671   6.077   2.473 -0.6910 -2.0609  0.4151
 9963TIP3   OH254083   5.954   6.237   0.630 -0.6273 -0.6706 -0.9587
 9963TIP3    H154084   5.982   6.161   0.579  0.3148 -0.6503 -0.5062
 9963TIP3    H254085   5.894   6.202   0.696  1.0070 -1.3160  0.2562
 9964TIP3   OH254086   0.953   2.986   3.459  0.0989  0.6865  0.1664
 9964TIP3    H154087   0.881   3.045   3.440 -0.8846 -0.2879  0.7611
 9964TIP3    H254088   0.922   2.932   3.532  1.1179 -0.2812 -0.0793
 9965TIP3   OH254089   1.047   4.867   0.615 -0.2917  0.5896  0.5617
 9965TIP3    H154090   0.996   4.912   0.548 -0.5078 -0.5051 -0.0338
 9965TIP3    H254091   1.059   4.932   0.685 -1.5250  1.2094  0.2147
 9966TIP3   OH254092   1.449   6.059   2.632  0.8701  0.0399  0.0803
 9966TIP3    H154093   1.367   6.106   2.616  0.8184 -0.2046 -0.3717
 9966TIP3    H254094   1.471   6.018   2.548  0.5305 -1.3669  0.6516
 9967TIP3   OH254095   3.015   1.369   1.293  0.0373  0.2621 -0.3631
 9967TIP3    H154096   2.950   1.316   1.246 -0.2787  0.6281 -0.3513
 9967TIP3    H254097   3.061   1.307   1.349 -0.4911  0.0342 -0.1723
 9968TIP3   OH254098   7.657   6.900   1.769  0.2245 -0.2757 -0.1239
 9968TIP3    H154099   7.626   6.830   1.712 -1.2462 -0.6219  1.0299
 9968TIP3    H254100   7.688   6.855   1.848  1.0874  0.2622 -0.1465
 9969TIP3   OH254101   5.025   5.301   2.768 -0.7556  0.4806  0.0168
 9969TIP3    H154102   5.078   5.255   2.703  0.5695  0.1842  1.2742
 9969TIP3    H254103   5.050   5.263   2.852 -3.9719 -0.6643  0.5879
 9970TIP3   OH254104   2.125   4.158   1.724  0.0339  0.2861 -0.1031
 9970TIP3    H154105   2.162   4.132   1.808 -0.4868  2.8448  1.0245
 9970TIP3    H254106   2.046   4.207   1.746 -1.7646 -1.4348 -2.2664
 9971TIP3   OH254107   3.532   2.306   2.335 -0.0958 -0.4687 -0.2329
 9971TIP3    H154108   3.578   2.327   2.254  0.2668  1.1388  0.3582
 9971TIP3    H254109   3.446   2.348   2.327  0.6308  1.3952  0.9509
 9972TIP3   OH254110   3.691   3.973   2.031 -0.2449  0.7336 -0.1165
 9972TIP3    H154111   3.617   3.914   2.047 -0.3808  0.9999  0.2560
 9972TIP3    H254112   3.754   3.950   2.100  0.0403  0.4721 -0.4647
 9973TIP3   OH254113   1.550   3.216   2.489  0.3262  0.0177 -0.2055
 9973TIP3    H154114   1.554   3.306   2.455  2.2194  0.0276 -0.0536
 9973TIP3    H254115   1.575   3.162   2.414  0.0614 -0.3113 -0.0540
 9974TIP3   OH254116   5.509   2.188   1.248 -0.3938  0.1585  0.4698
 9974TIP3    H154117   5.466   2.106   1.274 -0.0309  0.5364  2.4414
 9974TIP3    H254118   5.587   2.160   1.200  0.0800 -0.6929  1.6794
 9975TIP3   OH254119   1.656   7.155   1.400  0.0458  0.3579  0.5630
 9975TIP3    H154120   1.651   7.241   1.358  2.0847  1.3363  2.0947
 9975TIP3    H254121   1.748   7.148   1.427  0.3494 -3.0278 -0.8700
 9976TIP3   OH254122   2.569   7.253   3.150 -0.1672  0.1505 -0.1100
 9976TIP3    H154123   2.571   7.278   3.242 -0.2193 -4.4234  1.4275
 9976TIP3    H254124   2.637   7.306   3.109 -0.5436  2.7690  2.3823
 9977TIP3   OH254125   2.997   5.229   0.965 -0.1874 -0.0888 -0.1661
 9977TIP3    H154126   2.993   5.279   1.047  1.2456 -0.3061  0.0611
 9977TIP3    H254127   3.058   5.279   0.911 -0.4068 -0.4539 -0.7486
 9978TIP3   OH254128   7.175   2.529   1.842 -0.6380 -0.4344 -0.2209
 9978TIP3    H154129   7.137   2.452   1.885  0.8900 -1.6878 -1.0345
 9978TIP3    H254130   7.250   2.553   1.895 -1.6534  1.1676  0.5853
 9979TIP3   OH254131   1.952   5.466   3.265 -0.3859 -0.1508  0.0408
 9979TIP3    H154132   1.898   5.474   3.344 -0.5279 -1.1071  0.0446
 9979TIP3    H254133   1.899   5.415   3.204 -0.7000  1.4262 -1.0734
 9980TIP3   OH254134   1.815   3.695   2.310  0.1869 -0.4572 -0.3339
 9980TIP3    H154135   1.849   3.606   2.317  0.2270 -0.4369 -0.2636
 9980TIP3    H254136   1.752   3.702   2.382 -0.2136 -0.6032 -0.6684
 9981TIP3   OH254137   4.339   5.411   2.213  0.3088  0.4832 -0.2297
 9981TIP3    H154138   4.367   5.324   2.186 -1.8096  0.0628 -1.2986
 9981TIP3    H254139   4.340   5.463   2.133  0.0445  0.9951  0.0909
 9982TIP3   OH254140   7.493   6.346   2.616  0.1862 -0.1772  0.6962
 9982TIP3    H154141   7.532   6.264   2.647 -0.1831 -0.4332  0.4920
 9982TIP3    H254142   7.400   6.338   2.638 -0.0742 -0.3527 -0.4428
 9983TIP3   OH254143   5.023   0.155   2.048 -0.2356  0.1246  0.7592
 9983TIP3    H154144   5.088   0.208   2.001 -0.6434  0.1972  0.2654
 9983TIP3    H254145   4.969   0.117   1.979 -0.8898  0.2886  1.1712
 9984TIP3   OH254146   3.766   2.792   1.625  0.4478  0.1763  0.1132
 9984TIP3    H154147   3.679   2.823   1.651  0.1976  1.7858 -2.2342
 9984TIP3    H254148   3.827   2.850   1.671  0.1436  0.9572 -0.4415
 9985TIP3   OH254149   4.829   3.204   0.838 -0.2679  1.1880 -0.3179
 9985TIP3    H154150   4.756   3.142   0.844  0.3710  0.4218 -0.3319
 9985TIP3    H254151   4.884   3.169   0.769  0.8083  1.0111  0.6052
 9986TIP3   OH254152   5.713   2.362   0.583  0.1637  0.4725  0.4413
 9986TIP3    H154153   5.692   2.372   0.676  0.7050 -0.7313  0.7144
 9986TIP3    H254154   5.808   2.366   0.579  0.1166  1.3080 -0.1812
 9987TIP3   OH254155   1.626   5.280   2.030 -0.0390 -0.6113  0.0525
 9987TIP3    H154156   1.536   5.309   2.047  0.4813  0.6347  0.7758
 9987TIP3    H254157   1.665   5.351   1.980  0.9621 -0.5175  0.9494
 9988TIP3   OH254158   7.095   3.054   0.585  0.4157  0.1178 -0.1457
 9988TIP3    H154159   7.137   2.977   0.624 -0.3457 -0.1672  0.1326
 9988TIP3    H254160   7.020   3.071   0.642 -1.6685 -1.2555 -2.2786
 9989TIP3   OH254161   0.737   5.785   1.975 -0.5214 -0.4725  0.1936
 9989TIP3    H154162   0.702   5.696   1.972  0.3562 -0.8093 -1.5529
 9989TIP3    H254163   0.720   5.815   2.064 -3.0480 -1.4786  0.1471
 9990TIP3   OH254164   0.591   2.071   1.738  0.0200  0.4778  0.4386
 9990TIP3    H154165   0.631   1.993   1.776 -0.2733  1.0435  1.9898
 9990TIP3    H254166   0.610   2.065   1.644 -0.2853 -1.6028  0.4712
 9991TIP3   OH254167   1.883   1.154   1.559 -0.3948 -0.0528  0.0683
 9991TIP3    H154168   1.968   1.140   1.517 -0.8417 -0.9402 -0.5772
 9991TIP3    H254169   1.903   1.201   1.640  0.7404 -0.4916  0.0556
 9992TIP3   OH254170   0.082   5.868   1.914 -0.3751 -0.3857 -0.0676
 9992TIP3    H154171   0.163   5.905   1.880 -0.0027 -0.2908  0.8828
 9992TIP3    H254172   0.019   5.939   1.910 -0.3496 -0.3925 -0.5946
 9993TIP3   OH254173   0.399   6.804   2.457  0.1223  0.1666 -0.4103
 9993TIP3    H154174   0.306   6.809   2.477 -0.4706  0.4585 -2.8399
 9993TIP3    H254175   0.413   6.713   2.431  0.5168  0.1310 -0.0869
 9994TIP3   OH254176   2.615   4.517   0.779 -0.4391  0.0535 -0.3292
 9994TIP3    H154177   2.576   4.430   0.777  0.8102 -0.5178 -1.3789
 9994TIP3    H254178   2.679   4.513   0.850 -0.1260 -0.0093 -0.6120
 9995TIP3   OH254179   2.012   6.451   0.858  0.0819  0.1317 -0.3843
 9995TIP3    H154180   1.997   6.541   0.829 -0.3784  0.0791 -0.3025
 9995TIP3    H254181   1.930   6.405   0.843  0.2732 -0.2481 -0.3059
 9996TIP3   OH254182   1.250   3.226   2.789  0.0536  0.7456 -0.0938
 9996TIP3    H154183   1.164   3.259   2.764  0.3778  2.4294  0.8868
 9996TIP3    H254184   1.239   3.192   2.877 -0.5165 -2.9684 -1.3981
 9997TIP3   OH254185   0.254   2.385   1.623 -0.0433 -0.5092 -0.2537
 9997TIP3    H154186   0.244   2.343   1.708  0.8445 -1.0771 -0.4127
 9997TIP3    H254187   0.348   2.383   1.606 -0.3008 -1.4620 -1.7696
 9998TIP3   OH254188   5.808   4.378   0.563  0.1016 -0.2664  0.3502
 9998TIP3    H154189   5.886   4.324   0.555  1.1278  1.4004 -1.9023
 9998TIP3    H254190   5.839   4.468   0.553 -1.9321  0.5523  0.8231
 9999TIP3   OH254191   7.569   3.935   2.448  0.1173  0.5821 -0.1834
 9999TIP3    H154192   7.619   3.872   2.398  1.4837  0.9328  0.6854
 9999TIP3    H254193   7.479   3.925   2.417  0.8278  0.4607 -2.3145
10000TIP3   OH254194   4.376   4.856   2.622 -0.4231  0.5777 -0.8151
10000TIP3    H154195   4.358   4.898   2.706 -0.9105 -0.6917 -0.2533
10000TIP3    H254196   4.356   4.923   2.557 -0.4641  1.4426  0.0605
10001TIP3   OH254197   5.879   2.603   2.449 -1.2114  0.3471  0.2061
10001TIP3    H154198   5.872   2.532   2.513  1.0113  1.5796  1.9685
10001TIP3    H254199   5.831   2.676   2.488  0.5203  1.2446  0.7636
10002TIP3   OH254200   0.572   5.030   1.131  0.1626 -0.0944 -0.5130
10002TIP3    H154201   0.502   4.983   1.176 -0.2519  1.2080  0.2467
10002TIP3    H254202   0.531   5.061   1.050 -0.1139  0.5261 -0.1455
10003TIP3   OH254203   2.520   6.643   2.081  0.4605  0.1343  0.7698
10003TIP3    H154204   2.507   6.699   2.158 -0.4319  0.2133  0.5767
10003TIP3    H254205   2.512   6.703   2.007 -0.8019 -0.2875  0.5482
10004TIP3   OH254206   5.866   4.427   2.328  0.3241 -0.0154  0.2495
10004TIP3    H154207   5.839   4.460   2.414 -1.6812  0.7317 -0.5983
10004TIP3    H254208   5.836   4.495   2.267  0.3493 -1.2265 -1.1526
10005TIP3   OH254209   0.384   1.569   2.712  0.2122 -0.0469 -0.3882
10005TIP3    H154210   0.295   1.576   2.746  1.3874 -1.1578  3.3892
10005TIP3    H254211   0.403   1.475   2.716  2.1874  0.3550  0.8581
10006TIP3   OH254212   6.117   5.512   2.906  0.1924  0.2115  0.2652
10006TIP3    H154213   6.039   5.461   2.884  0.2332  0.7256 -1.1848
10006TIP3    H254214   6.154   5.468   2.982 -0.8720 -0.7246  0.2678
10007TIP3   OH254215   3.272   6.235   1.348 -0.2346 -0.4449 -0.5708
10007TIP3    H154216   3.257   6.151   1.303 -0.8948 -2.0739  2.4287
10007TIP3    H254217   3.292   6.210   1.438 -1.8754  2.6805  0.7853
10008TIP3   OH254218   5.174   1.725   0.532 -0.3008 -0.8228 -0.1461
10008TIP3    H154219   5.251   1.674   0.560 -0.1183 -0.4609  0.0281
10008TIP3    H254220   5.103   1.662   0.528 -0.2684 -0.9401  0.8991
10009TIP3   OH254221   0.138   4.611   1.914 -0.0689  0.4741 -0.1435
10009TIP3    H154222   0.096   4.541   1.964  1.0618 -1.1458 -1.3815
10009TIP3    H254223   0.082   4.687   1.929 -1.7506 -0.8544  0.6764
10010TIP3   OH254224   2.654   4.847   2.502 -0.1534 -0.2541  0.0102
10010TIP3    H154225   2.713   4.845   2.426 -1.3434 -0.5144 -0.9264
10010TIP3    H254226   2.636   4.755   2.520 -1.4218 -0.1560 -0.6435
10011TIP3   OH254227   3.985   1.886   3.576 -0.3319 -0.5323  0.0139
10011TIP3    H154228   3.966   1.813   3.518 -0.2874 -1.2456  0.8753
10011TIP3    H254229   4.075   1.871   3.606 -0.6256 -0.6293  0.8954
10012TIP3   OH254230   0.581   6.430   2.486  0.2705  0.2675 -0.1499
10012TIP3    H154231   0.541   6.353   2.446  1.2856 -0.0336 -0.6274
10012TIP3    H254232   0.626   6.397   2.563  0.6288  0.3938 -0.3024
10013TIP3   OH254233   4.440   5.373   0.874 -0.1841 -0.1099 -0.3273
10013TIP3    H154234   4.404   5.320   0.945 -0.8876 -1.4143 -1.5978
10013TIP3    H254235   4.462   5.310   0.806  2.3065  0.8982 -0.5518
10014TIP3   OH254236   7.216   7.128   0.794 -0.3635 -0.1207 -0.0983
10014TIP3    H154237   7.220   7.218   0.826 -0.8162 -0.9263  2.4940
10014TIP3    H254238   7.307   7.099   0.792 -0.3318 -0.0869  0.6389
10015TIP3   OH254239   2.723   7.148   1.455  0.5880 -0.1281 -0.3297
10015TIP3    H154240   2.695   7.139   1.364  0.1829  1.0012 -0.3316
10015TIP3    H254241   2.802   7.095   1.461 -1.7048 -3.8834 -0.2077
10016TIP3   OH254242   7.173   4.518   1.168 -0.2384 -0.1835 -0.0818
10016TIP3    H154243   7.257   4.490   1.132 -0.5362  1.1214 -1.9297
10016TIP3    H254244   7.195   4.552   1.255  0.9616 -0.8140 -0.1114
10017TIP3   OH254245   3.371   6.389   1.697  0.0882 -0.2635 -0.2405
10017TIP3    H154246   3.294   6.439   1.669 -0.6668 -1.1980  0.1253
10017TIP3    H254247   3.401   6.434   1.776 -1.6853 -1.4022  1.1507
10018TIP3   OH254248   4.613   2.579   0.731 -0.1253  0.3301 -0.1639
10018TIP3    H154249   4.674   2.546   0.665 -0.3515  1.8321 -1.1768
10018TIP3    H254250   4.539   2.520   0.728  0.1817 -0.0328 -0.7531
10019TIP3   OH254251   5.693   6.125   1.160 -0.1982 -0.2910  0.2213
10019TIP3    H154252   5.781   6.141   1.193 -0.3350 -0.2918  0.5900
10019TIP3    H254253   5.649   6.078   1.230  0.6492 -3.7649 -1.3693
10020TIP3   OH254254   6.832   2.595   1.539 -0.2614 -0.1129 -0.2277
10020TIP3    H154255   6.743   2.561   1.555 -0.6137  0.9860  0.2222
10020TIP3    H254256   6.818   2.678   1.495  0.5556  0.0755 -0.1414
10021TIP3   OH254257   6.184   5.046   2.524  0.2385 -0.4798 -0.0479
10021TIP3    H154258   6.145   5.132   2.507 -1.6010 -1.1208  0.6783
10021TIP3    H254259   6.245   5.061   2.596  3.4583  1.0417 -2.8410
10022TIP3   OH254260   6.563   5.318   2.267 -0.4223 -0.4919 -0.1428
10022TIP3    H154261   6.474   5.333   2.300 -1.4459  1.5977 -3.3425
10022TIP3    H254262   6.554   5.243   2.208 -0.2994  0.2893 -1.1707
10023TIP3   OH254263   6.300   3.778   1.862 -0.4252 -0.0995  0.5247
10023TIP3    H154264   6.294   3.868   1.828  0.9654  1.1226  3.1801
10023TIP3    H254265   6.261   3.783   1.950 -1.4099 -2.4251  0.2800
10024TIP3   OH254266   0.044   7.542   2.639 -0.5316  0.5425 -0.4602
10024TIP3    H154267   0.001   7.595   2.572 -1.5736  0.7908  0.3776
10024TIP3    H254268   0.001   7.456   2.631  0.4988  0.0730 -1.1905
10025TIP3   OH254269   6.627   2.280   1.895  0.0689 -0.1875  0.0723
10025TIP3    H154270   6.677   2.255   1.817 -0.9878  0.4425 -0.8413
10025TIP3    H254271   6.543   2.234   1.885 -0.0167 -0.2419  0.9454
10026TIP3   OH254272   3.563   0.692   2.290  0.1662  0.1591  0.2557
10026TIP3    H154273   3.503   0.623   2.260  1.1818 -1.3468  1.5296
10026TIP3    H254274   3.546   0.766   2.231  0.3050 -1.7649 -2.3811
10027TIP3   OH254275   6.971   2.248   1.699 -0.4213 -0.3841 -0.5213
10027TIP3    H154276   6.999   2.292   1.619 -0.1456 -0.7763 -0.6449
10027TIP3    H254277   7.052   2.210   1.734 -0.2974  0.8967  0.6496
10028TIP3   OH254278   1.711   2.684   1.069  0.3847 -0.1795 -0.0371
10028TIP3    H154279   1.758   2.602   1.085  1.2988  0.1536 -0.9560
10028TIP3    H254280   1.779   2.752   1.074 -0.1154  0.3803 -0.6672
10029TIP3   OH254281   7.449   4.898   2.026  0.8765  0.1282 -0.0611
10029TIP3    H154282   7.434   4.992   2.035 -0.0220  0.0744 -0.8812
10029TIP3    H254283   7.490   4.872   2.109 -0.1235  0.9867  0.7204
10030TIP3   OH254284   3.472   1.244   2.357  0.4210 -0.2946 -0.4120
10030TIP3    H154285   3.488   1.303   2.430  0.0163 -0.2559 -0.3520
10030TIP3    H254286   3.541   1.264   2.294  0.4927 -0.0034 -0.2432
10031TIP3   OH254287   6.690   7.665   1.736 -0.0166 -0.0637  0.7009
10031TIP3    H154288   6.783   7.685   1.724  0.4538 -2.7704 -1.1488
10031TIP3    H254289   6.686   7.608   1.812 -0.2435  0.3411  1.0004
10032TIP3   OH254290   3.672   3.846   1.105 -0.0768  0.7878  0.0915
10032TIP3    H154291   3.707   3.782   1.044 -0.3788 -1.3286  2.0133
10032TIP3    H254292   3.743   3.909   1.118  0.3270  0.7155 -1.6331
10033TIP3   OH254293   1.919   4.336   1.734 -0.4947 -0.6270  0.3834
10033TIP3    H154294   1.862   4.381   1.672  0.2330  0.5218  0.5159
10033TIP3    H254295   1.876   4.347   1.819  0.3840  1.1507  0.6506
10034TIP3   OH254296   3.415   3.870   2.544 -0.1906  0.2613  0.0027
10034TIP3    H154297   3.491   3.914   2.505  0.6742 -1.3631 -0.2595
10034TIP3    H254298   3.409   3.787   2.497 -0.4260 -0.8484  1.8871
10035TIP3   OH254299   4.313   0.599   2.227  0.1184  0.8391  0.1904
10035TIP3    H154300   4.386   0.658   2.208 -0.7756  1.4689 -1.5496
10035TIP3    H254301   4.265   0.642   2.298  1.0579  0.7328  0.9137
10036TIP3   OH254302   6.288   4.285   1.767  0.6328 -0.7119 -0.3720
10036TIP3    H154303   6.208   4.323   1.731 -0.0775 -2.1807 -0.3737
10036TIP3    H254304   6.354   4.353   1.753 -0.5994  0.5343 -0.3455
10037TIP3   OH254305   6.702   7.505   2.131  0.3127 -0.0122  0.3399
10037TIP3    H154306   6.698   7.600   2.123 -0.8872 -0.0916 -0.2404
10037TIP3    H254307   6.700   7.489   2.226 -0.7117  0.5116  0.4164
10038TIP3   OH254308   3.644   3.419   2.877  0.6061  0.4890  0.4687
10038TIP3    H154309   3.730   3.422   2.919  0.2632  0.1394  1.2102
10038TIP3    H254310   3.596   3.353   2.926 -0.1938  0.8996  0.2524
10039TIP3   OH254311   5.540   5.909   2.872  0.4975  0.2059  0.0527
10039TIP3    H154312   5.614   5.856   2.845  0.3537 -1.1515  2.0765
10039TIP3    H254313   5.555   5.925   2.966 -1.9529 -0.5256  0.6624
10040TIP3   OH254314   7.017   1.935   2.873  0.8599  0.5004  0.4088
10040TIP3    H154315   6.960   1.963   2.944 -0.5236 -0.1798 -0.4039
10040TIP3    H254316   7.086   1.884   2.917  0.5602  0.8763  1.3424
10041TIP3   OH254317   5.816   3.457   2.008  0.3391 -0.0797  0.4365
10041TIP3    H154318   5.753   3.461   1.936 -0.5054 -1.0426  1.0995
10041TIP3    H254319   5.900   3.444   1.965  0.1567  1.4346 -0.4738
10042TIP3   OH254320   4.628   0.617   2.419 -0.1632 -0.1563  0.3288
10042TIP3    H154321   4.711   0.572   2.404 -0.3287 -0.4053  0.1546
10042TIP3    H254322   4.593   0.634   2.331 -0.6894 -0.7878  0.4044
10043TIP3   OH254323   5.184   5.134   0.615 -1.1547 -0.3859  0.5984
10043TIP3    H154324   5.240   5.191   0.562 -0.6055 -1.7666 -0.3518
10043TIP3    H254325   5.244   5.070   0.654 -1.8902 -1.0452  0.6731
10044TIP3   OH254326   4.119   1.184   3.397  0.9485  0.5600 -0.4375
10044TIP3    H154327   4.101   1.118   3.464  0.4283  0.0610 -1.0567
10044TIP3    H254328   4.140   1.263   3.447  1.3230  0.0016  0.3086
10045TIP3   OH254329   0.519   6.192   2.978 -0.0287  0.3407 -0.0424
10045TIP3    H154330   0.488   6.161   3.063 -1.7499 -0.6770 -0.9824
10045TIP3    H254331   0.575   6.266   2.999 -0.7120  0.3635  1.9665
10046TIP3   OH254332   0.498   2.006   2.987 -0.1612 -0.0014  0.5528
10046TIP3    H154333   0.480   1.917   2.956 -2.2296  1.0682 -1.6773
10046TIP3    H254334   0.566   2.038   2.928 -0.5091  0.3809  0.3561
10047TIP3   OH254335   0.235   5.433   1.336 -0.1231  0.5374 -0.1414
10047TIP3    H154336   0.263   5.352   1.379 -0.6794  0.2796 -0.2459
10047TIP3    H254337   0.180   5.477   1.401  0.9994  1.3446  0.2931
10048TIP3   OH254338   4.780   5.072   1.875  0.2112  0.1201 -0.3657
10048TIP3    H154339   4.832   5.102   1.801  1.6693 -0.8261  0.2316
10048TIP3    H254340   4.714   5.014   1.837  1.3388 -0.8540 -0.8655
10049TIP3   OH254341   6.633   4.005   3.070 -0.3266  0.4580 -0.1085
10049TIP3    H154342   6.652   4.082   3.124  0.2247  0.4341 -0.2634
10049TIP3    H254343   6.609   3.937   3.134 -0.0612  0.5413  0.0839
10050TIP3   OH254344   3.707   0.854   2.475  0.3350  0.4342  0.0986
10050TIP3    H154345   3.664   0.934   2.445  0.9491  0.3206 -1.1908
10050TIP3    H254346   3.683   0.789   2.409  0.7405 -0.1535  0.5283
10051TIP3   OH254347   4.106   6.992   2.159 -0.4039 -0.1668  0.2460
10051TIP3    H154348   4.090   6.934   2.085 -0.9747 -1.4467  1.3208
10051TIP3    H254349   4.027   7.045   2.165 -0.3241 -0.0048 -0.0944
10052TIP3   OH254350   5.532   2.183   0.425  0.1277  0.0914 -0.0925
10052TIP3    H154351   5.521   2.259   0.368 -0.3949  1.2351  1.4630
10052TIP3    H254352   5.590   2.213   0.495  0.3509 -1.1176  0.2611
10053TIP3   OH254353   5.867   1.481   2.608  0.1949  0.0791 -0.6304
10053TIP3    H154354   5.946   1.426   2.604 -0.6374 -1.2486  0.4998
10053TIP3    H254355   5.899   1.569   2.585  2.1130 -0.3204  0.2316
10054TIP3   OH254356   2.239   5.481   1.407 -0.1474 -0.2246  0.1555
10054TIP3    H154357   2.161   5.445   1.366  0.1783 -0.3353 -0.3688
10054TIP3    H254358   2.294   5.404   1.426  0.9406  0.0312 -1.7681
10055TIP3   OH254359   7.608   7.054   2.105 -0.4489  0.6067 -0.0753
10055TIP3    H154360   7.581   7.079   2.194 -3.7292 -1.6475 -0.2764
10055TIP3    H254361   7.533   7.077   2.050  0.6210 -0.1109 -1.9013
10056TIP3   OH254362   3.096   0.734   0.895 -0.2321  0.1401  0.5092
10056TIP3    H154363   3.025   0.680   0.859 -1.3479  1.7086  0.2602
10056TIP3    H254364   3.173   0.706   0.846 -0.9967 -0.4412 -0.4280
10057TIP3   OH254365   0.685   7.358   0.884  0.2378 -0.4243  0.1630
10057TIP3    H154366   0.744   7.360   0.809  0.2372 -1.7936  0.0913
10057TIP3    H254367   0.725   7.295   0.944 -1.1876 -1.4786  0.0610
10058TIP3   OH254368   0.672   2.054   2.792 -0.7047 -0.3754  0.6889
10058TIP3    H154369   0.624   2.096   2.720 -0.8102  0.3573  1.1740
10058TIP3    H254370   0.764   2.075   2.775 -0.8511  1.1606  1.5980
10059TIP3   OH254371   0.133   1.452   2.161 -0.2189  0.1644  0.5008
10059TIP3    H154372   0.073   1.403   2.105  1.1513 -0.5309 -0.4110
10059TIP3    H254373   0.123   1.413   2.247 -0.5842 -0.4008  0.2091
10060TIP3   OH254374   5.193   4.851   2.965  0.5441 -0.1743  0.4748
10060TIP3    H154375   5.154   4.867   2.880 -0.1877 -0.1491  0.8062
10060TIP3    H254376   5.223   4.937   2.996  0.2256 -0.0806  0.5225
10061TIP3   OH254377   1.467   5.689   1.707 -0.3814 -0.0330  0.4587
10061TIP3    H154378   1.496   5.724   1.623  0.6035 -0.1897  0.7193
10061TIP3    H254379   1.372   5.698   1.706 -0.3038  0.7626 -0.3094
10062TIP3   OH254380   7.239   7.572   1.696 -0.3134 -0.2059 -0.2502
10062TIP3    H154381   7.226   7.477   1.700  1.5388 -0.5087 -0.6658
10062TIP3    H254382   7.330   7.583   1.670 -0.0876  1.7024  1.1110
10063TIP3   OH254383   6.536   0.428   1.254  0.1780  0.2630 -0.0025
10063TIP3    H154384   6.549   0.509   1.204 -0.6666  1.3343  1.4389
10063TIP3    H254385   6.597   0.366   1.214 -1.2772  0.6558 -3.1393
10064TIP3   OH254386   2.490   0.191   1.116  0.2269  0.2425  0.2848
10064TIP3    H154387   2.500   0.269   1.170  1.9511 -0.7141  1.4410
10064TIP3    H254388   2.564   0.135   1.140 -0.4428 -1.3697 -1.1665
10065TIP3   OH254389   3.987   4.957   2.574 -0.0488  0.0185 -0.3852
10065TIP3    H154390   4.020   5.034   2.527  0.0241  0.5197  0.4640
10065TIP3    H254391   3.935   4.910   2.509 -0.1368  0.8078 -0.9033
10066TIP3   OH254392   1.891   4.197   0.606  0.2944  0.0009 -0.2533
10066TIP3    H154393   1.821   4.165   0.550 -0.6575  1.6359 -0.0705
10066TIP3    H254394   1.893   4.135   0.679  0.5061 -1.2596 -1.2850
10067TIP3   OH254395   2.672   6.521   1.900 -0.6404 -0.4564  0.3965
10067TIP3    H154396   2.623   6.564   1.971 -0.3684 -1.3136  1.1329
10067TIP3    H254397   2.742   6.474   1.945  0.1681 -0.1745 -0.5511
10068TIP3   OH254398   3.959   3.888   0.867  0.5152 -0.2596 -0.3688
10068TIP3    H154399   3.909   3.951   0.920 -1.1483 -1.7332 -0.1286
10068TIP3    H254400   4.049   3.922   0.869 -0.0664  1.3226  0.9420
10069TIP3   OH254401   6.050   6.019   2.343 -0.2680  0.4882 -0.1437
10069TIP3    H154402   6.036   5.937   2.295 -1.8742  1.0426 -0.6732
10069TIP3    H254403   6.067   6.084   2.275  1.0830  0.6090  0.2815
10070TIP3   OH254404   1.572   0.530   2.406 -0.1739 -0.3880 -0.7214
10070TIP3    H154405   1.478   0.548   2.409 -0.3789 -0.6808 -3.0946
10070TIP3    H254406   1.585   0.459   2.468 -1.5172 -0.2901 -0.3045
10071TIP3   OH254407   2.424   2.946   2.733  0.0476 -0.1594  0.0073
10071TIP3    H154408   2.439   2.876   2.796 -2.3661  0.6807  1.6426
10071TIP3    H254409   2.330   2.946   2.718  0.0578  2.1882 -0.5624
10072TIP3   OH254410   7.184   4.237   2.611  0.7071  0.2425 -0.8205
10072TIP3    H154411   7.132   4.201   2.683  2.9603 -1.7969 -0.0795
10072TIP3    H254412   7.120   4.252   2.541 -1.4375  1.5846  1.2627
10073TIP3   OH254413   2.099   5.635   0.670 -0.4470 -0.5776 -0.3537
10073TIP3    H154414   2.173   5.638   0.731 -0.6843 -0.6217 -0.0576
10073TIP3    H254415   2.094   5.723   0.633  0.8523 -1.0440 -1.7144
10074TIP3   OH254416   1.616   5.435   1.103  0.0484  0.1894  0.1082
10074TIP3    H154417   1.694   5.395   1.066 -1.5647 -0.7831 -2.5623
10074TIP3    H254418   1.568   5.469   1.028 -1.1357  2.6553  1.8422
10075TIP3   OH254419   4.719   0.999   1.384 -0.0638 -0.3919  0.0894
10075TIP3    H154420   4.793   0.955   1.425 -0.2774 -0.1529  0.7556
10075TIP3    H254421   4.757   1.074   1.339  0.4476 -1.8079 -1.9866
10076TIP3   OH254422   3.371   0.010   3.315 -0.3477 -0.4521 -0.1137
10076TIP3    H154423   3.462   0.015   3.343  0.2672 -3.0880 -1.2948
10076TIP3    H254424   3.373  -0.047   3.238 -2.8716  0.3473 -0.8679
10077TIP3   OH254425   3.090   6.627   2.642 -0.6518 -0.0294  0.2325
10077TIP3    H154426   3.132   6.582   2.568 -2.0832 -1.3250  0.1393
10077TIP3    H254427   3.155   6.689   2.673  0.9431 -1.2521 -0.5102
10078TIP3   OH254428   7.074   7.665   0.734  0.0236  0.0550 -0.1118
10078TIP3    H154429   7.148   7.697   0.683  0.6141 -0.3481  0.4775
10078TIP3    H254430   7.076   7.717   0.814 -0.3912  0.1084 -0.1367
10079TIP3   OH254431   1.645   0.010   2.786 -0.5522 -0.3582  0.4344
10079TIP3    H154432   1.681   0.049   2.707 -3.2282 -0.4689 -0.9208
10079TIP3    H254433   1.709  -0.057   2.811  1.4677  1.2110 -0.2516
10080TIP3   OH254434   5.974   5.904   2.812  0.4689  0.5494  0.0416
10080TIP3    H154435   5.943   5.979   2.762 -0.1394  0.8953  0.9163
10080TIP3    H254436   5.923   5.907   2.893  0.3923 -0.8293  0.0698
10081TIP3   OH254437   6.279   6.707   3.088  0.4436  0.1031 -0.2704
10081TIP3    H154438   6.252   6.633   3.142 -0.6883  0.3874 -0.4371
10081TIP3    H254439   6.317   6.667   3.009 -0.2884 -0.3041 -0.4239
10082TIP3   OH254440   3.413   3.575   2.813 -0.2774  0.6856  0.4804
10082TIP3    H154441   3.345   3.544   2.754  0.0125  2.1058 -0.6616
10082TIP3    H254442   3.488   3.518   2.795 -0.2322  1.0247 -0.4469
10083TIP3   OH254443   3.595   2.366   3.318 -0.6455  0.3613  0.3193
10083TIP3    H154444   3.676   2.417   3.318 -1.1690  1.2156 -0.8311
10083TIP3    H254445   3.619   2.284   3.361  1.0665  0.2306 -0.8259
10084TIP3   OH254446   2.024   1.399   1.262 -0.5938  0.1067  0.0686
10084TIP3    H154447   1.939   1.375   1.227  0.2641 -0.0700 -2.0456
10084TIP3    H254448   2.057   1.466   1.202  1.0334 -0.3323  0.4095
10085TIP3   OH254449   6.359   2.436   0.816  0.3690  0.2264 -0.0956
10085TIP3    H154450   6.379   2.523   0.852 -0.4125  0.6081 -0.5488
10085TIP3    H254451   6.263   2.436   0.804  0.2519 -1.0103  0.6876
10086TIP3   OH254452   5.099   1.106   3.387 -0.6300 -0.1569  0.3501
10086TIP3    H154453   5.097   1.025   3.337 -2.7409 -0.7065  1.2223
10086TIP3    H254454   5.120   1.174   3.323 -1.5780 -1.0546 -0.9525
10087TIP3   OH254455   0.362   3.261   1.535  0.0327  0.1876 -0.0420
10087TIP3    H154456   0.456   3.260   1.551  0.1997 -1.2732 -0.9093
10087TIP3    H254457   0.346   3.345   1.492  0.5690  1.3543  1.9214
10088TIP3   OH254458   1.627   0.545   1.926 -0.2943  0.2727  0.4798
10088TIP3    H154459   1.720   0.541   1.951 -0.0799  0.9698 -0.2009
10088TIP3    H254460   1.581   0.562   2.008  0.2769  0.9818  0.6636
10089TIP3   OH254461   0.787   5.954   2.374  0.1294 -0.8223  0.2565
10089TIP3    H154462   0.829   6.026   2.327 -1.7507  0.7640  0.8380
10089TIP3    H254463   0.730   5.913   2.308  0.0533 -0.7874  0.3005
10090TIP3   OH254464   4.907   5.851   0.939 -0.8385  0.5881 -0.2068
10090TIP3    H154465   4.967   5.794   0.891 -1.7850 -1.6520  1.0795
10090TIP3    H254466   4.914   5.936   0.896  1.7731 -0.0924 -1.2984
10091TIP3   OH254467   3.525   0.445   1.874 -0.4430 -0.2046  0.4555
10091TIP3    H154468   3.480   0.509   1.929  1.1061  0.4372  1.0516
10091TIP3    H254469   3.618   0.459   1.893  0.3216  0.9579 -3.2406
10092TIP3   OH254470   0.555   4.988   2.402  0.1664  0.6983 -0.6201
10092TIP3    H154471   0.513   5.071   2.425  0.0493  0.3902  0.3659
10092TIP3    H254472   0.517   4.925   2.464  0.7773  0.0580 -0.8900
10093TIP3   OH254473   4.418   5.124   1.015 -0.0815 -0.6729 -0.2112
10093TIP3    H154474   4.370   5.044   1.035 -0.9742  0.3023  1.7921
10093TIP3    H254475   4.502   5.113   1.059  0.0409 -0.7753 -0.4714
10094TIP3   OH254476   1.941   6.486   1.794 -0.3322  0.1056 -0.1966
10094TIP3    H154477   1.981   6.437   1.866  0.2457 -0.1612 -0.6935
10094TIP3    H254478   1.915   6.569   1.834  1.1705  0.4923  0.0459
10095TIP3   OH254479   5.291   1.497   2.350  0.2541 -0.2736 -0.2466
10095TIP3    H154480   5.302   1.572   2.410 -0.0710  0.4386 -1.0570
10095TIP3    H254481   5.269   1.537   2.266  1.5604 -1.2166 -1.0677
10096TIP3   OH254482   2.840   4.963   2.348  0.1092  0.2946  0.3431
10096TIP3    H154483   2.860   5.024   2.418  2.0524 -1.6057  1.5455
10096TIP3    H254484   2.921   4.916   2.332 -1.2433 -1.8892 -0.6104
10097TIP3   OH254485   5.351   4.766   1.743  0.4587 -0.0398  0.3028
10097TIP3    H154486   5.419   4.737   1.804  0.3170 -0.0301  0.4682
10097TIP3    H254487   5.279   4.794   1.800  1.0520  1.8526  0.2145
10098TIP3   OH254488   3.816   0.025   1.377 -0.3023 -0.2639 -0.5079
10098TIP3    H154489   3.757   0.087   1.420  1.4380  0.9767  0.1759
10098TIP3    H254490   3.844   0.070   1.297  1.7487  0.3271  0.4859
10099TIP3   OH254491   4.443   0.146   2.290  0.4856  0.0405 -0.3605
10099TIP3    H154492   4.490   0.105   2.218  0.6805  0.3085 -0.3869
10099TIP3    H254493   4.428   0.237   2.261 -1.2025 -0.3729 -0.9120
10100TIP3   OH254494   0.309   6.423   1.140  0.2593  0.4002 -0.3888
10100TIP3    H154495   0.362   6.362   1.191  0.0910  0.6255  0.0625
10100TIP3    H254496   0.219   6.407   1.169  0.2904  1.4287  0.3576
10101TIP3   OH254497   4.879   4.377   3.151  0.2031 -0.2085 -0.0582
10101TIP3    H154498   4.906   4.287   3.165 -0.0057  0.0063  1.9849
10101TIP3    H254499   4.948   4.430   3.190  1.6368  0.6983 -3.4085
10102TIP3   OH254500   7.500   1.035   2.910 -0.1082 -0.0069  0.1544
10102TIP3    H154501   7.579   1.057   2.958 -1.1155  0.0675  1.8712
10102TIP3    H254502   7.510   0.943   2.886  0.3034 -0.1248  0.7720
10103TIP3   OH254503   0.269   0.997   0.736  0.1746 -0.1285 -0.1366
10103TIP3    H154504   0.234   0.908   0.739 -1.5413  0.4651 -0.9711
10103TIP3    H254505   0.193   1.051   0.716  0.8769  1.7267  1.8338
10104TIP3   OH254506   4.389   2.969   1.127 -0.1781 -0.0821 -0.1337
10104TIP3    H154507   4.359   2.946   1.039 -0.3280 -1.9805  0.3806
10104TIP3    H254508   4.328   3.037   1.156  0.3897  1.2117 -1.7767
10105TIP3   OH254509   4.048   5.505   1.836 -0.2335  0.3077  0.8241
10105TIP3    H154510   4.104   5.578   1.862  0.9796 -0.3222  0.0744
10105TIP3    H254511   4.045   5.511   1.740  0.5071 -1.0421  0.6936
10106TIP3   OH254512   3.793   2.550   2.206 -0.5504  0.4253  0.3777
10106TIP3    H154513   3.720   2.574   2.264 -2.0126 -0.7612 -0.8827
10106TIP3    H254514   3.818   2.632   2.163 -1.2506  0.8203  0.7048
10107TIP3   OH254515   6.851   2.628   2.578 -0.2731  0.2271 -0.0418
10107TIP3    H154516   6.935   2.673   2.590 -0.8810  1.9351 -1.6962
10107TIP3    H254517   6.875   2.537   2.563  1.1690  0.3696  1.1529
10108TIP3   OH254518   5.374   7.050   1.717  0.2003 -0.1587  0.6562
10108TIP3    H154519   5.441   6.990   1.749  0.4378 -0.2241  0.0417
10108TIP3    H254520   5.419   7.104   1.653 -0.3467 -0.2292  0.2105
10109TIP3   OH254521   1.037   5.897   3.333  0.2313  0.1607  0.4901
10109TIP3    H154522   0.989   5.899   3.416  1.0488  1.4171  0.9646
10109TIP3    H254523   1.128   5.912   3.358  0.9676 -2.4234 -0.3688
10110TIP3   OH254524   1.085   2.517   2.956  0.1088  0.0089  0.3316
10110TIP3    H154525   1.001   2.491   2.994  0.5592 -1.2485  0.5051
10110TIP3    H254526   1.135   2.552   3.029  0.5402 -1.3175  0.6992
10111TIP3   OH254527   7.198   0.475   1.723  0.0876 -0.4062 -0.3741
10111TIP3    H154528   7.283   0.511   1.700  0.3829  0.1834  1.4764
10111TIP3    H254529   7.200   0.385   1.689  1.4411 -0.3979 -0.3754
10112TIP3   OH254530   7.142   1.337   1.735 -0.6016  0.2435 -0.1366
10112TIP3    H154531   7.200   1.400   1.691 -0.3989  0.5937  0.6104
10112TIP3    H254532   7.083   1.307   1.666  1.1904 -0.9935 -1.2045
10113TIP3   OH254533   6.316   2.290   2.057  0.0150  0.4836 -0.1127
10113TIP3    H154534   6.325   2.221   2.123  0.5082  2.0468  1.5371
10113TIP3    H254535   6.349   2.369   2.100 -0.6942  1.8058 -1.8614
10114TIP3   OH254536   0.296   0.451   3.260  0.1122 -0.0459 -0.2665
10114TIP3    H154537   0.382   0.481   3.288  0.0362 -0.0031 -0.0697
10114TIP3    H254538   0.308   0.418   3.171  0.1939  0.5933 -0.4978
10115TIP3   OH254539   1.361   3.463   2.692 -0.8017  0.2804 -0.3133
10115TIP3    H154540   1.336   3.374   2.667  0.0121  0.3070 -1.2515
10115TIP3    H254541   1.387   3.455   2.784 -2.1188 -0.1585  0.0457
10116TIP3   OH254542   3.321   7.058   2.439  0.2416  0.3276  0.1374
10116TIP3    H154543   3.248   6.997   2.451  1.8361 -1.9397 -0.9790
10116TIP3    H254544   3.329   7.068   2.344 -0.1993  2.6601  0.2893
10117TIP3   OH254545   4.617   2.817   1.452 -0.1613 -0.0046  0.3739
10117TIP3    H154546   4.525   2.798   1.431  0.0514 -0.4560 -0.1949
10117TIP3    H254547   4.613   2.874   1.528 -0.9463  0.8461 -0.2865
10118TIP3   OH254548   1.096   7.414   2.579  0.2988 -0.2159 -0.2904
10118TIP3    H154549   1.050   7.383   2.657 -1.4307  1.9701 -0.3526
10118TIP3    H254550   1.110   7.507   2.594  0.5725  0.1206 -2.2779
10119TIP3   OH254551   6.651   7.120   1.888 -0.4377 -0.2916  0.0972
10119TIP3    H154552   6.703   7.075   1.955  1.6051  0.3301 -0.9916
10119TIP3    H254553   6.617   7.050   1.833 -0.2169 -0.6884  0.4555
10120TIP3   OH254554   3.818   1.172   1.444 -0.7480 -0.1863 -0.2200
10120TIP3    H154555   3.807   1.246   1.385  0.3418  1.2851  1.3256
10120TIP3    H254556   3.873   1.205   1.514  0.5888 -2.7547  0.0704
10121TIP3   OH254557   2.242   7.318   1.445  0.1208  0.3377  0.0202
10121TIP3    H154558   2.171   7.302   1.382 -0.0356  0.3519  0.1913
10121TIP3    H254559   2.237   7.411   1.464  1.6222  0.8276 -1.6788
10122TIP3   OH254560   1.639   4.352   0.951 -1.1003  0.4524 -0.3322
10122TIP3    H154561   1.664   4.438   0.986  1.5099 -0.4902  0.2591
10122TIP3    H254562   1.568   4.372   0.889 -0.5819  3.0207 -0.2101
10123TIP3   OH254563   4.042   0.289   0.962 -0.0382  0.0816  0.3415
10123TIP3    H154564   4.130   0.269   0.932 -0.4310  0.0697 -0.8366
10123TIP3    H254565   4.019   0.371   0.919  0.2240  1.3062  2.3951
10124TIP3   OH254566   7.357   6.120   2.199  0.2011 -0.0965 -0.5965
10124TIP3    H154567   7.293   6.135   2.130 -1.3667 -2.3938  0.2234
10124TIP3    H254568   7.425   6.067   2.156 -0.7165 -1.4334 -0.4570
10125TIP3   OH254569   5.401   1.132   1.476 -0.6315 -0.6971  0.0907
10125TIP3    H154570   5.395   1.114   1.570 -0.2170  0.3407  0.3340
10125TIP3    H254571   5.477   1.190   1.468  0.6484 -2.4660 -1.1587
10126TIP3   OH254572   4.571   1.030   2.209 -0.1874 -0.1436  0.2725
10126TIP3    H154573   4.495   1.088   2.213 -0.1126 -0.1146  2.2179
10126TIP3    H254574   4.585   1.002   2.299  1.5567 -0.8824 -0.1764
10127TIP3   OH254575   0.871   3.506   2.539  0.0225 -0.1195  0.0688
10127TIP3    H154576   0.908   3.570   2.478  2.5948 -1.1904  0.3641
10127TIP3    H254577   0.800   3.465   2.490  0.5526  0.5916 -1.3818
10128TIP3   OH254578   3.811   0.446   1.877  0.0359 -0.2492  0.1793
10128TIP3    H154579   3.804   0.413   1.788 -1.2019  0.0778  0.1360
10128TIP3    H254580   3.905   0.457   1.892  0.2169  1.3132 -1.6860
10129TIP3   OH254581   6.913   4.543   1.101  0.1351 -0.3418 -0.3422
10129TIP3    H154582   6.985   4.523   1.160  1.0431 -0.2971 -1.4144
10129TIP3    H254583   6.905   4.467   1.045  1.2569  0.7754 -2.0991
10130TIP3   OH254584   4.861   0.852   0.844 -0.4073 -0.2667 -0.2811
10130TIP3    H154585   4.887   0.921   0.783  1.2948 -0.2552  0.4197
10130TIP3    H254586   4.943   0.814   0.875 -1.2270 -0.4271  1.8575
10131TIP3   OH254587   4.798   2.257   1.156  0.4582 -0.0281 -0.1844
10131TIP3    H154588   4.761   2.332   1.109 -0.4298 -1.1753 -1.4094
10131TIP3    H254589   4.785   2.278   1.249 -1.7757  0.4101 -0.5340
10132TIP3   OH254590   5.204   6.867   1.971  0.2039  0.2441 -0.1155
10132TIP3    H154591   5.257   6.829   2.041 -0.3011  0.9577  0.6643
10132TIP3    H254592   5.241   6.954   1.958 -1.1849  1.0268  0.9218
10133TIP3   OH254593   1.832   6.042   0.721  0.0605 -0.2692 -0.8605
10133TIP3    H154594   1.778   6.119   0.736  1.3605  0.7503 -1.2362
10133TIP3    H254595   1.799   6.006   0.638 -0.1832  0.2106 -0.9753
10134TIP3   OH254596   6.515   2.226   1.590 -0.0275  0.6420 -0.6335
10134TIP3    H154597   6.503   2.169   1.514  2.3730 -0.4314 -0.2948
10134TIP3    H254598   6.492   2.171   1.665  0.0064  0.8746 -0.4528
10135TIP3   OH254599   7.272   5.436   1.245 -0.1988  0.5211  0.2768
10135TIP3    H154600   7.195   5.379   1.243 -0.0745  0.3645 -0.3338
10135TIP3    H254601   7.325   5.401   1.316 -0.0422 -0.2434 -0.2001
10136TIP3   OH254602   3.231   6.762   1.266  0.1140 -0.0205  0.5861
10136TIP3    H154603   3.301   6.762   1.201 -2.1108  0.9646 -2.0367
10136TIP3    H254604   3.213   6.670   1.282  1.0003 -0.2899  0.1027
10137TIP3   OH254605   2.699   0.406   3.280  0.2239  0.5059 -0.1067
10137TIP3    H154606   2.783   0.387   3.322  0.7425  2.1860 -0.3305
10137TIP3    H254607   2.721   0.466   3.209 -0.9582 -0.4265 -1.2938
10138TIP3   OH254608   5.327   2.831   1.313  0.3892 -0.2541  0.2641
10138TIP3    H154609   5.385   2.888   1.263  0.2751 -0.6142 -0.2975
10138TIP3    H254610   5.243   2.877   1.314 -0.1341 -1.0591 -1.4990
10139TIP3   OH254611   0.521   2.828   0.854  0.0082  1.1305  0.3589
10139TIP3    H154612   0.444   2.790   0.895  1.3198 -0.3917  1.5484
10139TIP3    H254613   0.594   2.776   0.887  1.5215  2.2562 -1.0348
10140TIP3   OH254614   6.898   2.405   2.414  0.5938  0.6245  0.8685
10140TIP3    H154615   6.935   2.432   2.330  0.4480 -1.4534  0.0689
10140TIP3    H254616   6.804   2.422   2.406  0.7126  1.3796  1.0208
10141TIP3   OH254617   0.940   3.282   2.076 -0.3611 -0.6239  0.4826
10141TIP3    H154618   0.855   3.323   2.059  0.6461  1.0406 -0.7757
10141TIP3    H254619   1.004   3.343   2.041  1.2963 -2.7046 -0.3278
10142TIP3   OH254620   1.144   7.068   1.011 -0.1893 -0.4508  0.6615
10142TIP3    H154621   1.151   7.159   0.984 -1.4278 -0.1026  1.4433
10142TIP3    H254622   1.230   7.046   1.045  0.1481  0.3891  0.3603
10143TIP3   OH254623   5.691   7.155   2.385 -0.3858 -0.2887  0.8026
10143TIP3    H154624   5.735   7.239   2.392  0.4948 -0.6915  0.3725
10143TIP3    H254625   5.656   7.153   2.296  1.2499 -1.1126  0.1206
10144TIP3   OH254626   1.627   2.033   1.273 -0.0461 -0.0281 -0.3761
10144TIP3    H154627   1.619   1.949   1.227  1.0658 -0.3670  0.0253
10144TIP3    H254628   1.605   2.098   1.207  1.4555 -0.5137 -1.4079
10145TIP3   OH254629   1.267   6.508   3.179  0.0189  0.0521  0.0379
10145TIP3    H154630   1.328   6.489   3.251  0.6162  0.9629 -0.2221
10145TIP3    H254631   1.205   6.435   3.182 -0.4628  0.4767  2.0062
10146TIP3   OH254632   3.867   4.545   2.593 -0.0646  0.3436  0.0339
10146TIP3    H154633   3.813   4.468   2.577 -1.3966  1.2928 -0.1945
10146TIP3    H254634   3.907   4.528   2.679  1.7439 -1.7220 -1.1066
10147TIP3   OH254635   7.478   4.866   1.174 -0.5751 -0.1950 -0.4429
10147TIP3    H154636   7.446   4.889   1.261  1.4194 -0.3660  0.3846
10147TIP3    H254637   7.513   4.948   1.139 -3.1694  0.3848 -2.0183
10148TIP3   OH254638   1.024   6.561   2.585  0.8697  0.3481 -0.0052
10148TIP3    H154639   0.995   6.523   2.502 -2.3502  3.6041 -0.6028
10148TIP3    H254640   1.103   6.610   2.564  0.1435  1.0476 -1.1660
10149TIP3   OH254641   3.420   4.329   2.143 -0.4481 -0.0652  0.4186
10149TIP3    H154642   3.410   4.238   2.169 -0.7711 -0.0575  0.3247
10149TIP3    H254643   3.384   4.333   2.054  3.9463 -0.9181 -1.6964
10150TIP3   OH254644   6.332   0.451   1.744 -0.1247  0.4562 -0.7153
10150TIP3    H154645   6.353   0.526   1.688 -0.1986  0.6180 -0.5276
10150TIP3    H254646   6.418   0.416   1.770 -0.0375  1.7467  0.8968
10151TIP3   OH254647   6.451   3.060   0.466 -0.2471  0.3147 -0.5767
10151TIP3    H154648   6.501   2.981   0.489  1.2956  1.3570 -0.1289
10151TIP3    H254649   6.363   3.029   0.447  0.3116 -1.5020 -0.3591
10152TIP3   OH254650   3.109   7.518   0.936  0.4964  0.4176  0.4489
10152TIP3    H154651   3.064   7.435   0.922 -0.6553  1.4826 -3.2002
10152TIP3    H254652   3.203   7.497   0.930  0.2511 -0.7076  0.4627
10153TIP3   OH254653   2.746   7.039   3.281 -0.4598 -0.2282 -0.0093
10153TIP3    H154654   2.704   7.061   3.198  0.0845 -0.2489 -0.2933
10153TIP3    H254655   2.756   6.944   3.279  0.1742 -0.1654 -0.2299
10154TIP3   OH254656   3.019   4.183   3.164  1.1248  0.2814  0.3211
10154TIP3    H154657   3.078   4.125   3.116  0.7271 -0.5212  0.7785
10154TIP3    H254658   2.945   4.128   3.187 -0.0348  1.3803 -0.6264
10155TIP3   OH254659   1.202   2.689   2.778  0.6147  0.3848 -0.1265
10155TIP3    H154660   1.251   2.641   2.711 -0.3378  0.3392 -0.8131
10155TIP3    H254661   1.163   2.620   2.832  1.3203  0.4213  0.4399
10156TIP3   OH254662   5.465   3.046   1.220 -0.3855 -0.1901  0.4266
10156TIP3    H154663   5.452   3.129   1.174 -0.8146  0.1943  1.2176
10156TIP3    H254664   5.469   3.070   1.312  0.8440 -0.8972  0.5944
10157TIP3   OH254665   1.662   6.914   1.172  0.4111  0.1600  0.2833
10157TIP3    H154666   1.682   6.982   1.236  2.0536 -0.3579  0.3911
10157TIP3    H254667   1.588   6.867   1.209  1.4462 -0.2499  1.9578
10158TIP3   OH254668   1.349   2.576   1.583  0.0467  0.3916  0.4459
10158TIP3    H154669   1.309   2.661   1.603 -1.3886  0.0702 -0.8229
10158TIP3    H254670   1.443   2.590   1.593 -0.2022  1.9767  0.8065
10159TIP3   OH254671   7.336   1.347   0.508 -0.2987  0.4855  0.1272
10159TIP3    H154672   7.244   1.364   0.525 -0.3979  0.6750 -0.5409
10159TIP3    H254673   7.376   1.334   0.594 -1.1065 -0.4534  0.3770
10160TIP3   OH254674   5.778   5.179   2.072  0.5945 -0.3481  0.2758
10160TIP3    H154675   5.862   5.222   2.058  0.8926 -0.3228  1.9670
10160TIP3    H254676   5.784   5.141   2.160 -1.5969  0.7269  0.9694
10161TIP3   OH254677   4.792   5.648   1.644 -0.2188 -0.1878  0.2750
10161TIP3    H154678   4.710   5.636   1.692 -0.1650 -2.1157 -0.0116
10161TIP3    H254679   4.854   5.591   1.689  0.6157  0.2671 -0.2869
10162TIP3   OH254680   5.386   5.008   1.906  0.2060 -0.4950  0.9627
10162TIP3    H154681   5.380   5.039   1.996  1.1114  1.6487  0.3780
10162TIP3    H254682   5.480   5.014   1.885 -0.2252  1.6139 -0.8534
10163TIP3   OH254683   7.651   2.070   2.777  0.3334 -0.1609 -0.1208
10163TIP3    H154684   7.637   2.058   2.683 -1.5253 -2.1814  0.3392
10163TIP3    H254685   7.744   2.053   2.790  0.6220  0.1768 -1.5817
10164TIP3   OH254686   0.599   2.587   2.522  0.0435 -0.4835 -0.0496
10164TIP3    H154687   0.647   2.514   2.563  0.7016  0.4310  0.8598
10164TIP3    H254688   0.666   2.635   2.474 -0.1850  0.1135  0.2213
10165TIP3   OH254689   1.449   2.138   1.786 -0.5805 -0.1904  0.3458
10165TIP3    H154690   1.377   2.149   1.724 -1.2660 -3.5740  0.3527
10165TIP3    H254691   1.519   2.098   1.734  0.6085  1.2401  0.7826
10166TIP3   OH254692   1.134   1.370   2.855  0.4055  0.5171  0.3717
10166TIP3    H154693   1.086   1.287   2.852  0.4800  0.4381  1.1583
10166TIP3    H254694   1.069   1.435   2.882 -0.1800  1.1429 -2.2321
10167TIP3   OH254695   3.488   1.383   3.232  0.4211 -0.3450  0.3260
10167TIP3    H154696   3.527   1.471   3.228  1.8699 -1.0048 -1.2711
10167TIP3    H254697   3.524   1.344   3.311  1.2913 -0.1572  0.0356
10168TIP3   OH254698   6.206   2.056   2.322 -0.3915 -0.0030  0.2806
10168TIP3    H154699   6.225   2.103   2.403  0.0829 -0.8948  0.7024
10168TIP3    H254700   6.289   2.055   2.274 -0.6082  0.3117 -0.1080
10169TIP3   OH254701   6.917   5.927   2.324  0.6353 -0.1335 -0.6500
10169TIP3    H154702   7.004   5.889   2.327  0.0613 -2.0049 -3.2855
10169TIP3    H254703   6.859   5.857   2.356 -0.0370  0.3115 -0.8620
10170TIP3   OH254704   7.398   3.880   0.979  0.3283  0.1796 -0.4840
10170TIP3    H154705   7.386   3.897   0.886  2.8628  0.9862 -0.7356
10170TIP3    H254706   7.434   3.791   0.983 -0.2172 -0.0359 -0.2178
10171TIP3   OH254707   4.814   3.361   1.340  0.0998 -0.1096  0.3256
10171TIP3    H154708   4.839   3.445   1.302  1.8031 -0.0615  1.4657
10171TIP3    H254709   4.896   3.324   1.372 -0.9830 -0.9522  2.2978
10172TIP3   OH254710   4.345   0.820   0.704  0.1519 -0.0918 -0.1679
10172TIP3    H154711   4.339   0.868   0.786 -1.8431 -0.0377 -0.2854
10172TIP3    H254712   4.420   0.858   0.659 -0.4060  1.8401  0.4218
10173TIP3   OH254713   0.235   5.734   1.603  0.4612 -0.7354 -0.3777
10173TIP3    H154714   0.321   5.714   1.567  0.6266 -0.3932 -0.1792
10173TIP3    H254715   0.247   5.737   1.698  0.3931  0.0163 -0.3818
10174TIP3   OH254716   6.488   0.293   3.394  0.6557  0.1811  0.2487
10174TIP3    H154717   6.553   0.328   3.455  1.0853  0.1880 -0.2104
10174TIP3    H254718   6.508   0.337   3.311  0.7473 -0.6237 -0.1586
10175TIP3   OH254719   1.508   2.185   2.936 -0.0105  0.4377 -0.1380
10175TIP3    H154720   1.477   2.096   2.919 -1.8496  1.4853 -3.0728
10175TIP3    H254721   1.465   2.210   3.018  0.2340 -1.2339  0.5256
10176TIP3   OH254722   1.733   0.972   2.317 -0.7082  0.3045  0.2933
10176TIP3    H154723   1.773   1.054   2.288 -0.8890  0.3585  0.1936
10176TIP3    H254724   1.780   0.949   2.397  1.0683 -0.8046 -0.9855
10177TIP3   OH254725   7.325   3.116   1.540 -0.2054 -0.5064 -0.2463
10177TIP3    H154726   7.409   3.129   1.584 -0.7616 -0.4286  0.8176
10177TIP3    H254727   7.293   3.032   1.573 -1.4942  0.4128  0.9692
10178TIP3   OH254728   6.861   5.590   2.066 -0.2477 -0.0759 -0.8076
10178TIP3    H154729   6.954   5.596   2.084 -0.1779  0.0885 -1.1973
10178TIP3    H254730   6.842   5.496   2.065 -0.2570 -0.0932  0.0753
10179TIP3   OH254731   0.468   5.977   1.358 -0.4231 -0.3610  0.3403
10179TIP3    H154732   0.380   6.007   1.335 -0.7856 -1.1096  0.7002
10179TIP3    H254733   0.524   6.010   1.288 -0.9183  0.5007  0.3355
10180TIP3   OH254734   6.684   1.964   1.940  0.5005 -0.0167 -0.5524
10180TIP3    H154735   6.620   1.916   1.886  0.7716  0.3066 -1.1672
10180TIP3    H254736   6.741   2.008   1.877 -0.2842  1.8662 -0.0174
10181TIP3   OH254737   6.014   1.440   1.820 -0.2452 -0.2269  0.2884
10181TIP3    H154738   6.058   1.456   1.736  0.6154 -1.5925  0.4397
10181TIP3    H254739   6.067   1.488   1.884  0.3735 -0.9143  0.3113
10182TIP3   OH254740   6.893   2.320   2.050 -0.1116 -0.0371 -0.2114
10182TIP3    H154741   6.838   2.326   1.973 -0.7540  0.8605  0.3063
10182TIP3    H254742   6.886   2.406   2.092  0.1900 -0.5199  0.8658
10183TIP3   OH254743   1.327   4.299   2.342 -0.1429  0.5455 -0.2104
10183TIP3    H154744   1.389   4.227   2.349 -0.1568  0.5301 -0.2451
10183TIP3    H254745   1.363   4.367   2.399  0.8954  1.2477 -1.6666
10184TIP3   OH254746   2.264   1.481   3.114  0.2291 -0.0220  0.1978
10184TIP3    H154747   2.321   1.557   3.127  0.3827  0.0078 -0.5849
10184TIP3    H254748   2.249   1.447   3.202 -0.5782  1.4416  0.6504
10185TIP3   OH254749   1.863   5.982   2.590 -0.4365 -0.0071  0.0228
10185TIP3    H154750   1.863   5.910   2.528  0.5938  1.3164 -1.5902
10185TIP3    H254751   1.926   5.956   2.658 -1.3057 -1.3037  0.3777
10186TIP3   OH254752   6.701   5.806   2.470 -0.0278  0.1033  0.1755
10186TIP3    H154753   6.619   5.773   2.434 -1.1953 -0.0884  2.8467
10186TIP3    H254754   6.763   5.734   2.458 -0.5099 -0.1491 -0.9064
10187TIP3   OH254755   1.397   2.338   2.458 -0.6832 -0.4915  0.4679
10187TIP3    H154756   1.479   2.322   2.505 -1.3652  1.6171  2.6247
10187TIP3    H254757   1.329   2.310   2.519 -1.5982 -1.1016 -0.7971
10188TIP3   OH254758   5.257   5.395   2.039 -0.3686  0.0039  0.2880
10188TIP3    H154759   5.353   5.390   2.038 -0.3653 -0.1239 -1.7159
10188TIP3    H254760   5.230   5.323   2.096  0.7077 -0.8777 -0.2728
10189TIP3   OH254761   3.489   6.306   2.767 -0.4565 -0.3161 -0.3319
10189TIP3    H154762   3.558   6.372   2.773 -1.2056  0.5847 -1.2117
10189TIP3    H254763   3.441   6.314   2.850 -0.9183  0.7136 -0.6729
10190TIP3   OH254764   0.834   4.440   1.216 -0.0026  0.0434 -0.5149
10190TIP3    H154765   0.741   4.459   1.206  0.2290  0.2367 -2.6497
10190TIP3    H254766   0.868   4.438   1.127  1.7563 -1.5637  0.1286
10191TIP3   OH254767   6.691   6.421   0.632  0.1695 -0.1370 -0.2539
10191TIP3    H154768   6.737   6.356   0.685 -0.0475 -0.2975 -0.2625
10191TIP3    H254769   6.741   6.426   0.551  1.8929  1.8061  0.8334
10192TIP3   OH254770   3.130   2.118   2.898  0.4073  0.1035 -0.4489
10192TIP3    H154771   3.117   2.179   2.825  0.7288  1.0607  0.2785
10192TIP3    H254772   3.048   2.068   2.902 -0.8178  2.0633  0.3913
10193TIP3   OH254773   5.405   4.678   3.065 -0.5436 -0.5028  0.1817
10193TIP3    H154774   5.434   4.626   2.990  0.1205 -1.2676  0.9514
10193TIP3    H254775   5.329   4.727   3.032 -1.4573 -2.2544 -0.4526
10194TIP3   OH254776   2.691   2.842   2.237  0.1185 -0.1457 -0.7837
10194TIP3    H154777   2.706   2.856   2.143 -1.7505  0.5695 -1.0102
10194TIP3    H254778   2.599   2.862   2.250  0.4663  0.2937  1.3228
10195TIP3   OH254779   5.420   4.842   2.746  0.7048  0.0748 -0.6594
10195TIP3    H154780   5.345   4.871   2.797  0.4691 -1.6745  0.0674
10195TIP3    H254781   5.487   4.821   2.811  0.0927 -3.0757 -0.8789
10196TIP3   OH254782   3.688   7.462   1.752  0.6112 -0.3256 -0.4786
10196TIP3    H154783   3.710   7.372   1.727  1.2636 -0.1145 -0.6871
10196TIP3    H254784   3.773   7.502   1.771  0.2436 -0.0899  0.7614
10197TIP3   OH254785   3.337   2.701   2.806 -0.0365  0.1165 -0.1585
10197TIP3    H154786   3.430   2.687   2.790  0.0247 -3.0692  2.0090
10197TIP3    H254787   3.333   2.743   2.892 -0.6417  1.4829 -0.8180
10198TIP3   OH254788   5.845   5.011   1.515 -0.2766  0.3975  0.0060
10198TIP3    H154789   5.791   5.090   1.526 -1.7247 -0.8717  3.0138
10198TIP3    H254790   5.823   4.979   1.427 -1.0230  2.3362 -0.5728
10199TIP3   OH254791   3.251   2.857   1.231 -0.0821  0.5796 -0.2027
10199TIP3    H154792   3.328   2.896   1.187  0.8446 -1.3770 -0.4141
10199TIP3    H254793   3.214   2.797   1.166 -0.3886 -0.2439  0.7112
10200TIP3   OH254794   0.196   7.119   3.099 -0.3118  0.0687 -0.8445
10200TIP3    H154795   0.151   7.148   3.019 -1.3062 -2.3832 -1.2582
10200TIP3    H254796   0.254   7.049   3.069  0.3968  0.1037  0.3873
10201TIP3   OH254797   5.322   5.154   1.689 -0.4100 -0.0784  0.1170
10201TIP3    H154798   5.345   5.090   1.757  0.2889  0.8790  0.8181
10201TIP3    H254799   5.230   5.172   1.704 -0.1736  0.4232  1.1083
10202TIP3   OH254800   7.401   5.323   2.365  0.4392 -0.3076 -0.2242
10202TIP3    H154801   7.402   5.298   2.457  1.1058 -0.9806 -0.3958
10202TIP3    H254802   7.322   5.282   2.329  1.3156 -1.9438 -0.4145
10203TIP3   OH254803   5.925   2.453   1.590 -0.0346 -0.3306  0.1076
10203TIP3    H154804   5.882   2.386   1.537  1.0504 -0.1896 -0.9890
10203TIP3    H254805   5.954   2.519   1.527  2.0145 -0.5510  0.7443
10204TIP3   OH254806   4.578   6.001   2.375 -0.3670 -0.5677 -0.1121
10204TIP3    H154807   4.514   5.939   2.409 -0.7461 -0.3607 -0.4415
10204TIP3    H254808   4.526   6.068   2.332  0.0759 -0.4215 -0.4293
10205TIP3   OH254809   1.699   5.712   2.696  0.5157  0.7710 -0.1685
10205TIP3    H154810   1.638   5.638   2.699 -0.7632  1.8178  0.5181
10205TIP3    H254811   1.785   5.671   2.686 -0.2373 -0.7663 -0.6805
10206TIP3   OH254812   1.693   0.473   3.429  0.1923 -0.3376 -0.0524
10206TIP3    H154813   1.755   0.532   3.385 -0.0846  1.3681  1.7396
10206TIP3    H254814   1.731   0.386   3.416  0.4623  0.0948 -3.0489
10207TIP3   OH254815   0.314   1.693   1.828  0.3581  0.7618 -0.1116
10207TIP3    H154816   0.241   1.656   1.878  0.7339  1.0968  0.7077
10207TIP3    H254817   0.273   1.749   1.763 -0.2004 -0.6922 -1.0674
10208TIP3   OH254818   2.523   6.019   1.713  0.1839  0.2222 -0.4036
10208TIP3    H154819   2.513   6.083   1.784 -0.4028 -0.5401  0.2244
10208TIP3    H254820   2.538   6.072   1.635 -0.9421  1.1626 -0.0150
10209TIP3   OH254821   1.100   0.210   0.759 -0.0802 -0.5512 -0.1165
10209TIP3    H154822   1.057   0.129   0.732  2.2677 -3.2076  3.2338
10209TIP3    H254823   1.192   0.197   0.736  0.5607  0.5423  1.6387
10210TIP3   OH254824   2.915   3.639   1.082  0.3741 -0.6829  0.1773
10210TIP3    H154825   2.966   3.629   1.162  2.3232 -1.2201 -1.0625
10210TIP3    H254826   2.968   3.697   1.027 -0.6383 -0.7840 -0.9529
10211TIP3   OH254827   4.659   6.895   1.257 -0.0807  0.3603  0.2471
10211TIP3    H154828   4.591   6.918   1.194 -0.6691  1.1323  1.1414
10211TIP3    H254829   4.611   6.859   1.332  0.6634 -1.4459 -0.0935
10212TIP3   OH254830   0.675   6.904   1.238  0.0249  0.0411  0.1217
10212TIP3    H154831   0.675   6.927   1.331  0.3196  0.1167  0.1062
10212TIP3    H254832   0.765   6.921   1.210 -0.1135  0.1993 -0.2234
10213TIP3   OH254833   0.113   7.025   3.375  0.0185 -0.1574 -0.2438
10213TIP3    H154834   0.166   6.960   3.329  2.0418  0.9621  0.3811
10213TIP3    H254835   0.056   7.062   3.306  2.8488  1.3642 -1.9732
10214TIP3   OH254836   6.758   1.185   2.230 -0.0670 -0.6725  0.6284
10214TIP3    H154837   6.769   1.090   2.226  0.4497 -0.6391  1.2452
10214TIP3    H254838   6.776   1.214   2.140 -1.7053 -1.2985  0.0635
10215TIP3   OH254839   3.869   5.962   1.456  0.5276  0.0509 -0.0507
10215TIP3    H154840   3.816   6.032   1.417 -0.3920 -1.0965 -0.9265
10215TIP3    H254841   3.809   5.915   1.513  1.0387 -0.2576  0.2413
10216TIP3   OH254842   1.041   2.924   1.816  0.0993 -0.0240 -0.7406
10216TIP3    H154843   1.118   2.968   1.852 -0.4640  1.1180 -0.8509
10216TIP3    H254844   0.967   2.967   1.859 -0.4722 -1.3344 -0.3912
10217TIP3   OH254845   4.286   3.668   2.960 -0.4331 -0.3192 -0.2104
10217TIP3    H154846   4.338   3.603   3.008 -1.2034 -0.5340  0.3535
10217TIP3    H254847   4.343   3.695   2.888  0.3335 -0.7850  0.2024
10218TIP3   OH254848   5.793   6.636   1.290 -0.9196 -0.2001  0.2489
10218TIP3    H154849   5.778   6.702   1.222 -1.5720  0.7153  1.2432
10218TIP3    H254850   5.710   6.588   1.294 -0.8095 -0.3877  0.2580
10219TIP3   OH254851   3.783   2.000   2.164 -0.0881  0.0575 -0.2110
10219TIP3    H154852   3.695   2.014   2.127 -0.8299 -1.9693  0.6524
10219TIP3    H254853   3.817   2.088   2.178 -1.4920  0.8926 -1.6775
10220TIP3   OH254854   7.579   5.363   1.160 -0.3415 -0.2864  0.2408
10220TIP3    H154855   7.550   5.272   1.161 -2.3016  0.2673 -0.5667
10220TIP3    H254856   7.542   5.401   1.240  1.7483 -0.4944  1.3835
10221TIP3   OH254857   6.190   3.466   1.659  0.0012  0.0603 -0.1244
10221TIP3    H154858   6.204   3.453   1.565 -0.5001 -0.6312 -0.1100
10221TIP3    H254859   6.274   3.498   1.692  0.4952 -0.6835 -0.6343
10222TIP3   OH254860   5.011   0.108   0.904 -0.0968  0.5683 -0.3077
10222TIP3    H154861   5.000   0.152   0.820  0.5678 -1.1687 -1.3595
10222TIP3    H254862   4.945   0.039   0.903  1.2597 -0.7851 -0.3532
10223TIP3   OH254863   7.607   1.635   1.064  0.0418 -0.1738  0.2793
10223TIP3    H154864   7.526   1.676   1.093  0.0704 -0.3719  0.6398
10223TIP3    H254865   7.653   1.612   1.144  0.4639 -0.0529  0.0765
10224TIP3   OH254866   1.463   0.233   0.385  0.1512 -0.1167  0.0558
10224TIP3    H154867   1.419   0.198   0.307 -1.3248 -0.4586  1.0093
10224TIP3    H254868   1.414   0.312   0.407  0.0865 -0.4313  1.0685
10225TIP3   OH254869   0.992   3.997   1.022  0.0727 -0.5753 -0.8631
10225TIP3    H154870   0.975   3.924   1.081 -0.9661  0.8079  0.6836
10225TIP3    H254871   0.987   4.075   1.079 -0.0604  0.7724 -2.6242
10226TIP3   OH254872   0.170   4.088   1.612  0.2635  0.3983  0.2796
10226TIP3    H154873   0.213   4.125   1.689  0.3248  2.2433 -0.5909
10226TIP3    H254874   0.214   4.129   1.538  0.7407 -1.9104 -0.8276
10227TIP3   OH254875   7.560   5.591   2.418 -0.2287 -0.2601 -0.4783
10227TIP3    H154876   7.578   5.548   2.502 -1.1911  0.5757  0.1755
10227TIP3    H254877   7.508   5.527   2.369 -0.7367 -0.2742  0.0635
10228TIP3   OH254878   4.061   1.036   1.995  0.2047 -1.0104  0.2001
10228TIP3    H154879   4.043   0.942   1.988  0.6254 -1.1820  1.2378
10228TIP3    H254880   4.093   1.047   2.084 -3.4918  0.7437  1.5157
10229TIP3   OH254881   2.315   6.819   2.477  0.4303 -0.4617  0.2964
10229TIP3    H154882   2.390   6.863   2.517  0.1908 -0.9972  1.3604
10229TIP3    H254883   2.261   6.891   2.442  0.2317  0.0893  1.6838
10230TIP3   OH254884   2.042   0.272   1.390  0.7040  0.1368  0.0836
10230TIP3    H154885   2.031   0.247   1.298  2.0766 -1.4151  0.2909
10230TIP3    H254886   2.109   0.340   1.388  1.7235 -0.8450  0.0166
10231TIP3   OH254887   1.431   1.910   2.924 -0.0932  0.5575  0.3533
10231TIP3    H154888   1.338   1.908   2.947 -0.6785  1.4815 -1.7229
10231TIP3    H254889   1.457   1.818   2.918 -1.2757  0.2703 -0.5093
10232TIP3   OH254890   7.385   1.802   1.194 -0.0046 -0.3333  0.2148
10232TIP3    H154891   7.393   1.847   1.111  1.2951 -0.1879  0.3988
10232TIP3    H254892   7.317   1.850   1.242 -0.6830 -0.3584 -0.7030
10233TIP3   OH254893   2.973   1.808   2.842 -0.1606  0.1883 -0.1262
10233TIP3    H154894   2.915   1.882   2.824 -0.9217 -0.4547 -0.3724
10233TIP3    H254895   2.944   1.740   2.782 -0.1407 -0.6521  0.7907
10234TIP3   OH254896   0.609   0.534   1.174 -0.6719  0.1302 -0.0399
10234TIP3    H154897   0.565   0.451   1.156  0.4922 -0.2587 -1.2764
10234TIP3    H254898   0.648   0.559   1.091  0.2570  1.1582  0.6719
10235TIP3   OH254899   5.117   2.039   0.949  0.8637  0.4063  0.1124
10235TIP3    H154900   5.135   2.098   0.876 -1.6844  0.0051 -0.9271
10235TIP3    H254901   5.142   1.952   0.916  0.9914  0.4000  0.2250
10236TIP3   OH254902   0.966   4.195   1.233 -0.0184  0.8490 -0.0547
10236TIP3    H154903   0.917   4.277   1.230  2.1738  2.2236 -2.0312
10236TIP3    H254904   1.036   4.212   1.297  1.4639  1.2608 -1.6932
10237TIP3   OH254905   5.319   3.433   0.852  0.2738 -0.1382 -0.4361
10237TIP3    H154906   5.265   3.355   0.865 -0.2616  0.0399 -1.4597
10237TIP3    H254907   5.256   3.504   0.842  0.7337  0.2886 -0.3496
10238TIP3   OH254908   7.537   2.777   1.604 -0.3815 -0.7873 -0.7185
10238TIP3    H154909   7.590   2.700   1.623  0.7976 -0.1465 -1.3359
10238TIP3    H254910   7.447   2.743   1.601 -0.1484 -1.7207  1.2550
10239TIP3   OH254911   4.531   7.535   1.018  0.0778 -0.2724 -0.0813
10239TIP3    H154912   4.476   7.578   1.083  0.7870 -0.2402  0.5135
10239TIP3    H254913   4.559   7.453   1.060  1.4378  0.2635  0.1070
10240TIP3   OH254914   0.952   7.543   1.325  0.0135 -0.2694  0.1307
10240TIP3    H154915   0.873   7.534   1.271  0.7095 -1.5275 -0.7194
10240TIP3    H254916   0.925   7.512   1.411 -0.8528  0.8595  0.2860
10241TIP3   OH254917   6.717   0.902   1.333  0.2500  0.1854 -0.5446
10241TIP3    H154918   6.780   0.908   1.262 -0.2087 -0.0148 -0.9796
10241TIP3    H254919   6.749   0.962   1.400 -0.3700  1.9395 -1.7483
10242TIP3   OH254920   6.786   6.921   1.284  0.2957  0.3037  0.0544
10242TIP3    H154921   6.773   6.955   1.195  0.2192 -1.4744 -0.6595
10242TIP3    H254922   6.715   6.960   1.335  0.0124  0.9234 -0.7783
10243TIP3   OH254923   1.170   1.795   2.972  0.2422 -0.1454  0.2699
10243TIP3    H154924   1.122   1.716   2.946  0.3932 -1.0113  2.4059
10243TIP3    H254925   1.217   1.769   3.051  2.0078  1.5009 -0.1663
10244TIP3   OH254926   7.347   7.117   1.610  0.2300  0.4144  0.5366
10244TIP3    H154927   7.432   7.162   1.607 -0.4535  1.7261 -2.4216
10244TIP3    H254928   7.365   7.029   1.578  0.3367  1.0774 -1.3332
10245TIP3   OH254929   6.709   5.241   0.865  0.7896  0.1120 -0.8089
10245TIP3    H154930   6.664   5.198   0.937 -0.5255  1.0132 -1.0438
10245TIP3    H254931   6.802   5.225   0.881  0.3956 -2.7252 -0.8838
10246TIP3   OH254932   1.533   3.882   1.929 -0.3538 -0.9211 -0.4282
10246TIP3    H154933   1.541   3.936   2.007 -1.8799  1.0012 -1.5121
10246TIP3    H254934   1.613   3.900   1.879 -0.3696 -0.4651 -0.2937
10247TIP3   OH254935   4.441   5.148   3.376 -0.0685 -0.1581 -0.3622
10247TIP3    H154936   4.433   5.054   3.361  0.8497 -0.5209  1.3097
10247TIP3    H254937   4.529   5.170   3.347 -0.2828  0.2034 -0.7540
10248TIP3   OH254938   2.484   1.690   3.076  0.1119 -0.3279 -0.2812
10248TIP3    H154939   2.532   1.671   3.157  1.4079 -0.2587 -0.9968
10248TIP3    H254940   2.539   1.754   3.031  0.0070 -1.2420 -1.7493
10249TIP3   OH254941   6.054   6.868   2.083  0.3593 -0.0867 -0.0845
10249TIP3    H154942   6.139   6.854   2.127 -1.0203 -1.3195  2.4746
10249TIP3    H254943   6.021   6.779   2.068 -1.9471  0.2512  2.2643
10250TIP3   OH254944   0.974   6.912   1.153  0.1735  0.5619 -0.1253
10250TIP3    H154945   1.018   6.880   1.232  0.3603 -0.2653 -0.5527
10250TIP3    H254946   1.034   6.977   1.117  0.7041 -0.0145 -0.2943
10251TIP3   OH254947   3.341   5.407   1.548 -0.1805  0.1935 -0.3630
10251TIP3    H154948   3.352   5.452   1.464 -0.0019 -1.0355 -1.0245
10251TIP3    H254949   3.430   5.390   1.578 -0.2436  0.9370  0.2520
10252TIP3   OH254950   6.082   2.316   2.700 -0.4540 -0.1511 -0.5389
10252TIP3    H154951   6.073   2.277   2.613 -0.8803  0.5379 -0.8194
10252TIP3    H254952   5.997   2.358   2.716  0.1288  1.0426 -0.4619
10253TIP3   OH254953   6.298   0.670   1.236 -0.3976 -0.5556  0.2587
10253TIP3    H154954   6.237   0.739   1.213  0.0955 -0.2362 -0.1092
10253TIP3    H254955   6.250   0.615   1.298 -0.2094  1.0937  1.9429
10254TIP3   OH254956   1.840   0.990   2.557 -0.2443 -0.1343  0.5638
10254TIP3    H154957   1.846   0.896   2.576  1.4527 -0.3351 -0.6834
10254TIP3    H254958   1.890   1.032   2.627  0.8424 -0.3704 -0.0440
10255TIP3   OH254959   2.466   6.349   0.611  0.0497 -0.2146 -0.0211
10255TIP3    H154960   2.561   6.335   0.608 -0.0151 -0.9279  0.9059
10255TIP3    H254961   2.448   6.372   0.702 -0.3817  2.3482 -0.6750
10256TIP3   OH254962   6.657   4.725   1.952 -0.6569 -0.8175 -0.0879
10256TIP3    H154963   6.631   4.812   1.983 -0.8989 -1.0346  0.3164
10256TIP3    H254964   6.751   4.720   1.970 -0.5124 -0.3979 -0.6898
10257TIP3   OH254965   1.626   0.266   0.985  0.1368 -0.0161  0.0206
10257TIP3    H154966   1.633   0.304   1.072  1.7999 -0.1279 -0.0410
10257TIP3    H254967   1.714   0.272   0.948 -0.1131 -1.6191 -0.9586
10258TIP3   OH254968   0.223   1.249   1.679  0.2430  0.3148 -0.4528
10258TIP3    H154969   0.175   1.192   1.738  1.9086 -2.9772 -2.0309
10258TIP3    H254970   0.233   1.198   1.598  2.8945  2.3562 -1.5773
10259TIP3   OH254971   5.562   6.663   1.970 -0.7712  0.1290 -0.2354
10259TIP3    H154972   5.475   6.631   1.946 -0.8333  0.2254 -0.1400
10259TIP3    H254973   5.576   6.740   1.915  0.1737 -1.1519 -1.8657
10260TIP3   OH254974   2.916   5.765   1.432 -0.0641 -0.2451 -0.1712
10260TIP3    H154975   2.947   5.706   1.501 -0.1849 -0.0586  0.0409
10260TIP3    H254976   2.989   5.769   1.371  0.5659  0.6546  0.6193
10261TIP3   OH254977   7.018   4.026   0.684 -0.4484  0.7663 -0.0348
10261TIP3    H154978   6.969   4.089   0.632 -1.1780  0.2558  0.0201
10261TIP3    H254979   6.956   3.955   0.700  0.5739 -0.3172 -0.7191
10262TIP3   OH254980   1.846   0.903   3.344 -0.7036  0.0063  0.0949
10262TIP3    H154981   1.848   0.985   3.296  0.6103 -0.1234 -0.1092
10262TIP3    H254982   1.758   0.898   3.381 -0.5975  1.8161  0.6721
10263TIP3   OH254983   2.911   0.032   3.040 -0.1186  0.0417 -0.2754
10263TIP3    H154984   2.994   0.009   2.999 -0.0157 -0.9868  0.4786
10263TIP3    H254985   2.881   0.109   2.992  1.4599  0.6803 -0.3028
10264TIP3   OH254986   5.163   5.461   1.724  0.3441  0.0858 -0.0954
10264TIP3    H154987   5.207   5.404   1.787 -1.0703  0.6934  1.5292
10264TIP3    H254988   5.070   5.450   1.743 -0.0004  3.0676  0.4802
10265TIP3   OH254989   4.052   5.244   0.579  0.0498 -0.6374  0.3034
10265TIP3    H154990   4.059   5.196   0.662  2.1521 -1.5474 -0.3553
10265TIP3    H254991   4.137   5.287   0.569 -0.2632 -0.3434 -1.2935
10266TIP3   OH254992   4.781   1.546   2.053  0.5061 -0.2482  0.0148
10266TIP3    H154993   4.826   1.467   2.025 -0.7877 -0.8730 -0.3831
10266TIP3    H254994   4.705   1.515   2.102 -1.0646  0.6336 -1.7235
10267TIP3   OH254995   3.997   2.880   1.760 -0.0616  0.2691 -0.2569
10267TIP3    H154996   4.044   2.964   1.766 -0.1200  0.2959 -0.1770
10267TIP3    H254997   4.052   2.818   1.808  0.0134  0.2473 -0.3699
10268TIP3   OH254998   7.340   0.349   2.366  0.1875 -0.1751 -0.0158
10268TIP3    H154999   7.330   0.444   2.370 -0.8391 -0.2777  0.0705
10268TIP3    H255000   7.390   0.333   2.286 -0.5422  0.3758 -0.5886
10269TIP3   OH255001   4.959   1.342   1.395  0.3315 -0.1839 -0.4813
10269TIP3    H155002   5.024   1.279   1.363 -1.8052 -1.5047 -2.6381
10269TIP3    H255003   4.959   1.331   1.490  3.7203  0.4758 -0.2905
10270TIP3   OH255004   3.646   3.431   2.348 -0.2813 -0.0207  0.1483
10270TIP3    H155005   3.621   3.504   2.404  0.3248  2.2840 -2.3821
10270TIP3    H255006   3.742   3.433   2.348 -0.2584  0.7391 -1.7259
10271TIP3   OH255007   4.020   3.949   2.655  0.2976 -0.8390  0.4702
10271TIP3    H155008   3.963   3.885   2.613  0.1087  0.5876 -1.5811
10271TIP3    H255009   3.960   4.012   2.694  0.4530  0.0394 -0.6846
10272TIP3   OH255010   2.057   1.397   2.233  0.0408  0.2997  0.0605
10272TIP3    H155011   2.122   1.420   2.166 -0.2131 -0.4167 -0.4482
10272TIP3    H255012   2.008   1.478   2.247  2.0690  1.3334  1.6689
10273TIP3   OH255013   5.020   7.128   1.075  0.6846  0.5921  0.4865
10273TIP3    H155014   4.989   7.041   1.051  3.5729 -1.0513  2.2654
10273TIP3    H255015   4.956   7.159   1.140 -2.0425  1.2466 -2.2637
10274TIP3   OH255016   3.133   4.713   2.593  0.1942 -0.3879 -0.3418
10274TIP3    H155017   3.052   4.679   2.630 -0.0720 -0.8071 -1.2677
10274TIP3    H255018   3.202   4.671   2.644 -0.1437 -1.7197 -0.9377
10275TIP3   OH255019   6.127   3.449   1.365 -0.4593  0.3406  0.2965
10275TIP3    H155020   6.117   3.419   1.275  0.6623  0.8633 -0.0191
10275TIP3    H255021   6.102   3.541   1.363 -2.6216 -0.1761  0.9972
10276TIP3   OH255022   2.575   0.338   1.342 -0.2821  0.4216  0.0371
10276TIP3    H155023   2.506   0.297   1.393  0.2152 -0.3197  0.1294
10276TIP3    H255024   2.654   0.329   1.396  0.2936 -0.5680 -0.9250
10277TIP3   OH255025   2.980   3.469   1.974  0.0608  0.0493  0.0522
10277TIP3    H155026   3.026   3.440   1.895 -2.5582  2.3649 -2.5660
10277TIP3    H255027   2.921   3.397   1.994 -0.4097  0.0663 -1.1674
10278TIP3   OH255028   1.932   6.369   2.879 -0.1691 -0.1187  0.1037
10278TIP3    H155029   1.944   6.281   2.917 -0.4695 -0.8307 -1.3978
10278TIP3    H255030   1.843   6.394   2.904  0.2225  0.1544  1.2850
10279TIP3   OH255031   1.921   4.354   2.191  0.5012  0.0328 -0.2087
10279TIP3    H155032   1.963   4.428   2.146 -1.8814  0.9200 -1.1259
10279TIP3    H255033   1.953   4.360   2.281  2.6950  0.3169 -0.9606
10280TIP3   OH255034   2.942   1.246   1.624 -0.5518 -0.2789  0.1666
10280TIP3    H155035   2.989   1.330   1.625  0.6485 -0.8716 -1.3028
10280TIP3    H255036   3.005   1.185   1.586 -1.4809 -1.8152  1.0265
10281TIP3   OH255037   5.447   5.801   1.199  0.8861  0.0925  0.0182
10281TIP3    H155038   5.360   5.768   1.176  0.6866 -0.4856  1.4805
10281TIP3    H255039   5.473   5.750   1.275  1.9417  1.1646  0.4179
10282TIP3   OH255040   0.515   1.053   1.536  0.3102  0.0728 -0.0541
10282TIP3    H155041   0.496   1.036   1.628 -0.3821 -2.2650 -0.5600
10282TIP3    H255042   0.446   1.007   1.488  0.7576  1.0752 -1.7506
10283TIP3   OH255043   3.740   6.039   3.124  0.3059 -0.0236  0.2094
10283TIP3    H155044   3.803   6.085   3.068 -0.3160  1.0712  0.3877
10283TIP3    H255045   3.661   6.094   3.122 -1.0241 -1.8710 -0.8252
10284TIP3   OH255046   0.412   0.721   2.813  0.0938  0.3193  0.6077
10284TIP3    H155047   0.397   0.784   2.884  1.3205  0.2061  1.0011
10284TIP3    H255048   0.503   0.693   2.825  0.6049  0.8894 -1.4960
10285TIP3   OH255049   0.852   1.798   2.242 -0.1964  0.1457  0.7571
10285TIP3    H155050   0.770   1.847   2.236  0.2035  1.0508  2.1893
10285TIP3    H255051   0.869   1.769   2.152 -0.1382  3.1632 -0.3251
10286TIP3   OH255052   5.659   0.842   1.505 -0.3097  0.1981 -0.3230
10286TIP3    H155053   5.624   0.770   1.558  1.6636 -0.7487 -0.1746
10286TIP3    H255054   5.659   0.917   1.563  0.8020 -0.5622  0.7093
10287TIP3   OH255055   1.347   3.589   2.393  0.0192  0.2377 -0.0389
10287TIP3    H155056   1.310   3.506   2.422  1.1319 -0.1939  0.1974
10287TIP3    H255057   1.321   3.595   2.301  0.5998 -0.7737 -0.2873
10288TIP3   OH255058   0.609   7.500   0.587  0.5123  0.3560 -0.3224
10288TIP3    H155059   0.670   7.506   0.513  1.0238 -1.7877 -0.1432
10288TIP3    H255060   0.661   7.462   0.658 -0.3460  1.0575  0.7080
10289TIP3   OH255061   5.921   0.903   2.902 -0.0406  0.5243  0.5490
10289TIP3    H155062   5.837   0.858   2.891  0.5539 -0.2274 -1.2988
10289TIP3    H255063   5.976   0.869   2.831  2.1989  0.2048  2.3267
10290TIP3   OH255064   2.573   0.223   0.821 -0.2002 -0.4576  0.1851
10290TIP3    H155065   2.529   0.204   0.904 -1.4170 -0.6995 -0.4782
10290TIP3    H255066   2.589   0.137   0.782 -1.6350 -0.3217 -0.7951
10291TIP3   OH255067   0.282   4.353   1.130  0.0216  0.2170 -0.1350
10291TIP3    H155068   0.278   4.357   1.035 -0.4054 -1.6024 -0.2353
10291TIP3    H255069   0.193   4.376   1.159 -0.0191  0.1525 -0.2088
10292TIP3   OH255070   1.916   0.193   3.465  0.4598  0.1445 -0.0829
10292TIP3    H155071   2.001   0.151   3.476  0.4713  0.0969 -0.3599
10292TIP3    H255072   1.929   0.282   3.497  0.5385  0.0539  0.1399
10293TIP3   OH255073   1.422   2.907   2.129  0.2083  0.1137 -0.1475
10293TIP3    H155074   1.354   2.948   2.076 -0.5012 -1.0974 -0.2164
10293TIP3    H255075   1.393   2.816   2.138  1.7955 -0.4160 -0.1368
10294TIP3   OH255076   5.537   6.003   1.347  0.3156 -0.3531 -0.2880
10294TIP3    H155077   5.492   5.938   1.293  1.1439 -0.4581 -0.8597
10294TIP3    H255078   5.484   6.008   1.427  1.0685 -2.9412  0.4739
10295TIP3   OH255079   0.964   6.397   2.374 -0.6417 -0.0013 -0.4101
10295TIP3    H155080   0.961   6.317   2.321 -1.6379  0.2212 -0.7093
10295TIP3    H255081   0.987   6.466   2.311  0.5583 -0.0887 -0.0892
10296TIP3   OH255082   4.312   7.617   2.055 -0.0049  0.0739  0.3739
10296TIP3    H155083   4.402   7.648   2.053  0.3870 -0.9662  1.0191
10296TIP3    H255084   4.317   7.529   2.092 -1.2574 -0.1104  0.1799
10297TIP3   OH255085   4.694   0.218   1.894  0.6594  0.0421  0.2890
10297TIP3    H155086   4.772   0.165   1.876  0.4873 -0.3579  0.7074
10297TIP3    H255087   4.633   0.194   1.824  0.3861 -0.7204  0.7756
10298TIP3   OH255088   2.707   1.516   3.411  0.4682  0.3868  0.5653
10298TIP3    H155089   2.748   1.594   3.372  0.8208  0.3858  0.9183
10298TIP3    H255090   2.716   1.448   3.344  0.4382  0.5708  0.3745
10299TIP3   OH255091   0.828   7.609   2.729  0.0453 -0.3420  0.4403
10299TIP3    H155092   0.913   7.652   2.724  0.2517 -0.8674 -2.1055
10299TIP3    H255093   0.812   7.597   2.823  1.4620  2.2545  1.0978
10300TIP3   OH255094   4.742   3.462   0.858  0.5858  0.3144  0.2186
10300TIP3    H155095   4.771   3.372   0.874  0.3714  0.1186 -0.4630
10300TIP3    H255096   4.654   3.465   0.896  1.2661  0.7675  1.8472
10301TIP3   OH255097   6.880   1.726   1.631  0.0772  0.2104 -0.1627
10301TIP3    H155098   6.800   1.780   1.629  0.3934  0.6659 -0.9821
10301TIP3    H255099   6.911   1.734   1.721  0.7070  2.3254 -0.5106
10302TIP3   OH255100   1.287   0.566   2.426 -0.2733 -0.4954  0.2575
10302TIP3    H155101   1.229   0.519   2.365 -0.0223  0.8006 -1.0340
10302TIP3    H255102   1.270   0.659   2.408  0.9734 -0.0932  1.0511
10303TIP3   OH255103   7.234   0.956   1.364 -0.2266  0.3045 -0.0056
10303TIP3    H155104   7.256   0.863   1.376 -1.5413 -0.0332 -0.0119
10303TIP3    H255105   7.289   0.984   1.291 -0.4367 -0.7107 -0.5775
10304TIP3   OH255106   5.249   1.474   0.920 -0.1329  0.4443  0.3238
10304TIP3    H155107   5.172   1.532   0.919 -2.6921 -2.6284  1.5451
10304TIP3    H255108   5.248   1.434   1.007  2.8986  0.2392  0.3441
10305TIP3   OH255109   2.077   3.601   0.889  0.1502 -0.8850 -0.2971
10305TIP3    H155110   2.115   3.529   0.939 -0.5320 -0.9975  0.0767
10305TIP3    H255111   2.130   3.677   0.911 -0.8463 -0.6775  1.5321
10306TIP3   OH255112   3.019   4.514   1.314  0.4285 -0.4332  0.0117
10306TIP3    H155113   3.030   4.580   1.382 -0.3089  0.2729 -0.5380
10306TIP3    H255114   2.943   4.543   1.264  1.1320 -0.7718 -1.3104
10307TIP3   OH255115   0.960   5.023   2.126  0.1415 -0.0279  0.2796
10307TIP3    H155116   0.971   4.937   2.088  0.2572 -0.5173  1.3855
10307TIP3    H255117   0.888   5.013   2.189  0.3270  0.6082  0.6115
10308TIP3   OH255118   0.645   1.207   2.434  0.2223 -0.1023  0.8037
10308TIP3    H155119   0.661   1.118   2.465  2.1556 -0.4264 -0.9033
10308TIP3    H255120   0.731   1.250   2.441  0.1813  0.5315 -1.6717
10309TIP3   OH255121   3.152   4.729   0.902 -0.2715 -0.0637  0.1972
10309TIP3    H155122   3.124   4.775   0.981  0.9365 -1.7387  1.6696
10309TIP3    H255123   3.203   4.794   0.853  2.0414  0.0522  2.5836
10310TIP3   OH255124   4.805   2.070   2.455  0.3530  0.1674 -0.2948
10310TIP3    H155125   4.713   2.054   2.434  0.1314  1.5547 -0.4416
10310TIP3    H255126   4.851   2.061   2.372  0.5685 -1.7963 -0.0140
10311TIP3   OH255127   7.530   4.557   1.823 -0.2718  0.4288 -0.2989
10311TIP3    H155128   7.522   4.462   1.819 -0.8572  0.4499  0.1688
10311TIP3    H255129   7.616   4.576   1.786  0.8333 -0.4558  1.6585
10312TIP3   OH255130   2.418   5.609   1.235  0.1106 -0.1744  0.2002
10312TIP3    H155131   2.416   5.556   1.155  0.8006  0.3850 -0.1961
10312TIP3    H255132   2.347   5.573   1.289  1.6902 -2.7351  0.7377
10313TIP3   OH255133   3.657   7.380   2.464  0.0170  0.5577 -0.2910
10313TIP3    H155134   3.580   7.329   2.492  0.3331 -0.4291 -1.1661
10313TIP3    H255135   3.656   7.456   2.521 -0.4279 -0.4659  1.1407
10314TIP3   OH255136   0.238   6.078   1.262  0.2933 -0.1321  0.2204
10314TIP3    H155137   0.167   6.142   1.257  0.2002 -0.3399 -1.9011
10314TIP3    H255138   0.208   6.004   1.209  2.1091 -0.1721 -0.8334
10315TIP3   OH255139   6.662   4.783   2.911 -0.0834  0.2336 -0.0233
10315TIP3    H155140   6.604   4.709   2.927 -0.7592  0.0623 -2.7437
10315TIP3    H255141   6.608   4.845   2.862  1.5196  0.8496 -1.0955
10316TIP3   OH255142   2.442   6.716   2.785  0.3945  0.1136 -0.2798
10316TIP3    H155143   2.474   6.755   2.866  0.0573  0.9786 -0.5577
10316TIP3    H255144   2.427   6.790   2.726 -0.7844 -0.3699 -0.6237
10317TIP3   OH255145   1.312   6.421   2.608  0.2040 -0.4864 -0.4639
10317TIP3    H155146   1.284   6.386   2.524 -0.0850  0.0232 -0.5802
10317TIP3    H255147   1.316   6.516   2.596  0.5218 -0.4353 -0.0117
10318TIP3   OH255148   7.281   2.739   2.725  0.4222 -0.1636  0.5660
10318TIP3    H155149   7.270   2.652   2.688  1.7114 -0.0183 -0.1868
10318TIP3    H255150   7.269   2.727   2.820  0.2532 -1.0790  0.4291
10319TIP3   OH255151   3.469   2.261   1.569 -0.4315  0.1967  0.4463
10319TIP3    H155152   3.468   2.288   1.477  2.3499  1.2533  0.6152
10319TIP3    H255153   3.387   2.294   1.605 -0.7599  1.3552 -1.2489
10320TIP3   OH255154   3.068   3.954   0.981  0.0940  0.2568 -0.6491
10320TIP3    H155155   3.148   4.006   0.978 -0.6952  1.4444 -2.3508
10320TIP3    H255156   3.096   3.867   0.950  0.9914  0.1819  0.2665
10321TIP3   OH255157   1.519   0.127   2.350 -0.4072  0.3500  0.0895
10321TIP3    H155158   1.597   0.072   2.340 -1.5470 -0.9213 -3.6884
10321TIP3    H255159   1.446   0.065   2.346 -1.6755  1.7339  0.8573
10322TIP3   OH255160   6.051   3.616   1.030 -0.9485 -0.0179 -0.2627
10322TIP3    H155161   6.036   3.549   1.097 -0.0215  1.2262  1.2781
10322TIP3    H255162   6.092   3.569   0.957  0.1511 -1.0662  0.9775
10323TIP3   OH255163   1.450   2.265   1.446 -0.0348  0.2189  0.1161
10323TIP3    H155164   1.363   2.234   1.420  0.0700  0.9025 -1.1164
10323TIP3    H255165   1.510   2.197   1.416  0.0250  0.6992 -0.8917
10324TIP3   OH255166   0.289   7.487   2.412  0.0060  0.3058 -0.0383
10324TIP3    H155167   0.203   7.473   2.371  0.8640 -2.0998 -1.2125
10324TIP3    H255168   0.347   7.507   2.339  0.4636  2.0518  0.7657
10325TIP3   OH255169   2.886   5.642   1.768 -0.3346 -0.6160 -0.8906
10325TIP3    H155170   2.875   5.737   1.778  0.1249 -0.6644  0.1944
10325TIP3    H255171   2.802   5.611   1.735 -0.6878  0.0905 -0.6646
10326TIP3   OH255172   2.973   2.033   1.589  0.3242  0.1209 -0.3500
10326TIP3    H155173   2.942   1.956   1.637 -0.8406  1.1348  0.6018
10326TIP3    H255174   2.914   2.039   1.513 -0.2473  0.6375  0.1255
10327TIP3   OH255175   0.934   6.159   0.565 -0.8713 -0.0308 -0.2198
10327TIP3    H155176   0.971   6.247   0.565  0.1318 -0.4219  0.5665
10327TIP3    H255177   0.845   6.170   0.597 -0.5510  0.6433  0.4890
10328TIP3   OH255178   7.022   4.242   2.131 -0.0855  0.1259 -0.4162
10328TIP3    H155179   6.959   4.170   2.129 -0.7613  0.6986 -0.4777
10328TIP3    H255180   7.055   4.243   2.221 -0.2083 -0.1401 -0.3677
10329TIP3   OH255181   1.984   5.139   3.301  0.2559  0.0002 -0.3206
10329TIP3    H155182   1.923   5.114   3.232  1.6122  0.0507 -1.5919
10329TIP3    H255183   2.049   5.193   3.257  1.0167  0.2653  1.0702
10330TIP3   OH255184   3.273   4.756   3.020 -0.1887  0.2302  0.1778
10330TIP3    H155185   3.239   4.667   3.011 -2.2857  0.7356  2.1417
10330TIP3    H255186   3.358   4.754   2.976  0.0652 -2.8527  0.6036
10331TIP3   OH255187   3.158   7.597   2.646  0.5202  0.5953  0.4156
10331TIP3    H155188   3.198   7.526   2.596 -0.2787 -0.1288  0.7942
10331TIP3    H255189   3.215   7.607   2.722  0.9730  0.7829  0.0604
10332TIP3   OH255190   0.031   0.343   2.670  0.0500  0.1824  0.4874
10332TIP3    H155191   0.126   0.339   2.677  0.0725  0.0894  0.1285
10332TIP3    H255192   0.009   0.434   2.688  0.3035  0.4661 -0.5798
10333TIP3   OH255193   0.067   1.615   3.392  0.5154 -0.0584  0.5278
10333TIP3    H155194   0.143   1.672   3.403  0.9922 -0.1890 -1.6659
10333TIP3    H255195   0.001   1.671   3.353 -0.1679 -0.2282  1.4056
10334TIP3   OH255196   2.572   2.376   1.058  0.1800 -0.0523 -0.3941
10334TIP3    H155197   2.516   2.310   1.017  0.1652  0.7068 -1.6401
10334TIP3    H255198   2.512   2.434   1.104  0.2302 -1.2051  1.2439
10335TIP3   OH255199   4.361   2.968   1.715  0.3368 -0.2533  0.4747
10335TIP3    H155200   4.294   3.020   1.671 -0.1780 -0.4956  0.9665
10335TIP3    H255201   4.318   2.884   1.732  0.8923 -0.5466  0.4338
10336TIP3   OH255202   3.385   5.149   0.803 -0.2474 -0.2674  0.4851
10336TIP3    H155203   3.445   5.206   0.755  0.7299  0.5375  2.5837
10336TIP3    H255204   3.305   5.201   0.811  0.0667  0.1474  0.9433
10337TIP3   OH255205   1.199   1.075   2.656  0.5075  0.1299  0.1911
10337TIP3    H155206   1.216   1.068   2.750 -0.4192  0.2234  0.3785
10337TIP3    H255207   1.240   0.997   2.618 -0.5766 -0.8157  0.8992
10338TIP3   OH255208   0.201   6.554   0.680  0.1264 -0.3026 -0.0602
10338TIP3    H155209   0.193   6.462   0.656  2.1383 -0.5842  0.1433
10338TIP3    H255210   0.240   6.554   0.767  1.4744  0.7100 -0.6154
10339TIP3   OH255211   3.436   6.159   1.592  0.7566  0.0373 -0.1985
10339TIP3    H155212   3.377   6.230   1.615  1.3262  0.5325 -0.2529
10339TIP3    H255213   3.475   6.131   1.675 -0.1817 -0.8676 -0.0429
10340TIP3   OH255214   6.722   5.457   0.686 -0.5202  0.0932 -0.2226
10340TIP3    H155215   6.736   5.398   0.611 -0.5526 -1.5184  0.9848
10340TIP3    H255216   6.707   5.398   0.760  0.2582  1.6346  1.2135
10341TIP3   OH255217   6.292   5.515   2.592 -0.4962 -0.5391 -0.3136
10341TIP3    H155218   6.260   5.548   2.676 -0.7885 -0.3286 -0.5057
10341TIP3    H255219   6.303   5.594   2.538  2.3661 -0.3230  0.3982
10342TIP3   OH255220   0.652   4.801   1.954  0.3085 -0.8497 -0.2206
10342TIP3    H155221   0.665   4.812   2.048  0.0674  0.1433 -0.2990
10342TIP3    H255222   0.715   4.733   1.930  0.6087 -0.8794  0.5951
10343TIP3   OH255223   7.495   1.068   0.509  0.1194 -0.3516 -0.5829
10343TIP3    H155224   7.444   1.090   0.431 -1.3107  3.1321  1.1243
10343TIP3    H255225   7.556   1.141   0.519  2.1333 -2.0353  0.1956
10344TIP3   OH255226   0.927   3.198   1.381 -0.1759 -0.4491 -0.3986
10344TIP3    H155227   0.865   3.125   1.379  0.0359 -0.6404 -0.0552
10344TIP3    H255228   0.941   3.215   1.474  0.2894 -0.4110 -0.4726
10345TIP3   OH255229   3.805   4.781   2.454  0.3390  0.6185  0.1557
10345TIP3    H155230   3.835   4.712   2.514 -0.3757 -0.1387 -0.3346
10345TIP3    H255231   3.807   4.740   2.368  0.2662  1.3427 -0.1957
10346TIP3   OH255232   4.656   5.110   1.166  0.4041  0.4101 -0.3379
10346TIP3    H155233   4.675   5.195   1.205  0.5658 -0.2944  1.1666
10346TIP3    H255234   4.627   5.055   1.239  1.7657 -1.2813 -0.9855
10347TIP3   OH255235   3.156   3.184   3.026  0.0343 -0.1421 -0.5166
10347TIP3    H155236   3.193   3.233   2.953  0.8584 -3.7250 -2.7529
10347TIP3    H255237   3.231   3.136   3.063 -1.1800 -2.3210 -0.7173
10348TIP3   OH255238   0.503   6.185   3.510 -0.0125 -0.3113 -0.5655
10348TIP3    H155239   0.545   6.193   3.425  1.2191  0.0590  0.0552
10348TIP3    H255240   0.528   6.265   3.557 -0.9474 -0.3465  0.0306
10349TIP3   OH255241   2.224   1.486   2.479  0.4794 -0.0908 -0.3537
10349TIP3    H155242   2.162   1.432   2.429  0.5300  0.5705 -1.1440
10349TIP3    H255243   2.226   1.569   2.433  0.2610  0.6707  0.9663
10350TIP3   OH255244   1.131   0.995   1.218  0.3626  0.0511 -0.2694
10350TIP3    H155245   1.164   1.066   1.272 -0.9382  0.3930  0.1298
10350TIP3    H255246   1.160   0.915   1.263 -1.5262  0.3073  1.5734
10351TIP3   OH255247   5.683   4.821   2.134  0.2038 -0.0500 -0.4370
10351TIP3    H155248   5.718   4.908   2.155 -0.9760  0.6181 -1.1474
10351TIP3    H255249   5.694   4.771   2.215 -0.4230  1.2081  0.4617
10352TIP3   OH255250   3.228   4.581   1.853  0.1295 -0.1650  0.3241
10352TIP3    H155251   3.132   4.583   1.848  0.1440 -0.0903  0.0331
10352TIP3    H255252   3.252   4.664   1.894  0.1551  0.6233 -1.2208
10353TIP3   OH255253   7.437   4.424   1.427  0.1910  0.0438 -0.1994
10353TIP3    H155254   7.491   4.351   1.396  1.9520  0.6889  1.1259
10353TIP3    H255255   7.474   4.501   1.384  0.2011  0.4817  0.5831
10354TIP3   OH255256   1.294   6.024   1.707 -0.1261 -0.5116 -0.1768
10354TIP3    H155257   1.344   5.982   1.636  2.1925 -0.0647  1.1010
10354TIP3    H255258   1.354   6.025   1.781 -1.5316  1.4546  1.0202
10355TIP3   OH255259   2.553   4.819   0.773 -0.0795 -0.3090  0.5852
10355TIP3    H155260   2.623   4.821   0.708 -1.5660  1.5963 -1.0794
10355TIP3    H255261   2.565   4.736   0.819  1.0460 -1.7547 -2.1289
10356TIP3   OH255262   5.114   4.932   2.709  0.4006  0.0180  0.3180
10356TIP3    H155263   5.029   4.963   2.676  0.0240  1.2907  2.2964
10356TIP3    H255264   5.178   4.993   2.674 -0.2877  3.1529  3.8225
10357TIP3   OH255265   5.301   1.217   0.759 -0.2132 -0.4226 -0.4116
10357TIP3    H155266   5.274   1.153   0.825 -0.9287 -0.5640 -0.8363
10357TIP3    H255267   5.224   1.273   0.746 -0.5784 -1.2903 -2.1805
10358TIP3   OH255268   3.461   5.298   2.436 -0.2743 -0.1353 -0.1372
10358TIP3    H155269   3.467   5.322   2.528  1.3833 -0.5752 -0.0981
10358TIP3    H255270   3.418   5.212   2.436  0.0979 -0.3262  0.2730
10359TIP3   OH255271   4.883   6.613   2.911 -0.2125  0.2175 -0.4366
10359TIP3    H155272   4.811   6.671   2.935  0.7086  1.5219 -0.6816
10359TIP3    H255273   4.931   6.662   2.843  1.0336 -0.5058 -0.1071
10360TIP3   OH255274   5.458   7.203   0.927  0.0502 -0.3849 -0.0003
10360TIP3    H155275   5.434   7.150   0.850 -0.7866  1.1112 -0.8221
10360TIP3    H255276   5.435   7.149   1.002  0.9409 -1.9177 -0.7879
10361TIP3   OH255277   1.644   5.578   2.180 -0.2477  0.0065 -0.7530
10361TIP3    H155278   1.695   5.510   2.134 -0.4142  0.2469 -1.2986
10361TIP3    H255279   1.599   5.626   2.110  0.0224  0.8073 -0.3867
10362TIP3   OH255280   2.578   2.249   2.400  0.6075 -0.2628  0.5294
10362TIP3    H155281   2.567   2.246   2.495  0.7351 -1.2796  0.5284
10362TIP3    H255282   2.489   2.243   2.365  0.5051  0.8484  0.5842
10363TIP3   OH255283   0.257   3.342   2.831 -0.6077  0.4154 -0.0347
10363TIP3    H155284   0.260   3.319   2.924 -1.0469 -1.3991 -0.4397
10363TIP3    H255285   0.332   3.400   2.818  0.7844 -1.0677  1.0094
10364TIP3   OH255286   6.258   6.118   2.071  0.0150  0.0257  0.8509
10364TIP3    H155287   6.330   6.138   2.011  1.6704 -1.5633  2.1777
10364TIP3    H255288   6.271   6.176   2.146 -1.3716  1.1941  0.2433
10365TIP3   OH255289   4.571   5.598   2.417  0.5035  0.1048  0.0749
10365TIP3    H155290   4.543   5.530   2.479  1.3138  1.4177  1.9910
10365TIP3    H255291   4.499   5.662   2.419 -0.2677 -0.6509 -1.7356
10366TIP3   OH255292   5.493   6.192   3.172  0.3080  0.1592 -0.6989
10366TIP3    H155293   5.519   6.233   3.254  2.0739  0.2661 -1.2665
10366TIP3    H255294   5.513   6.099   3.183 -0.1176  0.0592 -0.7556
10367TIP3   OH255295   2.589   1.483   1.814 -0.8539 -0.3974  0.5881
10367TIP3    H155296   2.604   1.541   1.889 -2.4054 -0.5044  1.0090
10367TIP3    H255297   2.632   1.528   1.741  0.6206 -0.2576  1.5071
10368TIP3   OH255298   3.442   0.912   1.178  0.2725  0.0112 -0.2433
10368TIP3    H155299   3.465   0.969   1.251 -0.3758 -0.5344  0.4027
10368TIP3    H255300   3.526   0.881   1.144  0.5759  0.0274  0.4704
10369TIP3   OH255301   7.108   5.536   2.164  0.7393  0.2526  0.5569
10369TIP3    H155302   7.181   5.525   2.103  0.0302 -1.9143  0.0449
10369TIP3    H255303   7.107   5.455   2.215 -1.6671 -0.0424  0.1524
10370TIP3   OH255304   3.811   1.807   1.497 -0.4544 -0.0174 -0.4084
10370TIP3    H155305   3.895   1.851   1.504 -0.9279  1.0873 -1.3074
10370TIP3    H255306   3.799   1.791   1.404 -0.3378 -2.0385 -0.1199
10371TIP3   OH255307   0.801   5.849   2.661 -0.3806  0.0091 -0.3185
10371TIP3    H155308   0.718   5.837   2.706 -0.6801  1.1546 -0.5502
10371TIP3    H255309   0.784   5.915   2.595  0.5948 -0.1026 -0.7047
10372TIP3   OH255310   2.989   7.155   1.710 -0.2468  0.0134  0.6018
10372TIP3    H155311   3.074   7.156   1.754 -0.6626  1.2229  1.4317
10372TIP3    H255312   3.001   7.097   1.634  1.1104 -0.3555  1.0817
10373TIP3   OH255313   3.500   5.859   3.252 -0.2073 -0.0343 -0.6697
10373TIP3    H155314   3.459   5.940   3.223  0.0043 -0.0306 -0.9598
10373TIP3    H255315   3.575   5.887   3.305  0.1536 -0.0352 -1.1724
10374TIP3   OH255316   7.139   6.932   1.684 -0.0569 -0.8904 -0.1350
10374TIP3    H155317   7.178   6.993   1.746  0.0582 -2.0343  0.9464
10374TIP3    H255318   7.199   6.858   1.680 -1.0659 -1.7493 -0.0312
10375TIP3   OH255319   3.154   1.182   1.453 -0.3373  0.6792  0.1448
10375TIP3    H155320   3.165   1.100   1.404  1.2225  1.2728 -0.5539
10375TIP3    H255321   3.227   1.183   1.515 -0.7338  1.2334  0.6155
10376TIP3   OH255322   2.809   2.496   0.560  0.9705 -0.3769  0.6423
10376TIP3    H155323   2.770   2.557   0.623 -0.0060  1.2352 -1.3940
10376TIP3    H255324   2.902   2.518   0.558  1.2809 -1.3673  2.4481
10377TIP3   OH255325   6.673   7.364   2.410  0.1227 -1.5471  0.3010
10377TIP3    H155326   6.686   7.342   2.503 -2.6536 -2.6489  0.5204
10377TIP3    H255327   6.692   7.283   2.363 -0.7825 -1.6859  0.1604
10378TIP3   OH255328   6.476   4.937   2.404 -0.1282  0.3170  0.5481
10378TIP3    H155329   6.432   4.984   2.334 -1.7779 -2.1019 -0.1696
10378TIP3    H255330   6.459   4.989   2.483  2.1597  3.3417 -0.7532
10379TIP3   OH255331   4.199   2.399   0.740  0.1124 -0.3031 -0.2730
10379TIP3    H155332   4.289   2.422   0.717  0.2770 -1.5065 -0.9124
10379TIP3    H255333   4.150   2.481   0.729  0.8073 -0.0388 -1.6407
10380TIP3   OH255334   0.792   2.462   2.260 -0.3416 -0.0357 -0.0066
10380TIP3    H155335   0.855   2.528   2.287  0.4420 -0.4922 -0.6737
10380TIP3    H255336   0.778   2.479   2.166  0.5486 -1.3441 -0.4042
10381TIP3   OH255337   5.904   1.604   0.818 -0.0223  0.1516 -0.2555
10381TIP3    H155338   5.921   1.679   0.762  0.2307  1.5974  1.6538
10381TIP3    H255339   5.814   1.615   0.847  0.7470  1.1379  1.9706
10382TIP3   OH255340   6.798   1.221   1.192 -0.0812  0.3041 -0.4387
10382TIP3    H155341   6.801   1.266   1.277  1.2307 -0.1564 -0.2127
10382TIP3    H255342   6.754   1.283   1.134  0.5412  1.3608  0.1737
10383TIP3   OH255343   2.856   3.005   1.489 -0.1146  0.5157  0.0959
10383TIP3    H155344   2.823   3.083   1.534  1.2019  1.7721 -1.0133
10383TIP3    H255345   2.926   3.038   1.432 -0.0822 -1.3637 -1.0361
10384TIP3   OH255346   6.514   3.094   2.948 -0.2224 -0.5599 -0.2090
10384TIP3    H155347   6.424   3.094   2.982  0.0594 -2.6209  0.6520
10384TIP3    H255348   6.569   3.076   3.024  0.6913 -2.1111 -1.1872
10385TIP3   OH255349   4.669   0.560   2.931  0.0714  0.0927  0.1392
10385TIP3    H155350   4.644   0.553   2.839 -1.4309 -2.6707  0.6203
10385TIP3    H255351   4.586   0.568   2.978  0.6760 -0.3474  1.3336
10386TIP3   OH255352   2.898   7.542   2.528 -0.1732  0.8408 -0.3682
10386TIP3    H155353   2.905   7.472   2.463  0.6721  1.5300 -1.0576
10386TIP3    H255354   2.913   7.623   2.477  0.3952  1.4018  0.6630
10387TIP3   OH255355   3.781   4.433   1.420 -0.0924 -0.1955 -0.4317
10387TIP3    H155356   3.837   4.355   1.411 -1.8784 -1.4482 -1.2543
10387TIP3    H255357   3.721   4.411   1.491  1.4633  1.8294  1.6366
10388TIP3   OH255358   5.587   3.883   1.813  0.1734 -0.2464  0.0200
10388TIP3    H155359   5.624   3.902   1.900  1.3138 -1.4666 -0.1631
10388TIP3    H255360   5.624   3.951   1.757  1.7809 -1.1087 -0.0405
10389TIP3   OH255361   3.089   0.634   2.138  0.2907 -0.2185  0.4941
10389TIP3    H155362   3.167   0.656   2.087  0.3389  0.4211  0.8194
10389TIP3    H255363   3.054   0.555   2.098  0.8241 -0.2203  0.0280
10390TIP3   OH255364   5.568   5.326   0.728 -0.4270 -0.3173  0.7584
10390TIP3    H155365   5.588   5.259   0.662  1.7265  1.3378 -0.3892
10390TIP3    H255366   5.647   5.331   0.781 -1.2752  0.0170  2.0206
10391TIP3   OH255367   6.786   4.071   1.171 -0.1715  0.2055  0.0417
10391TIP3    H155368   6.843   4.032   1.237  0.0300  0.4193 -0.0067
10391TIP3    H255369   6.756   3.996   1.119  0.8616  0.1917 -0.5588
10392TIP3   OH255370   4.522   3.999   1.307 -0.1931 -0.2657 -0.0372
10392TIP3    H155371   4.429   4.019   1.308  0.0911  1.2438 -1.1347
10392TIP3    H255372   4.566   4.084   1.311  1.1826 -0.9810  1.7194
10393TIP3   OH255373   3.692   3.363   1.692  0.2400 -0.1167 -0.2034
10393TIP3    H155374   3.678   3.288   1.750 -2.4937 -0.8655 -1.6780
10393TIP3    H255375   3.713   3.435   1.752  0.9090 -1.5581  1.3988
10394TIP3   OH255376   7.146   5.596   3.107 -0.5543  0.1884  0.3001
10394TIP3    H155377   7.147   5.503   3.129  0.7565  0.6336  2.3991
10394TIP3    H255378   7.079   5.604   3.039 -1.6000 -2.0756  0.9688
10395TIP3   OH255379   0.047   3.141   2.789  0.4925 -0.0103 -0.4227
10395TIP3    H155380   0.089   3.223   2.813 -0.2586 -0.3089  2.2805
10395TIP3    H255381   0.117   3.077   2.789  0.7060  0.2191 -0.1192
10396TIP3   OH255382   6.997   3.299   2.127 -0.2816 -0.1114 -0.0447
10396TIP3    H155383   7.001   3.207   2.152 -0.2606 -1.9695 -5.5882
10396TIP3    H255384   6.906   3.312   2.100 -0.9485  2.4422  2.8578
10397TIP3   OH255385   4.740   6.219   1.493  0.7383  0.1932 -0.5853
10397TIP3    H155386   4.763   6.312   1.503  1.2507  0.0546 -0.4368
10397TIP3    H255387   4.728   6.188   1.583 -1.3962  0.5809 -0.6896
10398TIP3   OH255388   5.262   6.065   0.957 -0.0382  0.1508  0.4324
10398TIP3    H155389   5.306   6.119   1.022  0.7933  0.1014 -0.0796
10398TIP3    H255390   5.169   6.085   0.968  0.1268  0.4397  1.3595
10399TIP3   OH255391   7.364   1.045   2.670 -0.0189 -0.1571 -0.1869
10399TIP3    H155392   7.401   1.070   2.756  1.0998 -2.4327  0.0665
10399TIP3    H255393   7.270   1.037   2.686 -0.7100  4.5192 -0.5281
10400TIP3   OH255394   2.603   5.629   1.976  0.0508 -0.2067 -0.1756
10400TIP3    H155395   2.577   5.576   2.052 -3.0802 -0.1332 -1.0743
10400TIP3    H255396   2.642   5.708   2.014  0.6230 -1.1315  1.2657
10401TIP3   OH255397   7.505   5.852   2.368  0.7215 -0.7016 -0.1894
10401TIP3    H155398   7.464   5.826   2.285  0.7589 -0.4215 -0.2950
10401TIP3    H255399   7.532   5.769   2.408 -1.0262 -0.9986  0.4454
10402TIP3   OH255400   1.455   3.818   0.976  0.0395  0.6216  0.3231
10402TIP3    H155401   1.512   3.829   0.900  0.9440 -0.1193  0.8851
10402TIP3    H255402   1.371   3.856   0.948  0.4635  0.6974 -0.9056
10403TIP3   OH255403   3.971   0.035   1.928 -0.0815 -0.6927 -0.6326
10403TIP3    H155404   3.908  -0.032   1.954 -1.0285 -0.0271 -1.1265
10403TIP3    H255405   4.052   0.010   1.971 -0.8770 -1.1688  0.6451
10404TIP3   OH255406   7.229   6.572   2.026 -0.1186 -0.2787 -0.4507
10404TIP3    H155407   7.261   6.508   2.090  0.8033  0.2762 -0.3353
10404TIP3    H255408   7.308   6.616   1.995 -0.7637  1.0106 -0.3071
10405TIP3   OH255409   2.233   7.279   1.054  0.0089 -0.6260  0.7362
10405TIP3    H155410   2.321   7.314   1.067 -0.1019  0.2467 -0.6486
10405TIP3    H255411   2.210   7.305   0.964 -1.4060 -1.3888  0.8519
10406TIP3   OH255412   7.535   4.614   1.265  0.3589  0.3615 -0.9043
10406TIP3    H155413   7.537   4.700   1.224 -0.8108  0.1858 -1.3763
10406TIP3    H255414   7.537   4.552   1.192  2.3167 -0.0771 -0.5496
10407TIP3   OH255415   5.279   6.782   0.693 -0.4590  0.4732  0.0487
10407TIP3    H155416   5.362   6.811   0.731 -0.8692  0.1213  1.2850
10407TIP3    H255417   5.304   6.712   0.633 -0.0191 -2.2067  3.0560
10408TIP3   OH255418   7.145   4.065   2.324 -0.4624 -0.3497  0.1620
10408TIP3    H155419   7.102   3.992   2.279  2.4442 -1.1026 -1.6130
10408TIP3    H255420   7.187   4.025   2.400  0.8794 -0.5406 -0.6458
10409TIP3   OH255421   3.497   0.943   1.689 -0.0350 -0.0164  0.5980
10409TIP3    H155422   3.450   0.966   1.769 -0.2232 -0.7854  0.7164
10409TIP3    H255423   3.578   0.994   1.692 -1.3736  2.3016 -0.2061
10410TIP3   OH255424   0.985   0.239   2.567  0.0741  0.2057  0.3240
10410TIP3    H155425   1.003   0.311   2.627 -0.2472 -0.2955  1.0337
10410TIP3    H255426   0.918   0.273   2.508  0.1237  0.5762  0.4766
10411TIP3   OH255427   7.393   4.052   3.349  0.2072  0.2073 -0.4847
10411TIP3    H155428   7.482   4.041   3.382 -0.4805  0.9310  1.8062
10411TIP3    H255429   7.347   3.974   3.377 -0.2895  0.6394 -0.0691
10412TIP3   OH255430   5.515   1.287   1.033  0.1636  0.2441  0.5748
10412TIP3    H155431   5.454   1.227   1.076 -0.2738  1.3344  1.5281
10412TIP3    H255432   5.469   1.315   0.954 -0.1682  0.3235  0.7951
10413TIP3   OH255433   5.800   5.878   3.050  0.2534  0.3356 -0.1233
10413TIP3    H155434   5.711   5.893   3.083  0.5042 -2.1201  1.9865
10413TIP3    H255435   5.845   5.961   3.064 -1.3259  1.2167  0.0162
10414TIP3   OH255436   2.272   0.419   1.267  0.0682  0.1183 -0.2237
10414TIP3    H155437   2.327   0.474   1.211 -0.1115 -0.4959 -1.0064
10414TIP3    H255438   2.305   0.436   1.356 -0.0216  1.5364 -0.4400
10415TIP3   OH255439   0.712   2.236   2.404 -0.0030  0.0967 -0.0073
10415TIP3    H155440   0.746   2.315   2.363 -1.4503 -0.2656 -2.1086
10415TIP3    H255441   0.754   2.164   2.356  1.4408 -0.4843  1.9952
10416TIP3   OH255442   2.930   1.951   0.838  0.3055 -0.1079 -0.2679
10416TIP3    H155443   2.856   1.903   0.798  0.1653 -0.4894  0.4270
10416TIP3    H255444   2.897   2.040   0.851  0.3014 -0.0207 -0.8572
10417TIP3   OH255445   7.471   6.625   1.419  0.3212  0.4501 -0.1649
10417TIP3    H155446   7.484   6.530   1.424  1.3774  0.5615 -0.5997
10417TIP3    H255447   7.453   6.641   1.327 -0.4954  0.6064  0.0147
10418TIP3   OH255448   3.677   0.650   0.590 -0.0343  0.6319  0.4069
10418TIP3    H155449   3.746   0.669   0.526 -0.2676 -2.4897 -0.9050
10418TIP3    H255450   3.608   0.713   0.570  0.2811  0.3296 -1.8383
10419TIP3   OH255451   2.216   0.518   1.691 -0.1659 -0.1211  0.0395
10419TIP3    H155452   2.139   0.575   1.681  0.1726  0.3439  0.0232
10419TIP3    H255453   2.290   0.579   1.698  0.3623 -0.5689 -1.2412
10420TIP3   OH255454   5.830   0.813   2.574 -0.0140 -0.4259 -0.2328
10420TIP3    H155455   5.916   0.796   2.613  1.0551  0.6693 -1.9518
10420TIP3    H255456   5.771   0.821   2.649  1.4466 -0.8681  1.0238
10421TIP3   OH255457   5.292   7.154   2.864 -0.3729 -0.5631 -0.2187
10421TIP3    H155458   5.240   7.135   2.942 -0.1794  0.1718  0.1037
10421TIP3    H255459   5.243   7.224   2.820 -1.5635 -2.3519 -1.8620
10422TIP3   OH255460   1.143   2.921   2.628 -0.2753  0.0776  0.2499
10422TIP3    H155461   1.226   2.945   2.585 -0.4184 -0.8637 -0.5992
10422TIP3    H255462   1.165   2.845   2.682 -0.5692 -0.1407  0.0638
10423TIP3   OH255463   3.803   0.080   2.456 -0.1235  0.2748 -0.3971
10423TIP3    H155464   3.803   0.021   2.531 -1.0512 -1.2347 -1.5342
10423TIP3    H255465   3.720   0.064   2.412 -0.1020  1.9626 -1.1328
10424TIP3   OH255466   6.327   7.200   2.529 -0.2685 -0.4354  0.3051
10424TIP3    H155467   6.333   7.289   2.494  0.8067 -1.3782 -2.1136
10424TIP3    H255468   6.298   7.212   2.620 -0.2102  2.3530  0.0404
10425TIP3   OH255469   2.758   4.512   1.159  0.1235 -0.0378  0.5164
10425TIP3    H155470   2.665   4.531   1.149  0.2761  0.3281 -0.2488
10425TIP3    H255471   2.803   4.587   1.120  0.7469  0.0538  1.3658
10426TIP3   OH255472   4.165   0.732   2.424  0.0904  0.5777  0.0012
10426TIP3    H155473   4.207   0.701   2.504  0.8551  1.5554  0.0084
10426TIP3    H255474   4.086   0.778   2.454 -0.7671 -0.8547  0.0211
10427TIP3   OH255475   2.406   3.475   2.326 -0.4770 -0.2758 -0.2338
10427TIP3    H155476   2.442   3.431   2.249 -0.1527  0.4711 -0.5141
10427TIP3    H255477   2.367   3.404   2.378 -1.3436 -0.6852 -1.4206
10428TIP3   OH255478   2.481   4.763   2.168 -0.2394 -0.3415  0.3711
10428TIP3    H155479   2.433   4.836   2.130 -0.1006 -1.1066 -1.3356
10428TIP3    H255480   2.417   4.691   2.172  0.6781 -1.3592 -1.8935
10429TIP3   OH255481   0.722   1.160   0.878  0.2766  0.6777  0.2274
10429TIP3    H155482   0.786   1.208   0.826  1.0845 -1.8040 -1.2866
10429TIP3    H255483   0.647   1.150   0.820  0.9591 -1.6218 -0.3846
10430TIP3   OH255484   1.723   2.891   0.521  0.2781  0.4742 -0.3072
10430TIP3    H155485   1.805   2.843   0.532  0.8380  1.4361 -0.1270
10430TIP3    H255486   1.654   2.824   0.525  1.0480 -0.3393 -0.4258
10431TIP3   OH255487   4.398   2.701   1.964  0.2028 -0.3345  0.0506
10431TIP3    H155488   4.304   2.709   1.948  0.1306  0.5665  0.8542
10431TIP3    H255489   4.429   2.642   1.895 -0.9579 -0.6973 -0.1782
10432TIP3   OH255490   3.898   6.226   2.648 -0.4839  0.1988 -0.2300
10432TIP3    H155491   3.927   6.152   2.702  1.5297  0.9945 -0.1377
10432TIP3    H255492   3.895   6.300   2.708  0.3531  0.7852 -0.8947
10433TIP3   OH255493   3.607   0.628   3.409 -0.4536 -0.0576 -0.0289
10433TIP3    H155494   3.520   0.614   3.445 -0.0936  1.6044  1.6847
10433TIP3    H255495   3.666   0.613   3.483  0.4218  2.2652 -0.1635
10434TIP3   OH255496   3.877   5.843   2.224  0.7417  0.2254  0.8086
10434TIP3    H155497   3.971   5.834   2.240  1.2146  1.1566 -1.1818
10434TIP3    H255498   3.865   5.934   2.197 -0.1302 -0.6641 -2.2363
10435TIP3   OH255499   5.964   3.155   0.914 -0.5736 -0.2133  0.3202
10435TIP3    H155500   6.003   3.068   0.919 -2.2198 -0.9849  0.6990
10435TIP3    H255501   6.028   3.209   0.867  1.2280 -1.1802  1.5379
10436TIP3   OH255502   5.801   1.677   1.685 -0.0451  0.3415  0.3425
10436TIP3    H155503   5.796   1.584   1.663 -0.9573  0.3097  0.6567
10436TIP3    H255504   5.712   1.701   1.710  0.1684  1.3220  0.1977
10437TIP3   OH255505   7.265   4.631   1.389 -0.0465 -0.2279 -0.0189
10437TIP3    H155506   7.348   4.586   1.373 -0.8002 -1.3337 -1.0454
10437TIP3    H255507   7.249   4.619   1.483  0.1502 -1.4996 -0.1284
10438TIP3   OH255508   6.289   5.330   2.370 -0.1604 -0.2421  0.0195
10438TIP3    H155509   6.267   5.392   2.301 -2.8851 -0.7991  0.2655
10438TIP3    H255510   6.272   5.377   2.451 -0.2823 -0.6652  0.2436
10439TIP3   OH255511   2.710   5.905   1.308 -0.6283  0.4360  0.7737
10439TIP3    H155512   2.770   5.864   1.371  0.4326  1.8320  0.7252
10439TIP3    H255513   2.745   5.993   1.296 -1.2810  0.4721 -1.1647
   7.68049   7.68049  30.00000
